 Q-Chem 5.0, Q-Chem, Inc., Pleasanton, CA (2017)
 Q-Chem 5.0.1 for Intel X86 EM64T Linux

User input:
--------------------------------------------------------------
$molecule
0  1
C        +5.64068000        +4.19901000        +5.55555000
C        +6.04424000        +2.74060000        +5.96831000
C        +6.74806000        +4.55387000        +4.53469000
C        +8.04868000        +4.87113000        +5.29815000
C        +8.46134000        +3.44764000        +5.77260000
C        +7.36221000        +2.56114000        +5.12222000
O        +7.04638000        +3.29076000        +3.92584000
H        +8.79032000        +5.29195000        +4.61765000
H        +7.90034000        +5.57901000        +6.11611000
H        +9.43980000        +3.16407000        +5.38121000
H        +8.49157000        +3.34151000        +6.85888000
H        +6.45068000        +5.35356000        +3.88896000
H        +7.66137000        +1.53917000        +5.01746000
H        +6.23491000        +2.66508000        +7.01847000
H        +5.29274000        +2.00057000        +5.78803000
H        +4.67125000        +4.22224000        +5.10325000
H        +5.57350000        +4.88030000        +6.37788000
@C        +0.22270000        +1.04488000        +0.58595000
@C        +0.62626000        -0.41353000        +0.99871000
@C        +1.33008000        +1.39974000        -0.43491000
@C        +2.63070000        +1.71700000        +0.32855000
@C        +3.04336000        +0.29351000        +0.80300000
@C        +1.94423000        -0.59299000        +0.15262000
@O        +1.62840000        +0.13663000        -1.04376000
@H        +3.37234000        +2.13782000        -0.35195000
@H        +2.48236000        +2.42488000        +1.14651000
@H        +4.02182000        +0.00994000        +0.41161000
@H        +3.07359000        +0.18738000        +1.88928000
@H        +1.03270000        +2.19943000        -1.08064000
@H        +2.24339000        -1.61496000        +0.04786000
@H        +0.81693000        -0.48905000        +2.04887000
@H        -0.12524000        -1.15356000        +0.81843000
@H        -0.74673000        +1.06811000        +0.13365000
@H        +0.15552000        +1.72617000        +1.40828000
$end

$rem
JOBTYPE                   SP
METHOD                    B3LYP
DFT_D                     d3_op
BASIS                     6-311++G(d,p)
SYMMETRY                  False
THRESH                    12
SCF_CONVERGENCE           8
MAX_SUB_FILE_NUM          128
MEM_STATIC                400
MEM_TOTAL                 4000
$end
--------------------------------------------------------------

             Standard Nuclear Orientation (Angstroms)
    I     Atom           X                Y                Z
 ----------------------------------------------------------------
    1      C       5.6406800000     4.1990100000     5.5555500000
    2      C       6.0442400000     2.7406000000     5.9683100000
    3      C       6.7480600000     4.5538700000     4.5346900000
    4      C       8.0486800000     4.8711300000     5.2981500000
    5      C       8.4613400000     3.4476400000     5.7726000000
    6      C       7.3622100000     2.5611400000     5.1222200000
    7      O       7.0463800000     3.2907600000     3.9258400000
    8      H       8.7903200000     5.2919500000     4.6176500000
    9      H       7.9003400000     5.5790100000     6.1161100000
   10      H       9.4398000000     3.1640700000     5.3812100000
   11      H       8.4915700000     3.3415100000     6.8588800000
   12      H       6.4506800000     5.3535600000     3.8889600000
   13      H       7.6613700000     1.5391700000     5.0174600000
   14      H       6.2349100000     2.6650800000     7.0184700000
   15      H       5.2927400000     2.0005700000     5.7880300000
   16      H       4.6712500000     4.2222400000     5.1032500000
   17      H       5.5735000000     4.8803000000     6.3778800000
   18      GH      0.2227000000     1.0448800000     0.5859500000
   19      GH      0.6262600000    -0.4135300000     0.9987100000
   20      GH      1.3300800000     1.3997400000    -0.4349100000
   21      GH      2.6307000000     1.7170000000     0.3285500000
   22      GH      3.0433600000     0.2935100000     0.8030000000
   23      GH      1.9442300000    -0.5929900000     0.1526200000
   24      GH      1.6284000000     0.1366300000    -1.0437600000
   25      GH      3.3723400000     2.1378200000    -0.3519500000
   26      GH      2.4823600000     2.4248800000     1.1465100000
   27      GH      4.0218200000     0.0099400000     0.4116100000
   28      GH      3.0735900000     0.1873800000     1.8892800000
   29      GH      1.0327000000     2.1994300000    -1.0806400000
   30      GH      2.2433900000    -1.6149600000     0.0478600000
   31      GH      0.8169300000    -0.4890500000     2.0488700000
   32      GH     -0.1252400000    -1.1535600000     0.8184300000
   33      GH     -0.7467300000     1.0681100000     0.1336500000
   34      GH      0.1555200000     1.7261700000     1.4082800000
 ----------------------------------------------------------------

   12    -309.9594324704      6.18E-09 Convergence criterion met
 Total energy in the final basis set = -309.95943247

                    Orbital Energies (a.u.)
 --------------------------------------------------------------

 Alpha MOs
 -- Occupied --
-19.123 -10.221 -10.218 -10.168 -10.167 -10.165 -10.163  -1.050
 -0.798  -0.749  -0.747  -0.614  -0.578  -0.574  -0.527  -0.478
 -0.465  -0.431  -0.406  -0.395  -0.364  -0.360  -0.351  -0.339
 -0.317  -0.304  -0.264

          Ground-State Mulliken Net Atomic Charges

     Atom                 Charge (a.u.)
  ----------------------------------------
      1 C                    -0.410899
      2 C                    -0.432679
      3 C                     0.158727
      4 C                    -0.493101
      5 C                    -0.425871
      6 C                     0.169964
      7 O                    -0.139059
      8 H                     0.164511
      9 H                     0.123270
     10 H                     0.161231
     11 H                     0.124471
     12 H                     0.218797
     13 H                     0.223755
     14 H                     0.119775
     15 H                     0.158323
     16 H                     0.150098
     17 H                     0.128685
     18 GH                    0.000001
     19 GH                    0.000033
     20 GH                   -0.000171
     21 GH                    0.000488
     22 GH                   -0.000093
     23 GH                   -0.000362
     24 GH                    0.000002
     25 GH                   -0.000053
     26 GH                    0.000256
     27 GH                    0.000071
     28 GH                   -0.000169
     29 GH                    0.000007
     30 GH                    0.000003
     31 GH                   -0.000009
     32 GH                   -0.000002
     33 GH                   -0.000003
     34 GH                    0.000007
  ----------------------------------------
  Sum of atomic charges =     0.000000

                    Cartesian Multipole Moments
 -----------------------------------------------------------------
    Charge (ESU x 10^10)
                 0.0000
    Dipole Moment (Debye)
         X      -0.0139      Y       0.5183      Z       1.7268
       Tot       1.8029
    Quadrupole Moments (Debye-Ang)
        XX     -43.3749     XY       2.7091     YY     -37.3491
        XZ      12.0674     YZ       7.1575     ZZ     -29.0778

 Total job time:  73.48s(wall), 292.36s(cpu)
        *  Thank you very much for using Q-Chem.  Have a nice day.  *
