 Q-Chem 5.0, Q-Chem, Inc., Pleasanton, CA (2017)
 Q-Chem 5.0.1 for Intel X86 EM64T Linux

User input:
--------------------------------------------------------------
$molecule
0  1
--
0  1
C        +0.22270000        +1.04488000        +0.58595000
C        +0.62626000        -0.41353000        +0.99871000
C        +1.33008000        +1.39974000        -0.43491000
C        +2.63070000        +1.71700000        +0.32855000
C        +3.04336000        +0.29351000        +0.80300000
C        +1.94423000        -0.59299000        +0.15262000
O        +1.62840000        +0.13663000        -1.04376000
H        +3.37234000        +2.13782000        -0.35195000
H        +2.48236000        +2.42488000        +1.14651000
H        +4.02182000        +0.00994000        +0.41161000
H        +3.07359000        +0.18738000        +1.88928000
H        +1.03270000        +2.19943000        -1.08064000
H        +2.24339000        -1.61496000        +0.04786000
H        +0.81693000        -0.48905000        +2.04887000
H        -0.12524000        -1.15356000        +0.81843000
H        -0.74673000        +1.06811000        +0.13365000
H        +0.15552000        +1.72617000        +1.40828000
--
0  1
C        +2.72852000        +2.50366000        +2.88439000
C        +3.13208000        +1.04525000        +3.29715000
C        +3.83590000        +2.85852000        +1.86353000
C        +5.13652000        +3.17578000        +2.62699000
C        +5.54918000        +1.75229000        +3.10144000
C        +4.45005000        +0.86579000        +2.45106000
O        +4.13422000        +1.59541000        +1.25468000
H        +5.87816000        +3.59660000        +1.94649000
H        +4.98818000        +3.88366000        +3.44495000
H        +6.52764000        +1.46872000        +2.71005000
H        +5.57941000        +1.64616000        +4.18772000
H        +3.53852000        +3.65821000        +1.21780000
H        +4.74921000        -0.15618000        +2.34630000
H        +3.32275000        +0.96973000        +4.34731000
H        +2.38058000        +0.30522000        +3.11687000
H        +1.75909000        +2.52689000        +2.43209000
H        +2.66134000        +3.18495000        +3.70672000
$end

$rem
JOBTYPE                   SP
METHOD                    B3LYP
DFT_D                     d3_op
BASIS                     6-311++G(d,p)
SYMMETRY                  False
THRESH                    12
SCF_CONVERGENCE           8
MAX_SUB_FILE_NUM          128
MEM_STATIC                400
MEM_TOTAL                 4000
$end
--------------------------------------------------------------

             Standard Nuclear Orientation (Angstroms)
    I     Atom           X                Y                Z
 ----------------------------------------------------------------
    1      C       2.4737466066    -0.6135012166     1.1287905684
    2      C       2.5245350598     0.9349674436     0.8841345633
    3      C       2.0916058688    -1.1405013624    -0.2749937905
    4      C       0.5905266057    -0.8852364639    -0.5131919034
    5      C       0.5865671254     0.6581688773    -0.7121872134
    6      C       2.1020207528     0.9960356665    -0.6333869137
    7      O       2.7105177647    -0.1950875239    -1.1571960101
    8      H       0.2605405527    -1.4014863199    -1.4158518079
    9      H      -0.0352786433    -1.2210128761     0.3161327634
   10      H       0.2005406081     0.9332716073    -1.6951847029
   11      H       0.0021460320     1.1934055708     0.0389155331
   12      H       2.3526842872    -2.1710451536    -0.3963352394
   13      H       2.3447823862     1.9265094025    -1.1026197558
   14      H       1.8307826963     1.4572472206     1.5092952128
   15      H       3.4664688185     1.3920362324     1.1049205360
   16      H       3.4251682026    -0.9904356292     1.4412435136
   17      H       1.7966452840    -0.9089709330     1.9028237014
   18      C      -1.2130176325    -0.5523314609     1.4354289559
   19      C      -1.1622291793     0.9961371992     1.1907729508
   20      C      -1.5951583703    -1.0793316067     0.0316445970
   21      C      -3.0962376334    -0.8240667083    -0.2065535159
   22      C      -3.1001971137     0.7193386330    -0.4055488259
   23      C      -1.5847434863     1.0572054221    -0.3267485262
   24      O      -0.9762464744    -0.1339177683    -0.8505576226
   25      H      -3.4262236864    -1.3403165642    -1.1092134204
   26      H      -3.7220428824    -1.1598431205     0.6227711509
   27      H      -3.4862236310     0.9944413630    -1.3885463154
   28      H      -3.6846182071     1.2545753264     0.3455539206
   29      H      -1.3340799519    -2.1098753980    -0.0896968519
   30      H      -1.3419818529     1.9876791581    -0.7959813683
   31      H      -1.8559815428     1.5184169762     1.8159336003
   32      H      -0.2202954206     1.4532059880     1.4115589235
   33      H      -0.2615960365    -0.9292658736     1.7478819011
   34      H      -1.8901189551    -0.8478011774     2.2094620889
 ----------------------------------------------------------------

   14    -619.5983938566      6.08E-09 Convergence criterion met
 Total energy in the final basis set = -619.59839386

                    Orbital Energies (a.u.)
 --------------------------------------------------------------

 Alpha MOs
 -- Occupied --
-19.137 -19.092 -10.241 -10.238 -10.187 -10.185 -10.181 -10.180
-10.179 -10.178 -10.146 -10.145 -10.130 -10.129  -1.115  -1.018
 -0.834  -0.804  -0.798  -0.761  -0.728  -0.716  -0.649  -0.634
 -0.613  -0.590  -0.579  -0.546  -0.536  -0.529  -0.507  -0.486
 -0.463  -0.450  -0.432  -0.423  -0.412  -0.409  -0.402  -0.400
 -0.379  -0.374  -0.366  -0.352  -0.348  -0.339  -0.329  -0.321
 -0.320  -0.295  -0.276  -0.268  -0.249  -0.184

          Ground-State Mulliken Net Atomic Charges

     Atom                 Charge (a.u.)
  ----------------------------------------
      1 C                    -0.288167
      2 C                    -0.308661
      3 C                    -0.232399
      4 C                    -0.203864
      5 C                    -0.333327
      6 C                    -0.211938
      7 O                    -0.121380
      8 H                     0.153174
      9 H                     0.148295
     10 H                     0.113324
     11 H                     0.151308
     12 H                     0.192444
     13 H                     0.191017
     14 H                     0.056434
     15 H                     0.188936
     16 H                     0.181087
     17 H                     0.077537
     18 C                    -0.415262
     19 C                    -0.411025
     20 C                    -0.009411
     21 C                    -0.543462
     22 C                    -0.595421
     23 C                     0.093471
     24 O                     0.369743
     25 H                     0.168705
     26 H                     0.127446
     27 H                     0.177596
     28 H                     0.120282
     29 H                     0.236342
     30 H                     0.243914
     31 H                     0.194172
     32 H                     0.155094
     33 H                     0.134431
     34 H                     0.199566
  ----------------------------------------
  Sum of atomic charges =     0.000000

                    Cartesian Multipole Moments
 -----------------------------------------------------------------
    Charge (ESU x 10^10)
                 0.0000
    Dipole Moment (Debye)
         X      -4.6833      Y       0.4028      Z       2.5512
       Tot       5.3483
    Quadrupole Moments (Debye-Ang)
        XX     -95.2209     XY       0.8570     YY     -81.9161
        XZ       4.5274     YZ      -1.6813     ZZ     -91.0594

 Total job time:  208.16s(wall), 827.88s(cpu)
        *  Thank you very much for using Q-Chem.  Have a nice day.  *
