 Q-Chem 5.0, Q-Chem, Inc., Pleasanton, CA (2017)
 Q-Chem 5.0.1 for Intel X86 EM64T Linux

User input:
--------------------------------------------------------------
$molecule
0  1
C        +3.60894000        +3.01621000        +3.69195000
C        +4.01250000        +1.55780000        +4.10471000
C        +4.71632000        +3.37107000        +2.67109000
C        +6.01694000        +3.68833000        +3.43455000
C        +6.42960000        +2.26484000        +3.90900000
C        +5.33047000        +1.37834000        +3.25862000
O        +5.01464000        +2.10796000        +2.06224000
H        +6.75858000        +4.10915000        +2.75405000
H        +5.86860000        +4.39621000        +4.25251000
H        +7.40806000        +1.98127000        +3.51761000
H        +6.45983000        +2.15871000        +4.99528000
H        +4.41894000        +4.17076000        +2.02536000
H        +5.62963000        +0.35637000        +3.15386000
H        +4.20317000        +1.48228000        +5.15487000
H        +3.26100000        +0.81777000        +3.92443000
H        +2.63951000        +3.03944000        +3.23965000
H        +3.54176000        +3.69750000        +4.51428000
@C        +0.22270000        +1.04488000        +0.58595000
@C        +0.62626000        -0.41353000        +0.99871000
@C        +1.33008000        +1.39974000        -0.43491000
@C        +2.63070000        +1.71700000        +0.32855000
@C        +3.04336000        +0.29351000        +0.80300000
@C        +1.94423000        -0.59299000        +0.15262000
@O        +1.62840000        +0.13663000        -1.04376000
@H        +3.37234000        +2.13782000        -0.35195000
@H        +2.48236000        +2.42488000        +1.14651000
@H        +4.02182000        +0.00994000        +0.41161000
@H        +3.07359000        +0.18738000        +1.88928000
@H        +1.03270000        +2.19943000        -1.08064000
@H        +2.24339000        -1.61496000        +0.04786000
@H        +0.81693000        -0.48905000        +2.04887000
@H        -0.12524000        -1.15356000        +0.81843000
@H        -0.74673000        +1.06811000        +0.13365000
@H        +0.15552000        +1.72617000        +1.40828000
$end

$rem
JOBTYPE                   SP
METHOD                    B3LYP
DFT_D                     d3_op
BASIS                     6-311++G(d,p)
SYMMETRY                  False
THRESH                    12
SCF_CONVERGENCE           8
MAX_SUB_FILE_NUM          128
MEM_STATIC                400
MEM_TOTAL                 4000
$end
--------------------------------------------------------------

             Standard Nuclear Orientation (Angstroms)
    I     Atom           X                Y                Z
 ----------------------------------------------------------------
    1      C       3.6089400000     3.0162100000     3.6919500000
    2      C       4.0125000000     1.5578000000     4.1047100000
    3      C       4.7163200000     3.3710700000     2.6710900000
    4      C       6.0169400000     3.6883300000     3.4345500000
    5      C       6.4296000000     2.2648400000     3.9090000000
    6      C       5.3304700000     1.3783400000     3.2586200000
    7      O       5.0146400000     2.1079600000     2.0622400000
    8      H       6.7585800000     4.1091500000     2.7540500000
    9      H       5.8686000000     4.3962100000     4.2525100000
   10      H       7.4080600000     1.9812700000     3.5176100000
   11      H       6.4598300000     2.1587100000     4.9952800000
   12      H       4.4189400000     4.1707600000     2.0253600000
   13      H       5.6296300000     0.3563700000     3.1538600000
   14      H       4.2031700000     1.4822800000     5.1548700000
   15      H       3.2610000000     0.8177700000     3.9244300000
   16      H       2.6395100000     3.0394400000     3.2396500000
   17      H       3.5417600000     3.6975000000     4.5142800000
   18      GH      0.2227000000     1.0448800000     0.5859500000
   19      GH      0.6262600000    -0.4135300000     0.9987100000
   20      GH      1.3300800000     1.3997400000    -0.4349100000
   21      GH      2.6307000000     1.7170000000     0.3285500000
   22      GH      3.0433600000     0.2935100000     0.8030000000
   23      GH      1.9442300000    -0.5929900000     0.1526200000
   24      GH      1.6284000000     0.1366300000    -1.0437600000
   25      GH      3.3723400000     2.1378200000    -0.3519500000
   26      GH      2.4823600000     2.4248800000     1.1465100000
   27      GH      4.0218200000     0.0099400000     0.4116100000
   28      GH      3.0735900000     0.1873800000     1.8892800000
   29      GH      1.0327000000     2.1994300000    -1.0806400000
   30      GH      2.2433900000    -1.6149600000     0.0478600000
   31      GH      0.8169300000    -0.4890500000     2.0488700000
   32      GH     -0.1252400000    -1.1535600000     0.8184300000
   33      GH     -0.7467300000     1.0681100000     0.1336500000
   34      GH      0.1555200000     1.7261700000     1.4082800000
 ----------------------------------------------------------------

   12    -309.9600591744      6.26E-09 Convergence criterion met
 Total energy in the final basis set = -309.96005917

                    Orbital Energies (a.u.)
 --------------------------------------------------------------

 Alpha MOs
 -- Occupied --
-19.123 -10.221 -10.218 -10.168 -10.167 -10.165 -10.163  -1.050
 -0.798  -0.749  -0.747  -0.614  -0.578  -0.574  -0.527  -0.478
 -0.465  -0.431  -0.406  -0.395  -0.364  -0.360  -0.351  -0.339
 -0.317  -0.304  -0.264

          Ground-State Mulliken Net Atomic Charges

     Atom                 Charge (a.u.)
  ----------------------------------------
      1 C                    -0.342318
      2 C                    -0.370817
      3 C                     0.137306
      4 C                    -0.590597
      5 C                    -0.519084
      6 C                     0.164250
      7 O                    -0.015714
      8 H                     0.168049
      9 H                     0.125653
     10 H                     0.168454
     11 H                     0.123722
     12 H                     0.216783
     13 H                     0.222043
     14 H                     0.152466
     15 H                     0.137772
     16 H                     0.125479
     17 H                     0.163396
     18 GH                   -0.003983
     19 GH                   -0.004404
     20 GH                   -0.042901
     21 GH                    0.011654
     22 GH                    0.002894
     23 GH                   -0.047637
     24 GH                   -0.000276
     25 GH                    0.006615
     26 GH                    0.002659
     27 GH                    0.007364
     28 GH                   -0.000399
     29 GH                   -0.000791
     30 GH                   -0.000836
     31 GH                    0.001352
     32 GH                   -0.000147
     33 GH                   -0.000156
     34 GH                    0.002147
  ----------------------------------------
  Sum of atomic charges =    -0.000000

                    Cartesian Multipole Moments
 -----------------------------------------------------------------
    Charge (ESU x 10^10)
                 0.0000
    Dipole Moment (Debye)
         X      -0.0148      Y       0.5146      Z       1.7130
       Tot       1.7887
    Quadrupole Moments (Debye-Ang)
        XX     -43.3378     XY       1.6583     YY     -38.6142
        XZ       8.5162     YZ       4.1211     ZZ     -35.5693

 Total job time:  136.33s(wall), 542.14s(cpu)
        *  Thank you very much for using Q-Chem.  Have a nice day.  *
