 Q-Chem 5.0, Q-Chem, Inc., Pleasanton, CA (2017)
 Q-Chem 5.0.1 for Intel X86 EM64T Linux

User input:
--------------------------------------------------------------
$molecule
0  1
--
0  1
C        +0.20238000        +1.04766000        +0.59128000
C        +0.63819000        -0.38392000        +1.03507000
C        +1.32502000        +1.40342000        -0.40773000
C        +2.63024000        +1.71632000        +0.35656000
C        +3.06844000        +0.28546000        +0.80025000
C        +1.92879000        -0.57154000        +0.20725000
O        +1.61715000        +0.12844000        -1.01410000
H        +3.36771000        +2.16806000        -0.30914000
H        +2.46905000        +2.39751000        +1.19495000
H        +4.02649000        +0.00980000        +0.35668000
H        +3.15140000        +0.17666000        +1.88393000
H        +1.05332000        +2.11810000        -1.18255000
H        +2.19020000        -1.60239000        -0.02473000
H        +0.81538000        -0.46660000        +2.10960000
H        -0.10758000        -1.13032000        +0.75591000
H        -0.76622000        +1.02844000        +0.08894000
H        +0.14243000        +1.75630000        +1.41989000
--
0  1
C        +0.23904000        +2.15352000        +4.12196000
C        +0.67485000        +0.72194000        +4.56575000
C        +1.36168000        +2.50928000        +3.12295000
C        +2.66690000        +2.82218000        +3.88724000
C        +3.10510000        +1.39132000        +4.33093000
C        +1.96545000        +0.53432000        +3.73793000
O        +1.65381000        +1.23430000        +2.51658000
H        +3.40437000        +3.27392000        +3.22154000
H        +2.50571000        +3.50337000        +4.72563000
H        +4.06315000        +1.11566000        +3.88736000
H        +3.18806000        +1.28252000        +5.41461000
H        +1.08998000        +3.22396000        +2.34813000
H        +2.22686000        -0.49653000        +3.50595000
H        +0.85204000        +0.63926000        +5.64028000
H        -0.07092000        -0.02446000        +4.28659000
H        -0.72956000        +2.13430000        +3.61962000
H        +0.17909000        +2.86216000        +4.95057000
$end

$rem
JOBTYPE                   SP
METHOD                    B3LYP
DFT_D                     d3_op
BASIS                     6-311++G(d,p)
SYMMETRY                  False
THRESH                    12
SCF_CONVERGENCE           8
MAX_SUB_FILE_NUM          128
MEM_STATIC                400
MEM_TOTAL                 4000
$end
--------------------------------------------------------------

             Standard Nuclear Orientation (Angstroms)
    I     Atom           X                Y                Z
 ----------------------------------------------------------------
    1      C      -1.3860694549    -1.2641599098     0.7815151312
    2      C      -1.3862564914    -1.2659709661    -0.7793493414
    3      C      -2.2218063189     0.0004039918     1.0770295306
    4      C      -1.3859781037     1.2650105459     0.7807082180
    5      C      -1.3860215252     1.2656933882    -0.7801376833
    6      C      -2.2194224964     0.0000897432    -1.0777790069
    7      O      -3.1786802710    -0.0002812126    -0.0013907420
    8      H      -1.8788043564     2.1542952582     1.1774228555
    9      H      -0.3839277877     1.2126642786     1.2120489846
   10      H      -1.8821614303     2.1535456288    -1.1753163473
   11      H      -0.3836630425     1.2158210033    -1.2112668534
   12      H      -2.7501875992     0.0007639244     2.0287372157
   13      H      -2.7463682109    -0.0002626754    -2.0302125851
   14      H      -0.3838824612    -1.2176331093    -1.2103444162
   15      H      -1.8832027906    -2.1534013040    -1.1752381257
   16      H      -1.8807921847    -2.1522780947     1.1782472249
   17      H      -0.3841373700    -1.2111568179     1.2124234203
   18      C       2.3139266838    -1.2644009895     0.7812448895
   19      C       2.3137396473    -1.2662120457    -0.7796195831
   20      C       1.4781898198     0.0001629121     1.0767592889
   21      C       2.3140180350     1.2647694663     0.7804379763
   22      C       2.3139746135     1.2654523085    -0.7804079250
   23      C       1.4805736423    -0.0001513364    -1.0780492487
   24      O       0.5213158677    -0.0005222922    -0.0016609838
   25      H       1.8211917823     2.1540541786     1.1771526138
   26      H       3.3160683510     1.2124231990     1.2117787428
   27      H       1.8178347085     2.1533045491    -1.1755865891
   28      H       3.3163330962     1.2155799236    -1.2115370951
   29      H       0.9498085395     0.0005228447     2.0284669740
   30      H       0.9536279278    -0.0005037551    -2.0304828268
   31      H       3.3161136775    -1.2178741889    -1.2106146579
   32      H       1.8167933481    -2.1536423837    -1.1755083674
   33      H       1.8192039540    -2.1525191744     1.1779769832
   34      H       3.3158587688    -1.2113978976     1.2121531785
 ----------------------------------------------------------------

   13    -619.8754510636      3.14E-09 Convergence criterion met
 Total energy in the final basis set = -619.87545106

                    Orbital Energies (a.u.)
 --------------------------------------------------------------

 Alpha MOs
 -- Occupied --
-19.122 -19.100 -10.232 -10.232 -10.201 -10.201 -10.182 -10.182
-10.182 -10.182 -10.146 -10.146 -10.146 -10.146  -1.070  -1.028
 -0.817  -0.776  -0.766  -0.765  -0.731  -0.727  -0.626  -0.598
 -0.593  -0.588  -0.563  -0.547  -0.540  -0.508  -0.507  -0.484
 -0.453  -0.442  -0.436  -0.421  -0.406  -0.399  -0.393  -0.386
 -0.371  -0.371  -0.357  -0.351  -0.345  -0.343  -0.341  -0.323
 -0.319  -0.312  -0.296  -0.287  -0.272  -0.241

          Ground-State Mulliken Net Atomic Charges

     Atom                 Charge (a.u.)
  ----------------------------------------
      1 C                    -0.174862
      2 C                    -0.178171
      3 C                    -0.300428
      4 C                    -0.175097
      5 C                    -0.177205
      6 C                    -0.299026
      7 O                    -0.162112
      8 H                     0.199187
      9 H                     0.073245
     10 H                     0.199697
     11 H                     0.073244
     12 H                     0.214047
     13 H                     0.214029
     14 H                     0.073411
     15 H                     0.199566
     16 H                     0.199348
     17 H                     0.072875
     18 C                    -0.536504
     19 C                    -0.540717
     20 C                     0.264997
     21 C                    -0.537813
     22 C                    -0.539922
     23 C                     0.269920
     24 O                    -0.116204
     25 H                     0.162429
     26 H                     0.143917
     27 H                     0.162186
     28 H                     0.144207
     29 H                     0.229828
     30 H                     0.229392
     31 H                     0.144108
     32 H                     0.162154
     33 H                     0.162267
     34 H                     0.144003
  ----------------------------------------
  Sum of atomic charges =     0.000000

                    Cartesian Multipole Moments
 -----------------------------------------------------------------
    Charge (ESU x 10^10)
                 0.0000
    Dipole Moment (Debye)
         X       4.7363      Y       0.0032      Z       0.0022
       Tot       4.7363
    Quadrupole Moments (Debye-Ang)
        XX     -95.9859     XY       0.0033     YY     -88.3169
        XZ      -0.0075     YZ       0.0058     ZZ     -83.3584

 Total job time:  163.93s(wall), 649.72s(cpu)
        *  Thank you very much for using Q-Chem.  Have a nice day.  *
