 Q-Chem 5.0, Q-Chem, Inc., Pleasanton, CA (2017)
 Q-Chem 5.0.1 for Intel X86 EM64T Linux

User input:
--------------------------------------------------------------
$molecule
0  1
--
0  1
C        +0.22270000        +1.04488000        +0.58595000
C        +0.62626000        -0.41353000        +0.99871000
C        +1.33008000        +1.39974000        -0.43491000
C        +2.63070000        +1.71700000        +0.32855000
C        +3.04336000        +0.29351000        +0.80300000
C        +1.94423000        -0.59299000        +0.15262000
O        +1.62840000        +0.13663000        -1.04376000
H        +3.37234000        +2.13782000        -0.35195000
H        +2.48236000        +2.42488000        +1.14651000
H        +4.02182000        +0.00994000        +0.41161000
H        +3.07359000        +0.18738000        +1.88928000
H        +1.03270000        +2.19943000        -1.08064000
H        +2.24339000        -1.61496000        +0.04786000
H        +0.81693000        -0.48905000        +2.04887000
H        -0.12524000        -1.15356000        +0.81843000
H        -0.74673000        +1.06811000        +0.13365000
H        +0.15552000        +1.72617000        +1.40828000
--
0  1
C        +5.64068000        +4.19901000        +5.55555000
C        +6.04424000        +2.74060000        +5.96831000
C        +6.74806000        +4.55387000        +4.53469000
C        +8.04868000        +4.87113000        +5.29815000
C        +8.46134000        +3.44764000        +5.77260000
C        +7.36221000        +2.56114000        +5.12222000
O        +7.04638000        +3.29076000        +3.92584000
H        +8.79032000        +5.29195000        +4.61765000
H        +7.90034000        +5.57901000        +6.11611000
H        +9.43980000        +3.16407000        +5.38121000
H        +8.49157000        +3.34151000        +6.85888000
H        +6.45068000        +5.35356000        +3.88896000
H        +7.66137000        +1.53917000        +5.01746000
H        +6.23491000        +2.66508000        +7.01847000
H        +5.29274000        +2.00057000        +5.78803000
H        +4.67125000        +4.22224000        +5.10325000
H        +5.57350000        +4.88030000        +6.37788000
$end

$rem
JOBTYPE                   SP
METHOD                    B3LYP
DFT_D                     d3_op
BASIS                     6-311++G(d,p)
SYMMETRY                  False
THRESH                    12
SCF_CONVERGENCE           8
MAX_SUB_FILE_NUM          128
MEM_STATIC                400
MEM_TOTAL                 4000
$end
--------------------------------------------------------------

             Standard Nuclear Orientation (Angstroms)
    I     Atom           X                Y                Z
 ----------------------------------------------------------------
    1      C       4.5524130718    -0.4546500826     1.3044879580
    2      C       4.5988422944     1.0604940730     0.9015317143
    3      C       4.2694050408    -1.1328595931    -0.0572423890
    4      C       2.7838259590    -0.9336498892    -0.4157221641
    5      C       2.7727204823     0.5801447240    -0.7763014139
    6      C       4.2752929976     0.9543405579    -0.6376779479
    7      O       4.9320824835    -0.2726939929    -0.9932518784
    8      H       2.5200818265    -1.5477937590    -1.2779668810
    9      H       2.1097689927    -1.1932927173     0.4030514430
   10      H       2.4479783746     0.7433673673    -1.8053218125
   11      H       2.1336991035     1.1792279145    -0.1244328101
   12      H       4.5512397475    -2.1650667984    -0.0523765202
   13      H       4.5359509448     1.8353366223    -1.1861279577
   14      H       3.8591018330     1.6313736287     1.4228520838
   15      H       5.5183610088     1.5566886770     1.1321261161
   16      H       5.4862979376    -0.7779694766     1.7146502120
   17      H       3.8302488391    -0.6810058455     2.0608858262
   18      C      -3.4462679487    -0.4117698015     1.4431628018
   19      C      -3.3998387260     1.1033743541     1.0402065582
   20      C      -3.7292759796    -1.0899793119     0.0814324548
   21      C      -5.2148550614    -0.8907696081    -0.2770473203
   22      C      -5.2259605381     0.6230250052    -0.6376265700
   23      C      -3.7233880228     0.9972208390    -0.4990031041
   24      O      -3.0665985369    -0.2298137118    -0.8545770346
   25      H      -5.4785991940    -1.5049134779    -1.1392920371
   26      H      -5.8889120277    -1.1504124362     0.5417262868
   27      H      -5.5507026458     0.7862476484    -1.6666469687
   28      H      -5.8649819169     1.2221081956     0.0142420338
   29      H      -3.4474412729    -2.1221865173     0.0862983237
   30      H      -3.4627300756     1.8782169034    -1.0474531139
   31      H      -4.1395791874     1.6742539098     1.5615269276
   32      H      -2.4803200117     1.5995689582     1.2708009599
   33      H      -2.5123830828    -0.7350891955     1.8533250559
   34      H      -4.1684321814    -0.6381255644     2.1995606700
 ----------------------------------------------------------------

   12    -619.9190753660      9.37E-09 Convergence criterion met
 Total energy in the final basis set = -619.91907537

                    Orbital Energies (a.u.)
 --------------------------------------------------------------

 Alpha MOs
 -- Occupied --
-19.125 -19.120 -10.223 -10.220 -10.218 -10.215 -10.169 -10.169
-10.167 -10.165 -10.164 -10.163 -10.162 -10.161  -1.052  -1.047
 -0.799  -0.795  -0.751  -0.749  -0.746  -0.744  -0.616  -0.611
 -0.580  -0.575  -0.575  -0.570  -0.528  -0.524  -0.480  -0.475
 -0.467  -0.462  -0.432  -0.428  -0.408  -0.403  -0.397  -0.392
 -0.366  -0.361  -0.361  -0.357  -0.353  -0.348  -0.341  -0.336
 -0.319  -0.314  -0.306  -0.301  -0.266  -0.261

          Ground-State Mulliken Net Atomic Charges

     Atom                 Charge (a.u.)
  ----------------------------------------
      1 C                    -0.433931
      2 C                    -0.418716
      3 C                     0.129433
      4 C                    -0.409854
      5 C                    -0.383715
      6 C                     0.131117
      7 O                    -0.157682
      8 H                     0.165242
      9 H                     0.096915
     10 H                     0.158481
     11 H                     0.094520
     12 H                     0.227218
     13 H                     0.230135
     14 H                     0.117633
     15 H                     0.166336
     16 H                     0.161243
     17 H                     0.124652
     18 C                    -0.410932
     19 C                    -0.432727
     20 C                     0.161385
     21 C                    -0.493795
     22 C                    -0.427312
     23 C                     0.172389
     24 O                    -0.140520
     25 H                     0.165093
     26 H                     0.123341
     27 H                     0.161739
     28 H                     0.124840
     29 H                     0.218949
     30 H                     0.223741
     31 H                     0.120188
     32 H                     0.156654
     33 H                     0.148394
     34 H                     0.129546
  ----------------------------------------
  Sum of atomic charges =     0.000000

                    Cartesian Multipole Moments
 -----------------------------------------------------------------
    Charge (ESU x 10^10)
                 0.0000
    Dipole Moment (Debye)
         X      -2.5995      Y       0.6634      Z       2.4535
       Tot       3.6356
    Quadrupole Moments (Debye-Ang)
        XX     -91.7609     XY       1.2188     YY     -81.5447
        XZ       3.8959     YZ      -2.6972     ZZ     -89.8688

 Total job time:  77.99s(wall), 310.31s(cpu)
        *  Thank you very much for using Q-Chem.  Have a nice day.  *
