 Q-Chem 5.0, Q-Chem, Inc., Pleasanton, CA (2017)
 Q-Chem 5.0.1 for Intel X86 EM64T Linux

User input:
--------------------------------------------------------------
$molecule
0  1
C        +0.23904000        +2.15352000        +4.12196000
C        +0.67485000        +0.72194000        +4.56575000
C        +1.36168000        +2.50928000        +3.12295000
C        +2.66690000        +2.82218000        +3.88724000
C        +3.10510000        +1.39132000        +4.33093000
C        +1.96545000        +0.53432000        +3.73793000
O        +1.65381000        +1.23430000        +2.51658000
H        +3.40437000        +3.27392000        +3.22154000
H        +2.50571000        +3.50337000        +4.72563000
H        +4.06315000        +1.11566000        +3.88736000
H        +3.18806000        +1.28252000        +5.41461000
H        +1.08998000        +3.22396000        +2.34813000
H        +2.22686000        -0.49653000        +3.50595000
H        +0.85204000        +0.63926000        +5.64028000
H        -0.07092000        -0.02446000        +4.28659000
H        -0.72956000        +2.13430000        +3.61962000
H        +0.17909000        +2.86216000        +4.95057000
@C        +0.20238000        +1.04766000        +0.59128000
@C        +0.63819000        -0.38392000        +1.03507000
@C        +1.32502000        +1.40342000        -0.40773000
@C        +2.63024000        +1.71632000        +0.35656000
@C        +3.06844000        +0.28546000        +0.80025000
@C        +1.92879000        -0.57154000        +0.20725000
@O        +1.61715000        +0.12844000        -1.01410000
@H        +3.36771000        +2.16806000        -0.30914000
@H        +2.46905000        +2.39751000        +1.19495000
@H        +4.02649000        +0.00980000        +0.35668000
@H        +3.15140000        +0.17666000        +1.88393000
@H        +1.05332000        +2.11810000        -1.18255000
@H        +2.19020000        -1.60239000        -0.02473000
@H        +0.81538000        -0.46660000        +2.10960000
@H        -0.10758000        -1.13032000        +0.75591000
@H        -0.76622000        +1.02844000        +0.08894000
@H        +0.14243000        +1.75630000        +1.41989000
$end

$rem
JOBTYPE                   SP
METHOD                    B3LYP
DFT_D                     d3_op
BASIS                     6-311++G(d,p)
SYMMETRY                  False
THRESH                    12
SCF_CONVERGENCE           8
MAX_SUB_FILE_NUM          128
MEM_STATIC                400
MEM_TOTAL                 4000
$end
--------------------------------------------------------------

             Standard Nuclear Orientation (Angstroms)
    I     Atom           X                Y                Z
 ----------------------------------------------------------------
    1      C       0.2390400000     2.1535200000     4.1219600000
    2      C       0.6748500000     0.7219400000     4.5657500000
    3      C       1.3616800000     2.5092800000     3.1229500000
    4      C       2.6669000000     2.8221800000     3.8872400000
    5      C       3.1051000000     1.3913200000     4.3309300000
    6      C       1.9654500000     0.5343200000     3.7379300000
    7      O       1.6538100000     1.2343000000     2.5165800000
    8      H       3.4043700000     3.2739200000     3.2215400000
    9      H       2.5057100000     3.5033700000     4.7256300000
   10      H       4.0631500000     1.1156600000     3.8873600000
   11      H       3.1880600000     1.2825200000     5.4146100000
   12      H       1.0899800000     3.2239600000     2.3481300000
   13      H       2.2268600000    -0.4965300000     3.5059500000
   14      H       0.8520400000     0.6392600000     5.6402800000
   15      H      -0.0709200000    -0.0244600000     4.2865900000
   16      H      -0.7295600000     2.1343000000     3.6196200000
   17      H       0.1790900000     2.8621600000     4.9505700000
   18      GH      0.2023800000     1.0476600000     0.5912800000
   19      GH      0.6381900000    -0.3839200000     1.0350700000
   20      GH      1.3250200000     1.4034200000    -0.4077300000
   21      GH      2.6302400000     1.7163200000     0.3565600000
   22      GH      3.0684400000     0.2854600000     0.8002500000
   23      GH      1.9287900000    -0.5715400000     0.2072500000
   24      GH      1.6171500000     0.1284400000    -1.0141000000
   25      GH      3.3677100000     2.1680600000    -0.3091400000
   26      GH      2.4690500000     2.3975100000     1.1949500000
   27      GH      4.0264900000     0.0098000000     0.3566800000
   28      GH      3.1514000000     0.1766600000     1.8839300000
   29      GH      1.0533200000     2.1181000000    -1.1825500000
   30      GH      2.1902000000    -1.6023900000    -0.0247300000
   31      GH      0.8153800000    -0.4666000000     2.1096000000
   32      GH     -0.1075800000    -1.1303200000     0.7559100000
   33      GH     -0.7662200000     1.0284400000     0.0889400000
   34      GH      0.1424300000     1.7563000000     1.4198900000
 ----------------------------------------------------------------

   11    -309.9694119299      9.85E-09 Convergence criterion met
 Total energy in the final basis set = -309.96941193

                    Orbital Energies (a.u.)
 --------------------------------------------------------------

 Alpha MOs
 -- Occupied --
-19.118 -10.219 -10.219 -10.170 -10.170 -10.169 -10.169  -1.046
 -0.798  -0.751  -0.745  -0.612  -0.572  -0.571  -0.524  -0.478
 -0.468  -0.418  -0.407  -0.388  -0.366  -0.361  -0.348  -0.342
 -0.323  -0.306  -0.263

          Ground-State Mulliken Net Atomic Charges

     Atom                 Charge (a.u.)
  ----------------------------------------
      1 C                    -0.551211
      2 C                    -0.558474
      3 C                     0.410809
      4 C                    -0.554405
      5 C                    -0.555545
      6 C                     0.413847
      7 O                    -0.154453
      8 H                     0.152648
      9 H                     0.137132
     10 H                     0.152285
     11 H                     0.137160
     12 H                     0.202280
     13 H                     0.201436
     14 H                     0.137086
     15 H                     0.152586
     16 H                     0.151922
     17 H                     0.136931
     18 GH                    0.062950
     19 GH                    0.064471
     20 GH                   -0.099617
     21 GH                    0.062129
     22 GH                    0.064974
     23 GH                   -0.101025
     24 GH                    0.006548
     25 GH                    0.003329
     26 GH                   -0.021608
     27 GH                    0.003614
     28 GH                   -0.020035
     29 GH                   -0.001216
     30 GH                   -0.001363
     31 GH                   -0.019970
     32 GH                    0.003567
     33 GH                    0.003408
     34 GH                   -0.022189
  ----------------------------------------
  Sum of atomic charges =     0.000000

                    Cartesian Multipole Moments
 -----------------------------------------------------------------
    Charge (ESU x 10^10)
                 0.0000
    Dipole Moment (Debye)
         X       0.0185      Y       0.5174      Z       1.6462
       Tot       1.7256
    Quadrupole Moments (Debye-Ang)
        XX     -43.1344     XY       0.3197     YY     -40.1708
        XZ       2.9545     YZ       2.9739     ZZ     -34.2255

 Total job time:  137.79s(wall), 547.83s(cpu)
        *  Thank you very much for using Q-Chem.  Have a nice day.  *
