 Q-Chem 5.0, Q-Chem, Inc., Pleasanton, CA (2017)
 Q-Chem 5.0.1 for Intel X86 EM64T Linux

User input:
--------------------------------------------------------------
$molecule
0  1
--
0  1
C        +0.22270000        +1.04488000        +0.58595000
C        +0.62626000        -0.41353000        +0.99871000
C        +1.33008000        +1.39974000        -0.43491000
C        +2.63070000        +1.71700000        +0.32855000
C        +3.04336000        +0.29351000        +0.80300000
C        +1.94423000        -0.59299000        +0.15262000
O        +1.62840000        +0.13663000        -1.04376000
H        +3.37234000        +2.13782000        -0.35195000
H        +2.48236000        +2.42488000        +1.14651000
H        +4.02182000        +0.00994000        +0.41161000
H        +3.07359000        +0.18738000        +1.88928000
H        +1.03270000        +2.19943000        -1.08064000
H        +2.24339000        -1.61496000        +0.04786000
H        +0.81693000        -0.48905000        +2.04887000
H        -0.12524000        -1.15356000        +0.81843000
H        -0.74673000        +1.06811000        +0.13365000
H        +0.15552000        +1.72617000        +1.40828000
--
0  1
C        +3.60894000        +3.01621000        +3.69195000
C        +4.01250000        +1.55780000        +4.10471000
C        +4.71632000        +3.37107000        +2.67109000
C        +6.01694000        +3.68833000        +3.43455000
C        +6.42960000        +2.26484000        +3.90900000
C        +5.33047000        +1.37834000        +3.25862000
O        +5.01464000        +2.10796000        +2.06224000
H        +6.75858000        +4.10915000        +2.75405000
H        +5.86860000        +4.39621000        +4.25251000
H        +7.40806000        +1.98127000        +3.51761000
H        +6.45983000        +2.15871000        +4.99528000
H        +4.41894000        +4.17076000        +2.02536000
H        +5.62963000        +0.35637000        +3.15386000
H        +4.20317000        +1.48228000        +5.15487000
H        +3.26100000        +0.81777000        +3.92443000
H        +2.63951000        +3.03944000        +3.23965000
H        +3.54176000        +3.69750000        +4.51428000
$end

$rem
JOBTYPE                   SP
METHOD                    B3LYP
DFT_D                     d3_op
BASIS                     6-311++G(d,p)
SYMMETRY                  False
THRESH                    12
SCF_CONVERGENCE           8
MAX_SUB_FILE_NUM          128
MEM_STATIC                400
MEM_TOTAL                 4000
$end
--------------------------------------------------------------

             Standard Nuclear Orientation (Angstroms)
    I     Atom           X                Y                Z
 ----------------------------------------------------------------
    1      C       3.0836600272    -0.5402988644     1.2196406655
    2      C       3.1319145609     0.9943835804     0.8993087863
    3      C       2.7582389650    -1.1405008095    -0.1689665436
    4      C       1.2652368878    -0.9115885826    -0.4750408047
    5      C       1.2571143978     0.6198097192    -0.7515695092
    6      C       2.7659794566     0.9754114535    -0.6339396144
    7      O       3.4025722650    -0.2346831751    -1.0742118302
    8      H       0.9731176874    -1.4754692833    -1.3621172052
    9      H       0.6114080531    -1.2112733109     0.3464543749
   10      H       0.9060485154     0.8417045186    -1.7607758771
   11      H       0.6410145689     1.1864781514    -0.0505063472
   12      H       3.0314125716    -2.1733315476    -0.2284899880
   13      H       3.0191099480     1.8834576054    -1.1401719568
   14      H       2.4113686302     1.5407785657     1.4712881800
   15      H       4.0614725826     1.4707584326     1.1314432598
   16      H       4.0255431216    -0.8921644328     1.5856410836
   17      H       2.3803363752    -0.8029797186     1.9820253812
   18      C      -1.9109427856    -0.4837726629     1.4449112528
   19      C      -1.8626882519     1.0509097819     1.1245793736
   20      C      -2.2363638478    -1.0839746080     0.0563040437
   21      C      -3.7293659250    -0.8550623811    -0.2497702174
   22      C      -3.7374884150     0.6763359207    -0.5262989219
   23      C      -2.2286233562     1.0319376550    -0.4086690271
   24      O      -1.5920305478    -0.1781569736    -0.8489412429
   25      H      -4.0214851254    -1.4189430818    -1.1368466179
   26      H      -4.3831947596    -1.1547471094     0.5717249622
   27      H      -4.0885542973     0.8982307200    -1.5355052898
   28      H      -4.3535882439     1.2430043529     0.1747642401
   29      H      -1.9631902412    -2.1168053461    -0.0032194007
   30      H      -1.9754928648     1.9399838068    -0.9149013696
   31      H      -2.5832341826     1.5973047672     1.6965587673
   32      H      -0.9331302302     1.5272846341     1.3567138471
   33      H      -0.9690596912    -0.8356382314     1.8109116709
   34      H      -2.6142664376    -0.7464535171     2.2072959685
 ----------------------------------------------------------------

   13    -619.9202216029      6.37E-09 Convergence criterion met
 Total energy in the final basis set = -619.92022160

                    Orbital Energies (a.u.)
 --------------------------------------------------------------

 Alpha MOs
 -- Occupied --
-19.126 -19.114 -10.226 -10.223 -10.211 -10.208 -10.172 -10.171
-10.170 -10.169 -10.158 -10.157 -10.154 -10.154  -1.055  -1.041
 -0.803  -0.788  -0.754  -0.752  -0.738  -0.738  -0.620  -0.605
 -0.583  -0.579  -0.569  -0.564  -0.532  -0.517  -0.485  -0.473
 -0.465  -0.454  -0.436  -0.421  -0.411  -0.401  -0.395  -0.386
 -0.371  -0.365  -0.356  -0.353  -0.350  -0.344  -0.341  -0.329
 -0.323  -0.309  -0.307  -0.294  -0.270  -0.252

          Ground-State Mulliken Net Atomic Charges

     Atom                 Charge (a.u.)
  ----------------------------------------
      1 C                    -0.451839
      2 C                    -0.433066
      3 C                    -0.000952
      4 C                    -0.288723
      5 C                    -0.235190
      6 C                    -0.050049
      7 O                    -0.128902
      8 H                     0.203428
      9 H                     0.052430
     10 H                     0.199775
     11 H                     0.038894
     12 H                     0.226014
     13 H                     0.226500
     14 H                     0.097480
     15 H                     0.178492
     16 H                     0.171474
     17 H                     0.106479
     18 C                    -0.332338
     19 C                    -0.376372
     20 C                     0.111931
     21 C                    -0.592048
     22 C                    -0.522607
     23 C                     0.152956
     24 O                     0.014385
     25 H                     0.169528
     26 H                     0.126773
     27 H                     0.170034
     28 H                     0.124900
     29 H                     0.221828
     30 H                     0.227042
     31 H                     0.153093
     32 H                     0.143908
     33 H                     0.130095
     34 H                     0.164647
  ----------------------------------------
  Sum of atomic charges =     0.000000

                    Cartesian Multipole Moments
 -----------------------------------------------------------------
    Charge (ESU x 10^10)
                 0.0000
    Dipole Moment (Debye)
         X      -2.9524      Y       0.5080      Z       2.3527
       Tot       3.8092
    Quadrupole Moments (Debye-Ang)
        XX     -92.2618     XY       0.9697     YY     -81.6740
        XZ       3.8322     YZ      -2.1940     ZZ     -90.3948

 Total job time:  132.61s(wall), 527.71s(cpu)
        *  Thank you very much for using Q-Chem.  Have a nice day.  *
