 Q-Chem 5.0, Q-Chem, Inc., Pleasanton, CA (2017)
 Q-Chem 5.0.1 for Intel X86 EM64T Linux

User input:
--------------------------------------------------------------
$molecule
0  1
C        +2.72852000        +2.50366000        +2.88439000
C        +3.13208000        +1.04525000        +3.29715000
C        +3.83590000        +2.85852000        +1.86353000
C        +5.13652000        +3.17578000        +2.62699000
C        +5.54918000        +1.75229000        +3.10144000
C        +4.45005000        +0.86579000        +2.45106000
O        +4.13422000        +1.59541000        +1.25468000
H        +5.87816000        +3.59660000        +1.94649000
H        +4.98818000        +3.88366000        +3.44495000
H        +6.52764000        +1.46872000        +2.71005000
H        +5.57941000        +1.64616000        +4.18772000
H        +3.53852000        +3.65821000        +1.21780000
H        +4.74921000        -0.15618000        +2.34630000
H        +3.32275000        +0.96973000        +4.34731000
H        +2.38058000        +0.30522000        +3.11687000
H        +1.75909000        +2.52689000        +2.43209000
H        +2.66134000        +3.18495000        +3.70672000
@C        +0.22270000        +1.04488000        +0.58595000
@C        +0.62626000        -0.41353000        +0.99871000
@C        +1.33008000        +1.39974000        -0.43491000
@C        +2.63070000        +1.71700000        +0.32855000
@C        +3.04336000        +0.29351000        +0.80300000
@C        +1.94423000        -0.59299000        +0.15262000
@O        +1.62840000        +0.13663000        -1.04376000
@H        +3.37234000        +2.13782000        -0.35195000
@H        +2.48236000        +2.42488000        +1.14651000
@H        +4.02182000        +0.00994000        +0.41161000
@H        +3.07359000        +0.18738000        +1.88928000
@H        +1.03270000        +2.19943000        -1.08064000
@H        +2.24339000        -1.61496000        +0.04786000
@H        +0.81693000        -0.48905000        +2.04887000
@H        -0.12524000        -1.15356000        +0.81843000
@H        -0.74673000        +1.06811000        +0.13365000
@H        +0.15552000        +1.72617000        +1.40828000
$end

$rem
JOBTYPE                   SP
METHOD                    B3LYP
DFT_D                     d3_op
BASIS                     6-311++G(d,p)
SYMMETRY                  False
THRESH                    12
SCF_CONVERGENCE           8
MAX_SUB_FILE_NUM          128
MEM_STATIC                400
MEM_TOTAL                 4000
$end
--------------------------------------------------------------

             Standard Nuclear Orientation (Angstroms)
    I     Atom           X                Y                Z
 ----------------------------------------------------------------
    1      C       2.7285200000     2.5036600000     2.8843900000
    2      C       3.1320800000     1.0452500000     3.2971500000
    3      C       3.8359000000     2.8585200000     1.8635300000
    4      C       5.1365200000     3.1757800000     2.6269900000
    5      C       5.5491800000     1.7522900000     3.1014400000
    6      C       4.4500500000     0.8657900000     2.4510600000
    7      O       4.1342200000     1.5954100000     1.2546800000
    8      H       5.8781600000     3.5966000000     1.9464900000
    9      H       4.9881800000     3.8836600000     3.4449500000
   10      H       6.5276400000     1.4687200000     2.7100500000
   11      H       5.5794100000     1.6461600000     4.1877200000
   12      H       3.5385200000     3.6582100000     1.2178000000
   13      H       4.7492100000    -0.1561800000     2.3463000000
   14      H       3.3227500000     0.9697300000     4.3473100000
   15      H       2.3805800000     0.3052200000     3.1168700000
   16      H       1.7590900000     2.5268900000     2.4320900000
   17      H       2.6613400000     3.1849500000     3.7067200000
   18      GH      0.2227000000     1.0448800000     0.5859500000
   19      GH      0.6262600000    -0.4135300000     0.9987100000
   20      GH      1.3300800000     1.3997400000    -0.4349100000
   21      GH      2.6307000000     1.7170000000     0.3285500000
   22      GH      3.0433600000     0.2935100000     0.8030000000
   23      GH      1.9442300000    -0.5929900000     0.1526200000
   24      GH      1.6284000000     0.1366300000    -1.0437600000
   25      GH      3.3723400000     2.1378200000    -0.3519500000
   26      GH      2.4823600000     2.4248800000     1.1465100000
   27      GH      4.0218200000     0.0099400000     0.4116100000
   28      GH      3.0735900000     0.1873800000     1.8892800000
   29      GH      1.0327000000     2.1994300000    -1.0806400000
   30      GH      2.2433900000    -1.6149600000     0.0478600000
   31      GH      0.8169300000    -0.4890500000     2.0488700000
   32      GH     -0.1252400000    -1.1535600000     0.8184300000
   33      GH     -0.7467300000     1.0681100000     0.1336500000
   34      GH      0.1555200000     1.7261700000     1.4082800000
 ----------------------------------------------------------------

   12    -309.9615970597      6.50E-09 Convergence criterion met
 Total energy in the final basis set = -309.96159706

                    Orbital Energies (a.u.)
 --------------------------------------------------------------

 Alpha MOs
 -- Occupied --
-19.124 -10.221 -10.218 -10.168 -10.167 -10.165 -10.163  -1.050
 -0.797  -0.749  -0.747  -0.614  -0.578  -0.573  -0.526  -0.478
 -0.465  -0.430  -0.406  -0.395  -0.364  -0.359  -0.351  -0.339
 -0.317  -0.304  -0.264

          Ground-State Mulliken Net Atomic Charges

     Atom                 Charge (a.u.)
  ----------------------------------------
      1 C                    -0.424040
      2 C                    -0.389939
      3 C                     0.340927
      4 C                    -0.577737
      5 C                    -0.587495
      6 C                     0.338950
      7 O                    -0.186988
      8 H                     0.162166
      9 H                     0.124716
     10 H                     0.169274
     11 H                     0.119936
     12 H                     0.212891
     13 H                     0.218850
     14 H                     0.188446
     15 H                     0.129202
     16 H                     0.112102
     17 H                     0.193389
     18 GH                   -0.002057
     19 GH                    0.003029
     20 GH                   -0.082382
     21 GH                   -0.014819
     22 GH                    0.023693
     23 GH                   -0.126969
     24 GH                   -0.002940
     25 GH                   -0.006710
     26 GH                    0.029826
     27 GH                   -0.004033
     28 GH                    0.041773
     29 GH                   -0.001001
     30 GH                   -0.002673
     31 GH                   -0.001340
     32 GH                    0.000016
     33 GH                    0.000167
     34 GH                    0.001767
  ----------------------------------------
  Sum of atomic charges =     0.000000

                    Cartesian Multipole Moments
 -----------------------------------------------------------------
    Charge (ESU x 10^10)
                 0.0000
    Dipole Moment (Debye)
         X      -0.0294      Y       0.4980      Z       1.6714
       Tot       1.7443
    Quadrupole Moments (Debye-Ang)
        XX     -43.4654     XY       1.1321     YY     -39.2250
        XZ       6.8582     YZ       2.7611     ZZ     -38.4415

 Total job time:  182.20s(wall), 724.03s(cpu)
        *  Thank you very much for using Q-Chem.  Have a nice day.  *
