 Q-Chem 5.0, Q-Chem, Inc., Pleasanton, CA (2017)
 Q-Chem 5.0.1 for Intel X86 EM64T Linux

User input:
--------------------------------------------------------------
$molecule
0  1
C        +0.22270000        +1.04488000        +0.58595000
C        +0.62626000        -0.41353000        +0.99871000
C        +1.33008000        +1.39974000        -0.43491000
C        +2.63070000        +1.71700000        +0.32855000
C        +3.04336000        +0.29351000        +0.80300000
C        +1.94423000        -0.59299000        +0.15262000
O        +1.62840000        +0.13663000        -1.04376000
H        +3.37234000        +2.13782000        -0.35195000
H        +2.48236000        +2.42488000        +1.14651000
H        +4.02182000        +0.00994000        +0.41161000
H        +3.07359000        +0.18738000        +1.88928000
H        +1.03270000        +2.19943000        -1.08064000
H        +2.24339000        -1.61496000        +0.04786000
H        +0.81693000        -0.48905000        +2.04887000
H        -0.12524000        -1.15356000        +0.81843000
H        -0.74673000        +1.06811000        +0.13365000
H        +0.15552000        +1.72617000        +1.40828000
@C        +2.72852000        +2.50366000        +2.88439000
@C        +3.13208000        +1.04525000        +3.29715000
@C        +3.83590000        +2.85852000        +1.86353000
@C        +5.13652000        +3.17578000        +2.62699000
@C        +5.54918000        +1.75229000        +3.10144000
@C        +4.45005000        +0.86579000        +2.45106000
@O        +4.13422000        +1.59541000        +1.25468000
@H        +5.87816000        +3.59660000        +1.94649000
@H        +4.98818000        +3.88366000        +3.44495000
@H        +6.52764000        +1.46872000        +2.71005000
@H        +5.57941000        +1.64616000        +4.18772000
@H        +3.53852000        +3.65821000        +1.21780000
@H        +4.74921000        -0.15618000        +2.34630000
@H        +3.32275000        +0.96973000        +4.34731000
@H        +2.38058000        +0.30522000        +3.11687000
@H        +1.75909000        +2.52689000        +2.43209000
@H        +2.66134000        +3.18495000        +3.70672000
$end

$rem
JOBTYPE                   SP
METHOD                    B3LYP
DFT_D                     d3_op
BASIS                     6-311++G(d,p)
SYMMETRY                  False
THRESH                    12
SCF_CONVERGENCE           8
MAX_SUB_FILE_NUM          128
MEM_STATIC                400
MEM_TOTAL                 4000
$end
--------------------------------------------------------------

             Standard Nuclear Orientation (Angstroms)
    I     Atom           X                Y                Z
 ----------------------------------------------------------------
    1      C       0.2227000000     1.0448800000     0.5859500000
    2      C       0.6262600000    -0.4135300000     0.9987100000
    3      C       1.3300800000     1.3997400000    -0.4349100000
    4      C       2.6307000000     1.7170000000     0.3285500000
    5      C       3.0433600000     0.2935100000     0.8030000000
    6      C       1.9442300000    -0.5929900000     0.1526200000
    7      O       1.6284000000     0.1366300000    -1.0437600000
    8      H       3.3723400000     2.1378200000    -0.3519500000
    9      H       2.4823600000     2.4248800000     1.1465100000
   10      H       4.0218200000     0.0099400000     0.4116100000
   11      H       3.0735900000     0.1873800000     1.8892800000
   12      H       1.0327000000     2.1994300000    -1.0806400000
   13      H       2.2433900000    -1.6149600000     0.0478600000
   14      H       0.8169300000    -0.4890500000     2.0488700000
   15      H      -0.1252400000    -1.1535600000     0.8184300000
   16      H      -0.7467300000     1.0681100000     0.1336500000
   17      H       0.1555200000     1.7261700000     1.4082800000
   18      GH      2.7285200000     2.5036600000     2.8843900000
   19      GH      3.1320800000     1.0452500000     3.2971500000
   20      GH      3.8359000000     2.8585200000     1.8635300000
   21      GH      5.1365200000     3.1757800000     2.6269900000
   22      GH      5.5491800000     1.7522900000     3.1014400000
   23      GH      4.4500500000     0.8657900000     2.4510600000
   24      GH      4.1342200000     1.5954100000     1.2546800000
   25      GH      5.8781600000     3.5966000000     1.9464900000
   26      GH      4.9881800000     3.8836600000     3.4449500000
   27      GH      6.5276400000     1.4687200000     2.7100500000
   28      GH      5.5794100000     1.6461600000     4.1877200000
   29      GH      3.5385200000     3.6582100000     1.2178000000
   30      GH      4.7492100000    -0.1561800000     2.3463000000
   31      GH      3.3227500000     0.9697300000     4.3473100000
   32      GH      2.3805800000     0.3052200000     3.1168700000
   33      GH      1.7590900000     2.5268900000     2.4320900000
   34      GH      2.6613400000     3.1849500000     3.7067200000
 ----------------------------------------------------------------

   12    -309.9602472720      6.49E-09 Convergence criterion met
 Total energy in the final basis set = -309.96024727

                    Orbital Energies (a.u.)
 --------------------------------------------------------------

 Alpha MOs
 -- Occupied --
-19.123 -10.221 -10.218 -10.168 -10.167 -10.165 -10.163  -1.050
 -0.798  -0.749  -0.747  -0.614  -0.578  -0.574  -0.527  -0.478
 -0.465  -0.431  -0.406  -0.395  -0.364  -0.360  -0.351  -0.339
 -0.317  -0.304  -0.264

          Ground-State Mulliken Net Atomic Charges

     Atom                 Charge (a.u.)
  ----------------------------------------
      1 C                    -0.292005
      2 C                    -0.318473
      3 C                    -0.229250
      4 C                    -0.226893
      5 C                    -0.256066
      6 C                    -0.172114
      7 O                    -0.105874
      8 H                     0.199920
      9 H                     0.067329
     10 H                     0.199664
     11 H                     0.065933
     12 H                     0.226920
     13 H                     0.223880
     14 H                     0.095194
     15 H                     0.196236
     16 H                     0.187432
     17 H                     0.109831
     18 GH                   -0.023965
     19 GH                   -0.011715
     20 GH                   -0.028445
     21 GH                    0.016815
     22 GH                   -0.010723
     23 GH                   -0.007069
     24 GH                    0.033787
     25 GH                   -0.000106
     26 GH                    0.000746
     27 GH                   -0.000187
     28 GH                    0.000702
     29 GH                    0.011184
     30 GH                    0.009180
     31 GH                   -0.000686
     32 GH                    0.027090
     33 GH                    0.012798
     34 GH                   -0.001073
  ----------------------------------------
  Sum of atomic charges =     0.000000

                    Cartesian Multipole Moments
 -----------------------------------------------------------------
    Charge (ESU x 10^10)
                 0.0000
    Dipole Moment (Debye)
         X      -0.0140      Y       0.5143      Z       1.7115
       Tot       1.7872
    Quadrupole Moments (Debye-Ang)
        XX     -43.2327     XY      -0.0504     YY     -40.6369
        XZ       2.7769     YZ      -0.8452     ZZ     -46.2020

 Total job time:  176.30s(wall), 701.38s(cpu)
        *  Thank you very much for using Q-Chem.  Have a nice day.  *
