 Q-Chem 5.0, Q-Chem, Inc., Pleasanton, CA (2017)
 Q-Chem 5.0.1 for Intel X86 EM64T Linux

User input:
--------------------------------------------------------------
$molecule
0  1
C        +0.22270000        +1.04488000        +0.58595000
C        +0.62626000        -0.41353000        +0.99871000
C        +1.33008000        +1.39974000        -0.43491000
C        +2.63070000        +1.71700000        +0.32855000
C        +3.04336000        +0.29351000        +0.80300000
C        +1.94423000        -0.59299000        +0.15262000
O        +1.62840000        +0.13663000        -1.04376000
H        +3.37234000        +2.13782000        -0.35195000
H        +2.48236000        +2.42488000        +1.14651000
H        +4.02182000        +0.00994000        +0.41161000
H        +3.07359000        +0.18738000        +1.88928000
H        +1.03270000        +2.19943000        -1.08064000
C        +2.35450000        -2.01267000        -0.16812000
H        +3.25743000        -2.00195000        -0.74215000
H        +1.57951000        -2.48932000        -0.73123000
H        +2.51687000        -2.55129000        +0.74206000
H        -0.74673000        +1.06811000        +0.13365000
H        +0.15552000        +1.72617000        +1.40828000
H        +0.81693000        -0.48905000        +2.04887000
H        -0.12524000        -1.15356000        +0.81843000
@C        +6.00810000        +3.89646000        +5.31856000
@C        +6.41166000        +2.43805000        +5.73132000
@C        +7.11548000        +4.25132000        +4.29770000
@C        +8.41610000        +4.56858000        +5.06116000
@C        +8.82876000        +3.14509000        +5.53561000
@C        +7.72963000        +2.25859000        +4.88523000
@O        +7.41380000        +2.98821000        +3.68885000
@H        +9.15774000        +4.98940000        +4.38066000
@H        +8.26776000        +5.27646000        +5.87912000
@H        +9.80722000        +2.86152000        +5.14422000
@H        +8.85899000        +3.03896000        +6.62189000
@H        +6.81810000        +5.05101000        +3.65197000
@C        +8.13990000        +0.83891000        +4.56449000
@H        +9.04283000        +0.84963000        +3.99046000
@H        +7.36491000        +0.36226000        +4.00138000
@H        +8.30227000        +0.30029000        +5.47467000
@H        +5.03867000        +3.91969000        +4.86626000
@H        +5.94092000        +4.57775000        +6.14089000
@H        +6.60233000        +2.36253000        +6.78148000
@H        +5.66016000        +1.69802000        +5.55104000
$end

$rem
JOBTYPE                   SP
METHOD                    B3LYP
DFT_D                     d3_op
BASIS                     6-311++G(d,p)
SYMMETRY                  False
THRESH                    12
SCF_CONVERGENCE           8
MAX_SUB_FILE_NUM          128
MEM_STATIC                400
MEM_TOTAL                 4000
$end
--------------------------------------------------------------

             Standard Nuclear Orientation (Angstroms)
    I     Atom           X                Y                Z
 ----------------------------------------------------------------
    1      C       0.2227000000     1.0448800000     0.5859500000
    2      C       0.6262600000    -0.4135300000     0.9987100000
    3      C       1.3300800000     1.3997400000    -0.4349100000
    4      C       2.6307000000     1.7170000000     0.3285500000
    5      C       3.0433600000     0.2935100000     0.8030000000
    6      C       1.9442300000    -0.5929900000     0.1526200000
    7      O       1.6284000000     0.1366300000    -1.0437600000
    8      H       3.3723400000     2.1378200000    -0.3519500000
    9      H       2.4823600000     2.4248800000     1.1465100000
   10      H       4.0218200000     0.0099400000     0.4116100000
   11      H       3.0735900000     0.1873800000     1.8892800000
   12      H       1.0327000000     2.1994300000    -1.0806400000
   13      C       2.3545000000    -2.0126700000    -0.1681200000
   14      H       3.2574300000    -2.0019500000    -0.7421500000
   15      H       1.5795100000    -2.4893200000    -0.7312300000
   16      H       2.5168700000    -2.5512900000     0.7420600000
   17      H      -0.7467300000     1.0681100000     0.1336500000
   18      H       0.1555200000     1.7261700000     1.4082800000
   19      H       0.8169300000    -0.4890500000     2.0488700000
   20      H      -0.1252400000    -1.1535600000     0.8184300000
   21      GH      6.0081000000     3.8964600000     5.3185600000
   22      GH      6.4116600000     2.4380500000     5.7313200000
   23      GH      7.1154800000     4.2513200000     4.2977000000
   24      GH      8.4161000000     4.5685800000     5.0611600000
   25      GH      8.8287600000     3.1450900000     5.5356100000
   26      GH      7.7296300000     2.2585900000     4.8852300000
   27      GH      7.4138000000     2.9882100000     3.6888500000
   28      GH      9.1577400000     4.9894000000     4.3806600000
   29      GH      8.2677600000     5.2764600000     5.8791200000
   30      GH      9.8072200000     2.8615200000     5.1442200000
   31      GH      8.8589900000     3.0389600000     6.6218900000
   32      GH      6.8181000000     5.0510100000     3.6519700000
   33      GH      8.1399000000     0.8389100000     4.5644900000
   34      GH      9.0428300000     0.8496300000     3.9904600000
   35      GH      7.3649100000     0.3622600000     4.0013800000
   36      GH      8.3022700000     0.3002900000     5.4746700000
   37      GH      5.0386700000     3.9196900000     4.8662600000
   38      GH      5.9409200000     4.5777500000     6.1408900000
   39      GH      6.6023300000     2.3625300000     6.7814800000
   40      GH      5.6601600000     1.6980200000     5.5510400000
 ----------------------------------------------------------------

   13    -349.2959708013      2.61E-09 Convergence criterion met
 Total energy in the final basis set = -349.29597080

                    Orbital Energies (a.u.)
 --------------------------------------------------------------

 Alpha MOs
 -- Occupied --
-19.119 -10.225 -10.216 -10.166 -10.166 -10.163 -10.162 -10.154
 -1.049  -0.798  -0.775  -0.748  -0.684  -0.615  -0.575  -0.556
 -0.503  -0.482  -0.465  -0.441  -0.418  -0.405  -0.392  -0.378
 -0.360  -0.348  -0.344  -0.336  -0.316  -0.301  -0.262

          Ground-State Mulliken Net Atomic Charges

     Atom                 Charge (a.u.)
  ----------------------------------------
      1 C                    -0.569159
      2 C                    -0.323314
      3 C                     0.336793
      4 C                    -0.585399
      5 C                    -0.238698
      6 C                     0.038764
      7 O                    -0.094826
      8 H                     0.161862
      9 H                     0.105056
     10 H                     0.146690
     11 H                     0.110703
     12 H                     0.245588
     13 C                    -0.362884
     14 H                     0.146914
     15 H                     0.156980
     16 H                     0.133758
     17 H                     0.165485
     18 H                     0.124412
     19 H                     0.135935
     20 H                     0.164053
     21 GH                   -0.002479
     22 GH                    0.002091
     23 GH                    0.000636
     24 GH                    0.000190
     25 GH                   -0.000597
     26 GH                   -0.002792
     27 GH                    0.000202
     28 GH                    0.000003
     29 GH                    0.000006
     30 GH                   -0.000016
     31 GH                   -0.000003
     32 GH                    0.000031
     33 GH                    0.000297
     34 GH                    0.000063
     35 GH                    0.000789
     36 GH                   -0.000023
     37 GH                    0.001324
     38 GH                   -0.000092
     39 GH                    0.000008
     40 GH                    0.001651
  ----------------------------------------
  Sum of atomic charges =     0.000000

                    Cartesian Multipole Moments
 -----------------------------------------------------------------
    Charge (ESU x 10^10)
                 0.0000
    Dipole Moment (Debye)
         X      -0.0064      Y       0.4054      Z       1.6197
       Tot       1.6697
    Quadrupole Moments (Debye-Ang)
        XX     -49.7875     XY      -0.0709     YY     -47.6076
        XZ       2.5541     YZ      -0.6753     ZZ     -52.6640

 Total job time:  120.52s(wall), 479.71s(cpu)
        *  Thank you very much for using Q-Chem.  Have a nice day.  *
