 Q-Chem 5.0, Q-Chem, Inc., Pleasanton, CA (2017)
 Q-Chem 5.0.1 for Intel X86 EM64T Linux

User input:
--------------------------------------------------------------
$molecule
0  1
--
0  1
C        +0.22270000        +1.04488000        +0.58595000
C        +0.62626000        -0.41353000        +0.99871000
C        +1.33008000        +1.39974000        -0.43491000
C        +2.63070000        +1.71700000        +0.32855000
C        +3.04336000        +0.29351000        +0.80300000
C        +1.94423000        -0.59299000        +0.15262000
O        +1.62840000        +0.13663000        -1.04376000
H        +3.37234000        +2.13782000        -0.35195000
H        +2.48236000        +2.42488000        +1.14651000
H        +4.02182000        +0.00994000        +0.41161000
H        +3.07359000        +0.18738000        +1.88928000
H        +1.03270000        +2.19943000        -1.08064000
C        +2.35450000        -2.01267000        -0.16812000
H        +3.25743000        -2.00195000        -0.74215000
H        +1.57951000        -2.48932000        -0.73123000
H        +2.51687000        -2.55129000        +0.74206000
H        -0.74673000        +1.06811000        +0.13365000
H        +0.15552000        +1.72617000        +1.40828000
H        +0.81693000        -0.48905000        +2.04887000
H        -0.12524000        -1.15356000        +0.81843000
--
0  1
C        +2.89845000        +2.36374000        +2.77478000
C        +3.30201000        +0.90533000        +3.18754000
C        +4.00583000        +2.71860000        +1.75392000
C        +5.30645000        +3.03586000        +2.51738000
C        +5.71911000        +1.61237000        +2.99183000
C        +4.61998000        +0.72587000        +2.34145000
O        +4.30415000        +1.45549000        +1.14507000
H        +6.04809000        +3.45668000        +1.83688000
H        +5.15811000        +3.74374000        +3.33534000
H        +6.69757000        +1.32880000        +2.60044000
H        +5.74934000        +1.50624000        +4.07811000
H        +3.70845000        +3.51829000        +1.10819000
C        +5.03025000        -0.69381000        +2.02071000
H        +5.93318000        -0.68309000        +1.44668000
H        +4.25526000        -1.17046000        +1.45760000
H        +5.19262000        -1.23243000        +2.93089000
H        +1.92902000        +2.38697000        +2.32248000
H        +2.83127000        +3.04503000        +3.59711000
H        +3.49268000        +0.82981000        +4.23770000
H        +2.55051000        +0.16530000        +3.00726000
$end

$rem
JOBTYPE                   SP
METHOD                    B3LYP
DFT_D                     d3_op
BASIS                     6-311++G(d,p)
SYMMETRY                  False
THRESH                    12
SCF_CONVERGENCE           8
MAX_SUB_FILE_NUM          128
MEM_STATIC                400
MEM_TOTAL                 4000
$end
--------------------------------------------------------------

             Standard Nuclear Orientation (Angstroms)
    I     Atom           X                Y                Z
 ----------------------------------------------------------------
    1      C       2.3682096566    -1.5693395535     0.7404051185
    2      C       2.4606089111    -0.0853529776     1.2398422414
    3      C       1.9531521191    -1.3775247496    -0.7378727800
    4      C       0.4571655870    -1.0113822128    -0.7935630116
    5      C       0.4952793602     0.4480212312    -0.2546717551
    6      C       2.0207450965     0.6808745730    -0.0657358933
    7      O       2.5878437765    -0.1431834520    -1.0966318611
    8      H       0.1009290788    -1.0434904345    -1.8242250437
    9      H      -0.1674704441    -1.6810922724    -0.1990248074
   10      H       0.1048778750     1.1551979627    -0.9884767697
   11      H      -0.0638164432     0.5852528085     0.6731003317
   12      H       2.1827716654    -2.2391699381    -1.3292682707
   13      C       2.4845204596     2.1140880200    -0.1980179820
   14      H       2.1243009064     2.5219327996    -1.1193281650
   15      H       3.5540204571     2.1452368807    -0.1881641190
   16      H       2.1034011330     2.6892238533     0.6198267378
   17      H       3.3122419946    -2.0668574705     0.8190709624
   18      H       1.6927639088    -2.1766945918     1.3059037875
   19      H       1.7902580773     0.1009672175     2.0527437665
   20      H       3.4180940313     0.1985280981     1.6239402870
   21      C      -1.3186680722    -1.3835290142     0.9902322335
   22      C      -1.2262688177     0.1004575617     1.4896693564
   23      C      -1.7337256097    -1.1917142103    -0.4880456650
   24      C      -3.2297121418    -0.8255716735    -0.5437358966
   25      C      -3.1915983686     0.6338317705    -0.0048446401
   26      C      -1.6661326323     0.8666851123     0.1840912216
   27      O      -1.0990339523     0.0426270873    -0.8468047461
   28      H      -3.5859486500    -0.8576798952    -1.5743979287
   29      H      -3.8543481729    -1.4952817331     0.0508023076
   30      H      -3.5819998538     1.3410085020    -0.7386496547
   31      H      -3.7506941720     0.7710633478     0.9229274466
   32      H      -1.5041060634    -2.0533593988    -1.0794411557
   33      C      -1.2023572692     2.2998985593     0.0518091330
   34      H      -1.5625768224     2.7077433390    -0.8695010501
   35      H      -0.1328572717     2.3310474200     0.0616629960
   36      H      -1.5834765958     2.8750343926     0.8696538528
   37      H      -0.3746357342    -1.8810469311     1.0688980774
   38      H      -1.9941138200    -1.9908840525     1.5557309025
   39      H      -1.8966196515     0.2867777568     2.3025708815
   40      H      -0.2687836975     0.3843386374     1.8737674020
 ----------------------------------------------------------------

   14    -698.2312501429      6.94E-09 Convergence criterion met
 Total energy in the final basis set = -698.23125014

                    Orbital Energies (a.u.)
 --------------------------------------------------------------

 Alpha MOs
 -- Occupied --
-19.134 -19.090 -10.245 -10.233 -10.188 -10.184 -10.183 -10.181
-10.180 -10.178 -10.163 -10.147 -10.146 -10.137 -10.121 -10.118
 -1.110  -1.019  -0.835  -0.825  -0.807  -0.764  -0.750  -0.731
 -0.707  -0.671  -0.650  -0.632  -0.592  -0.582  -0.568  -0.544
 -0.536  -0.528  -0.494  -0.480  -0.462  -0.453  -0.445  -0.439
 -0.428  -0.418  -0.413  -0.408  -0.398  -0.394  -0.388  -0.372
 -0.361  -0.356  -0.351  -0.347  -0.337  -0.333  -0.327  -0.321
 -0.314  -0.291  -0.267  -0.261  -0.247  -0.187

          Ground-State Mulliken Net Atomic Charges

     Atom                 Charge (a.u.)
  ----------------------------------------
      1 C                    -0.426461
      2 C                    -0.055711
      3 C                     0.027063
      4 C                    -0.235730
      5 C                    -0.282464
      6 C                    -0.196670
      7 O                     0.007339
      8 H                     0.127305
      9 H                     0.152933
     10 H                     0.134142
     11 H                    -0.099505
     12 H                     0.218964
     13 C                    -0.665979
     14 H                     0.152329
     15 H                     0.165625
     16 H                     0.145549
     17 H                     0.179277
     18 H                     0.102502
     19 H                     0.085974
     20 H                     0.170592
     21 C                    -0.361971
     22 C                    -0.415398
     23 C                    -0.041644
     24 C                    -0.632479
     25 C                    -0.410698
     26 C                     0.352712
     27 O                     0.354540
     28 H                     0.166606
     29 H                     0.127177
     30 H                     0.164259
     31 H                     0.136343
     32 H                     0.249483
     33 C                    -0.598443
     34 H                     0.176621
     35 H                     0.130022
     36 H                     0.150530
     37 H                     0.106486
     38 H                     0.213742
     39 H                     0.184879
     40 H                     0.240157
  ----------------------------------------
  Sum of atomic charges =     0.000000

                    Cartesian Multipole Moments
 -----------------------------------------------------------------
    Charge (ESU x 10^10)
                 0.0000
    Dipole Moment (Debye)
         X      -4.3720      Y      -0.5862      Z       2.3636
       Tot       5.0044
    Quadrupole Moments (Debye-Ang)
        XX    -107.0527     XY       0.5396     YY     -96.2052
        XZ       4.1745     YZ       1.2098     ZZ    -103.7544

 Total job time:  326.63s(wall), 1297.04s(cpu)
        *  Thank you very much for using Q-Chem.  Have a nice day.  *
