 Q-Chem 5.0, Q-Chem, Inc., Pleasanton, CA (2017)
 Q-Chem 5.0.1 for Intel X86 EM64T Linux

User input:
--------------------------------------------------------------
$molecule
0  1
--
0  1
C        +0.22270000        +1.04488000        +0.58595000
C        +0.62626000        -0.41353000        +0.99871000
C        +1.33008000        +1.39974000        -0.43491000
C        +2.63070000        +1.71700000        +0.32855000
C        +3.04336000        +0.29351000        +0.80300000
C        +1.94423000        -0.59299000        +0.15262000
O        +1.62840000        +0.13663000        -1.04376000
H        +3.37234000        +2.13782000        -0.35195000
H        +2.48236000        +2.42488000        +1.14651000
H        +4.02182000        +0.00994000        +0.41161000
H        +3.07359000        +0.18738000        +1.88928000
H        +1.03270000        +2.19943000        -1.08064000
C        +2.35450000        -2.01267000        -0.16812000
H        +3.25743000        -2.00195000        -0.74215000
H        +1.57951000        -2.48932000        -0.73123000
H        +2.51687000        -2.55129000        +0.74206000
H        -0.74673000        +1.06811000        +0.13365000
H        +0.15552000        +1.72617000        +1.40828000
H        +0.81693000        -0.48905000        +2.04887000
H        -0.12524000        -1.15356000        +0.81843000
--
0  1
C        +6.00810000        +3.89646000        +5.31856000
C        +6.41166000        +2.43805000        +5.73132000
C        +7.11548000        +4.25132000        +4.29770000
C        +8.41610000        +4.56858000        +5.06116000
C        +8.82876000        +3.14509000        +5.53561000
C        +7.72963000        +2.25859000        +4.88523000
O        +7.41380000        +2.98821000        +3.68885000
H        +9.15774000        +4.98940000        +4.38066000
H        +8.26776000        +5.27646000        +5.87912000
H        +9.80722000        +2.86152000        +5.14422000
H        +8.85899000        +3.03896000        +6.62189000
H        +6.81810000        +5.05101000        +3.65197000
C        +8.13990000        +0.83891000        +4.56449000
H        +9.04283000        +0.84963000        +3.99046000
H        +7.36491000        +0.36226000        +4.00138000
H        +8.30227000        +0.30029000        +5.47467000
H        +5.03867000        +3.91969000        +4.86626000
H        +5.94092000        +4.57775000        +6.14089000
H        +6.60233000        +2.36253000        +6.78148000
H        +5.66016000        +1.69802000        +5.55104000
$end

$rem
JOBTYPE                   SP
METHOD                    B3LYP
DFT_D                     d3_op
BASIS                     6-311++G(d,p)
SYMMETRY                  False
THRESH                    12
SCF_CONVERGENCE           8
MAX_SUB_FILE_NUM          128
MEM_STATIC                400
MEM_TOTAL                 4000
$end
--------------------------------------------------------------

             Standard Nuclear Orientation (Angstroms)
    I     Atom           X                Y                Z
 ----------------------------------------------------------------
    1      C       4.5385965435    -1.4810973015     0.8488351059
    2      C       4.5428221916     0.0097148812     1.3363311562
    3      C       4.1945582459    -1.3196540014    -0.6511465387
    4      C       2.6896912326    -1.0171909866    -0.7890916741
    5      C       2.6386914205     0.4471199889    -0.2647756965
    6      C       4.1410732260     0.7454898002     0.0012835399
    7      O       4.7955219113    -0.0628741340    -0.9895058959
    8      H       2.3900044301    -1.0731310404    -1.8365925776
    9      H       2.0628759039    -1.7074026021    -0.2208770305
   10      H       2.2585580642     1.1309099220    -1.0256383697
   11      H       2.0261808550     0.5687362689     0.6308927443
   12      H       4.4906469166    -2.1759596736    -1.2203374456
   13      C       4.5512950056     2.1957307374    -0.1220300385
   14      H       4.2235993366     2.5801147863    -1.0653075139
   15      H       5.6165673209     2.2718768019    -0.0564993907
   16      H       4.1039859527     2.7613784194     0.6684511218
   17      H       5.4969956592    -1.9378098986     0.9822299573
   18      H       3.8600310676    -2.1113968826     1.3847149231
   19      H       3.8233346511     0.1747085465     2.1109337086
   20      H       5.4660842106     0.3368824472     1.7669657547
   21      C      -3.4602230324    -1.4100196477     0.9662762724
   22      C      -3.4559973843     0.0807925350     1.4537723226
   23      C      -3.8042613300    -1.2485763476    -0.5337053723
   24      C      -5.3091283433    -0.9461133328    -0.6716505076
   25      C      -5.3601281555     0.5181976427    -0.1473345300
   26      C      -3.8577463499     0.8165674540     0.1187247063
   27      O      -3.2032976646     0.0082035198    -0.8720647294
   28      H      -5.6088151458    -1.0020533866    -1.7191514111
   29      H      -5.9359436720    -1.6363249483    -0.1034358640
   30      H      -5.7402615117     1.2019875758    -0.9081972032
   31      H      -5.9726387209     0.6398139227     0.7483339108
   32      H      -3.5081726593    -2.1048820198    -1.1028962791
   33      C      -3.4475245703     2.2668083912    -0.0045888720
   34      H      -3.7752202393     2.6511924401    -0.9478663474
   35      H      -2.3822522550     2.3429544557     0.0609417757
   36      H      -3.8948336232     2.8324560732     0.7858922883
   37      H      -2.5018239167    -1.8667322448     1.0996711238
   38      H      -4.1387885083    -2.0403192288     1.5021560896
   39      H      -4.1754849248     0.2457862003     2.2283748751
   40      H      -2.5327353653     0.4079601010     1.8844069212
 ----------------------------------------------------------------

   13    -698.5924221823      3.85E-09 Convergence criterion met
 Total energy in the final basis set = -698.59242218

                    Orbital Energies (a.u.)
 --------------------------------------------------------------

 Alpha MOs
 -- Occupied --
-19.120 -19.116 -10.227 -10.223 -10.218 -10.214 -10.167 -10.167
-10.165 -10.164 -10.163 -10.163 -10.161 -10.160 -10.156 -10.152
 -1.051  -1.047  -0.800  -0.796  -0.777  -0.773  -0.750  -0.746
 -0.685  -0.681  -0.616  -0.612  -0.577  -0.573  -0.558  -0.554
 -0.504  -0.501  -0.484  -0.480  -0.466  -0.462  -0.442  -0.438
 -0.419  -0.415  -0.406  -0.402  -0.394  -0.390  -0.379  -0.375
 -0.362  -0.358  -0.350  -0.346  -0.345  -0.341  -0.338  -0.334
 -0.318  -0.314  -0.303  -0.299  -0.264  -0.260

          Ground-State Mulliken Net Atomic Charges

     Atom                 Charge (a.u.)
  ----------------------------------------
      1 C                    -0.570253
      2 C                    -0.322577
      3 C                     0.342742
      4 C                    -0.590153
      5 C                    -0.237206
      6 C                     0.041324
      7 O                    -0.095967
      8 H                     0.163571
      9 H                     0.102847
     10 H                     0.148444
     11 H                     0.106109
     12 H                     0.245002
     13 C                    -0.357909
     14 H                     0.147626
     15 H                     0.155947
     16 H                     0.132973
     17 H                     0.164597
     18 H                     0.123725
     19 H                     0.135329
     20 H                     0.163066
     21 C                    -0.587842
     22 C                    -0.290082
     23 C                     0.290610
     24 C                    -0.553162
     25 C                    -0.430211
     26 C                     0.122926
     27 O                    -0.080969
     28 H                     0.163143
     29 H                     0.125036
     30 H                     0.150281
     31 H                     0.142129
     32 H                     0.234285
     33 C                    -0.295421
     34 H                     0.149309
     35 H                     0.145118
     36 H                     0.135531
     37 H                     0.149840
     38 H                     0.129188
     39 H                     0.137276
     40 H                     0.163778
  ----------------------------------------
  Sum of atomic charges =     0.000000

                    Cartesian Multipole Moments
 -----------------------------------------------------------------
    Charge (ESU x 10^10)
                 0.0000
    Dipole Moment (Debye)
         X      -2.2658      Y      -0.6782      Z       2.3782
       Tot       3.3540
    Quadrupole Moments (Debye-Ang)
        XX    -103.7303     XY      -0.2898     YY     -95.0829
        XZ       3.4313     YZ       1.6051     ZZ    -103.0385

 Total job time:  132.20s(wall), 526.49s(cpu)
        *  Thank you very much for using Q-Chem.  Have a nice day.  *
