 Q-Chem 5.0, Q-Chem, Inc., Pleasanton, CA (2017)
 Q-Chem 5.0.1 for Intel X86 EM64T Linux

User input:
--------------------------------------------------------------
$molecule
0  1
C        +2.89845000        +2.36374000        +2.77478000
C        +3.30201000        +0.90533000        +3.18754000
C        +4.00583000        +2.71860000        +1.75392000
C        +5.30645000        +3.03586000        +2.51738000
C        +5.71911000        +1.61237000        +2.99183000
C        +4.61998000        +0.72587000        +2.34145000
O        +4.30415000        +1.45549000        +1.14507000
H        +6.04809000        +3.45668000        +1.83688000
H        +5.15811000        +3.74374000        +3.33534000
H        +6.69757000        +1.32880000        +2.60044000
H        +5.74934000        +1.50624000        +4.07811000
H        +3.70845000        +3.51829000        +1.10819000
C        +5.03025000        -0.69381000        +2.02071000
H        +5.93318000        -0.68309000        +1.44668000
H        +4.25526000        -1.17046000        +1.45760000
H        +5.19262000        -1.23243000        +2.93089000
H        +1.92902000        +2.38697000        +2.32248000
H        +2.83127000        +3.04503000        +3.59711000
H        +3.49268000        +0.82981000        +4.23770000
H        +2.55051000        +0.16530000        +3.00726000
@C        +0.22270000        +1.04488000        +0.58595000
@C        +0.62626000        -0.41353000        +0.99871000
@C        +1.33008000        +1.39974000        -0.43491000
@C        +2.63070000        +1.71700000        +0.32855000
@C        +3.04336000        +0.29351000        +0.80300000
@C        +1.94423000        -0.59299000        +0.15262000
@O        +1.62840000        +0.13663000        -1.04376000
@H        +3.37234000        +2.13782000        -0.35195000
@H        +2.48236000        +2.42488000        +1.14651000
@H        +4.02182000        +0.00994000        +0.41161000
@H        +3.07359000        +0.18738000        +1.88928000
@H        +1.03270000        +2.19943000        -1.08064000
@C        +2.35450000        -2.01267000        -0.16812000
@H        +3.25743000        -2.00195000        -0.74215000
@H        +1.57951000        -2.48932000        -0.73123000
@H        +2.51687000        -2.55129000        +0.74206000
@H        -0.74673000        +1.06811000        +0.13365000
@H        +0.15552000        +1.72617000        +1.40828000
@H        +0.81693000        -0.48905000        +2.04887000
@H        -0.12524000        -1.15356000        +0.81843000
$end

$rem
JOBTYPE                   SP
METHOD                    B3LYP
DFT_D                     d3_op
BASIS                     6-311++G(d,p)
SYMMETRY                  False
THRESH                    12
SCF_CONVERGENCE           8
MAX_SUB_FILE_NUM          128
MEM_STATIC                400
MEM_TOTAL                 4000
$end
--------------------------------------------------------------

             Standard Nuclear Orientation (Angstroms)
    I     Atom           X                Y                Z
 ----------------------------------------------------------------
    1      C       2.8984500000     2.3637400000     2.7747800000
    2      C       3.3020100000     0.9053300000     3.1875400000
    3      C       4.0058300000     2.7186000000     1.7539200000
    4      C       5.3064500000     3.0358600000     2.5173800000
    5      C       5.7191100000     1.6123700000     2.9918300000
    6      C       4.6199800000     0.7258700000     2.3414500000
    7      O       4.3041500000     1.4554900000     1.1450700000
    8      H       6.0480900000     3.4566800000     1.8368800000
    9      H       5.1581100000     3.7437400000     3.3353400000
   10      H       6.6975700000     1.3288000000     2.6004400000
   11      H       5.7493400000     1.5062400000     4.0781100000
   12      H       3.7084500000     3.5182900000     1.1081900000
   13      C       5.0302500000    -0.6938100000     2.0207100000
   14      H       5.9331800000    -0.6830900000     1.4466800000
   15      H       4.2552600000    -1.1704600000     1.4576000000
   16      H       5.1926200000    -1.2324300000     2.9308900000
   17      H       1.9290200000     2.3869700000     2.3224800000
   18      H       2.8312700000     3.0450300000     3.5971100000
   19      H       3.4926800000     0.8298100000     4.2377000000
   20      H       2.5505100000     0.1653000000     3.0072600000
   21      GH      0.2227000000     1.0448800000     0.5859500000
   22      GH      0.6262600000    -0.4135300000     0.9987100000
   23      GH      1.3300800000     1.3997400000    -0.4349100000
   24      GH      2.6307000000     1.7170000000     0.3285500000
   25      GH      3.0433600000     0.2935100000     0.8030000000
   26      GH      1.9442300000    -0.5929900000     0.1526200000
   27      GH      1.6284000000     0.1366300000    -1.0437600000
   28      GH      3.3723400000     2.1378200000    -0.3519500000
   29      GH      2.4823600000     2.4248800000     1.1465100000
   30      GH      4.0218200000     0.0099400000     0.4116100000
   31      GH      3.0735900000     0.1873800000     1.8892800000
   32      GH      1.0327000000     2.1994300000    -1.0806400000
   33      GH      2.3545000000    -2.0126700000    -0.1681200000
   34      GH      3.2574300000    -2.0019500000    -0.7421500000
   35      GH      1.5795100000    -2.4893200000    -0.7312300000
   36      GH      2.5168700000    -2.5512900000     0.7420600000
   37      GH     -0.7467300000     1.0681100000     0.1336500000
   38      GH      0.1555200000     1.7261700000     1.4082800000
   39      GH      0.8169300000    -0.4890500000     2.0488700000
   40      GH     -0.1252400000    -1.1535600000     0.8184300000
 ----------------------------------------------------------------

   13    -349.2979495416      2.63E-09 Convergence criterion met
 Total energy in the final basis set = -349.29794954

                    Orbital Energies (a.u.)
 --------------------------------------------------------------

 Alpha MOs
 -- Occupied --
-19.119 -10.225 -10.216 -10.166 -10.166 -10.163 -10.162 -10.154
 -1.049  -0.798  -0.775  -0.748  -0.683  -0.614  -0.575  -0.556
 -0.503  -0.482  -0.464  -0.440  -0.417  -0.405  -0.392  -0.377
 -0.360  -0.348  -0.343  -0.336  -0.316  -0.301  -0.262

          Ground-State Mulliken Net Atomic Charges

     Atom                 Charge (a.u.)
  ----------------------------------------
      1 C                    -0.282189
      2 C                    -0.614103
      3 C                     0.260820
      4 C                    -0.654238
      5 C                    -0.371227
      6 C                     0.600292
      7 O                    -0.096012
      8 H                     0.158129
      9 H                     0.125817
     10 H                     0.158907
     11 H                     0.134655
     12 H                     0.216780
     13 C                    -0.537154
     14 H                     0.147209
     15 H                     0.063637
     16 H                     0.158620
     17 H                     0.120873
     18 H                     0.203501
     19 H                     0.181391
     20 H                     0.208050
     21 GH                   -0.019705
     22 GH                   -0.026960
     23 GH                   -0.140316
     24 GH                   -0.012045
     25 GH                    0.063045
     26 GH                   -0.111402
     27 GH                   -0.010573
     28 GH                   -0.015646
     29 GH                    0.012738
     30 GH                    0.040871
     31 GH                    0.023321
     32 GH                   -0.003707
     33 GH                    0.029636
     34 GH                   -0.002157
     35 GH                    0.000003
     36 GH                    0.009850
     37 GH                    0.000001
     38 GH                   -0.002491
     39 GH                   -0.017416
     40 GH                   -0.000805
  ----------------------------------------
  Sum of atomic charges =     0.000000

                    Cartesian Multipole Moments
 -----------------------------------------------------------------
    Charge (ESU x 10^10)
                 0.0000
    Dipole Moment (Debye)
         X      -0.0168      Y       0.3897      Z       1.5823
       Tot       1.6296
    Quadrupole Moments (Debye-Ang)
        XX     -49.9313     XY       0.9355     YY     -46.6371
        XZ       6.7367     YZ       2.2964     ZZ     -45.6464

 Total job time:  290.66s(wall), 1153.94s(cpu)
        *  Thank you very much for using Q-Chem.  Have a nice day.  *
