 Q-Chem 5.0, Q-Chem, Inc., Pleasanton, CA (2017)
 Q-Chem 5.0.1 for Intel X86 EM64T Linux

User input:
--------------------------------------------------------------
$molecule
0  1
--
0  1
C        +0.22270000        +1.04488000        +0.58595000
C        +0.62626000        -0.41353000        +0.99871000
C        +1.33008000        +1.39974000        -0.43491000
C        +2.63070000        +1.71700000        +0.32855000
C        +3.04336000        +0.29351000        +0.80300000
C        +1.94423000        -0.59299000        +0.15262000
O        +1.62840000        +0.13663000        -1.04376000
H        +3.37234000        +2.13782000        -0.35195000
H        +2.48236000        +2.42488000        +1.14651000
H        +4.02182000        +0.00994000        +0.41161000
H        +3.07359000        +0.18738000        +1.88928000
H        +1.03270000        +2.19943000        -1.08064000
C        +2.35450000        -2.01267000        -0.16812000
H        +3.25743000        -2.00195000        -0.74215000
H        +1.57951000        -2.48932000        -0.73123000
H        +2.51687000        -2.55129000        +0.74206000
H        -0.74673000        +1.06811000        +0.13365000
H        +0.15552000        +1.72617000        +1.40828000
H        +0.81693000        -0.48905000        +2.04887000
H        -0.12524000        -1.15356000        +0.81843000
--
0  1
C        +3.83858000        +2.82712000        +3.54383000
C        +4.24214000        +1.36871000        +3.95659000
C        +4.94596000        +3.18198000        +2.52297000
C        +6.24658000        +3.49924000        +3.28643000
C        +6.65924000        +2.07575000        +3.76088000
C        +5.56011000        +1.18925000        +3.11050000
O        +5.24428000        +1.91887000        +1.91412000
H        +6.98822000        +3.92006000        +2.60593000
H        +6.09824000        +4.20712000        +4.10439000
H        +7.63770000        +1.79218000        +3.36949000
H        +6.68947000        +1.96962000        +4.84716000
H        +4.64858000        +3.98167000        +1.87724000
C        +5.97038000        -0.23043000        +2.78976000
H        +6.87331000        -0.21971000        +2.21573000
H        +5.19539000        -0.70708000        +2.22665000
H        +6.13275000        -0.76905000        +3.69994000
H        +2.86915000        +2.85035000        +3.09153000
H        +3.77140000        +3.50841000        +4.36616000
H        +4.43281000        +1.29319000        +5.00675000
H        +3.49064000        +0.62868000        +3.77631000
$end

$rem
JOBTYPE                   SP
METHOD                    B3LYP
DFT_D                     d3_op
BASIS                     6-311++G(d,p)
SYMMETRY                  False
THRESH                    12
SCF_CONVERGENCE           8
MAX_SUB_FILE_NUM          128
MEM_STATIC                400
MEM_TOTAL                 4000
$end
--------------------------------------------------------------

             Standard Nuclear Orientation (Angstroms)
    I     Atom           X                Y                Z
 ----------------------------------------------------------------
    1      C       3.0341044704    -1.5189713956     0.7963063509
    2      C       3.0729419855    -0.0304159192     1.2891404612
    3      C       2.6588628749    -1.3460015092    -0.6948832370
    4      C       1.1562398672    -1.0193259650    -0.7975703790
    5      C       1.1402853238     0.4434506006    -0.2667737796
    6      C       2.6528296681     0.7170437720    -0.0337082646
    7      O       3.2718476386    -0.0974645149    -1.0420792481
    8      H       0.8321148841    -1.0662586941    -1.8382143750
    9      H       0.5315751674    -1.7019024125    -0.2178801015
   10      H       0.7539303311     1.1362445020    -1.0162725977
   11      H       0.5501693303     0.5710307817     0.6429888706
   12      H       2.9284237047    -2.2045277450    -1.2738269777
   13      C       3.0830662268     2.1611396113    -0.1608720707
   14      H       2.7402680439     2.5544875506    -1.0950426914
   15      H       4.1506190457     2.2202389172    -0.1192085905
   16      H       2.6627412402     2.7305220125     0.6416450572
   17      H       3.9879230206    -1.9912553982     0.9062492542
   18      H       2.3579271565    -2.1406969243     1.3450662735
   19      H       2.3738410832     0.1427148175     2.0804545716
   20      H       4.0107611514     0.2804144736     1.6999654949
   21      C      -1.9608973931    -1.3961588450     0.9831087802
   22      C      -1.9220598779     0.0923966314     1.4759428906
   23      C      -2.3361389886    -1.2231889586    -0.5080808077
   24      C      -3.8387619963    -0.8965134144    -0.6107679497
   25      C      -3.8547165397     0.5662631512    -0.0799713503
   26      C      -2.3421721954     0.8398563227     0.1530941648
   27      O      -1.7231542248     0.0253480358    -0.8552768187
   28      H      -4.1628869794    -0.9434461435    -1.6514119456
   29      H      -4.4634266960    -1.5790898619    -0.0310776722
   30      H      -4.2410715324     1.2590570526    -0.8294701684
   31      H      -4.4448325331     0.6938433324     0.8297913000
   32      H      -2.0665781588    -2.0817151944    -1.0870245484
   33      C      -1.9119356367     2.2839521619     0.0259303587
   34      H      -2.2547338196     2.6773001012    -0.9082402621
   35      H      -0.8443828178     2.3430514678     0.0675938388
   36      H      -2.3322606233     2.8533345631     0.8284474866
   37      H      -1.0070788429    -1.8684428476     1.0930516836
   38      H      -2.6370747070    -2.0178843736     1.5318687028
   39      H      -2.6211607803     0.2655273682     2.2672570009
   40      H      -0.9842407120     0.4032270242     1.8867679242
 ----------------------------------------------------------------

   13    -698.5926685532      6.86E-09 Convergence criterion met
 Total energy in the final basis set = -698.59266855

                    Orbital Energies (a.u.)
 --------------------------------------------------------------

 Alpha MOs
 -- Occupied --
-19.122 -19.111 -10.229 -10.220 -10.217 -10.208 -10.169 -10.169
-10.168 -10.167 -10.158 -10.157 -10.157 -10.155 -10.153 -10.149
 -1.054  -1.041  -0.803  -0.790  -0.780  -0.768  -0.753  -0.739
 -0.688  -0.677  -0.620  -0.607  -0.580  -0.568  -0.562  -0.548
 -0.508  -0.496  -0.489  -0.475  -0.468  -0.455  -0.445  -0.433
 -0.422  -0.412  -0.410  -0.397  -0.396  -0.384  -0.382  -0.371
 -0.365  -0.354  -0.350  -0.349  -0.342  -0.339  -0.335  -0.327
 -0.320  -0.308  -0.304  -0.292  -0.267  -0.252

          Ground-State Mulliken Net Atomic Charges

     Atom                 Charge (a.u.)
  ----------------------------------------
      1 C                    -0.595580
      2 C                    -0.184206
      3 C                     0.072082
      4 C                    -0.279335
      5 C                    -0.117450
      6 C                    -0.111384
      7 O                    -0.052864
      8 H                     0.210273
      9 H                     0.045088
     10 H                     0.198355
     11 H                    -0.065706
     12 H                     0.240049
     13 C                    -0.516692
     14 H                     0.147564
     15 H                     0.163124
     16 H                     0.147164
     17 H                     0.170501
     18 H                     0.112715
     19 H                     0.128179
     20 H                     0.169633
     21 C                    -0.376909
     22 C                    -0.397176
     23 C                     0.189992
     24 C                    -0.669000
     25 C                    -0.471137
     26 C                     0.254470
     27 O                     0.052677
     28 H                     0.164374
     29 H                     0.129345
     30 H                     0.157180
     31 H                     0.136463
     32 H                     0.234462
     33 C                    -0.358341
     34 H                     0.158460
     35 H                     0.132194
     36 H                     0.141829
     37 H                     0.118802
     38 H                     0.170366
     39 H                     0.166455
     40 H                     0.183983
  ----------------------------------------
  Sum of atomic charges =     0.000000

                    Cartesian Multipole Moments
 -----------------------------------------------------------------
    Charge (ESU x 10^10)
                 0.0000
    Dipole Moment (Debye)
         X      -2.6043      Y      -0.6073      Z       2.2297
       Tot       3.4818
    Quadrupole Moments (Debye-Ang)
        XX    -104.3607     XY      -0.0406     YY     -95.5729
        XZ       3.3380     YZ       1.5397     ZZ    -103.2145

 Total job time:  217.07s(wall), 862.66s(cpu)
        *  Thank you very much for using Q-Chem.  Have a nice day.  *
