 Q-Chem 5.0, Q-Chem, Inc., Pleasanton, CA (2017)
 Q-Chem 5.0.1 for Intel X86 EM64T Linux

User input:
--------------------------------------------------------------
$molecule
0  1
C        +0.22270000        +1.04488000        +0.58595000
C        +0.62626000        -0.41353000        +0.99871000
C        +1.33008000        +1.39974000        -0.43491000
C        +2.63070000        +1.71700000        +0.32855000
C        +3.04336000        +0.29351000        +0.80300000
C        +1.94423000        -0.59299000        +0.15262000
O        +1.62840000        +0.13663000        -1.04376000
H        +3.37234000        +2.13782000        -0.35195000
H        +2.48236000        +2.42488000        +1.14651000
H        +4.02182000        +0.00994000        +0.41161000
H        +3.07359000        +0.18738000        +1.88928000
H        +1.03270000        +2.19943000        -1.08064000
C        +2.35450000        -2.01267000        -0.16812000
H        +3.25743000        -2.00195000        -0.74215000
H        +1.57951000        -2.48932000        -0.73123000
H        +2.51687000        -2.55129000        +0.74206000
H        -0.74673000        +1.06811000        +0.13365000
H        +0.15552000        +1.72617000        +1.40828000
H        +0.81693000        -0.48905000        +2.04887000
H        -0.12524000        -1.15356000        +0.81843000
@C        +3.83858000        +2.82712000        +3.54383000
@C        +4.24214000        +1.36871000        +3.95659000
@C        +4.94596000        +3.18198000        +2.52297000
@C        +6.24658000        +3.49924000        +3.28643000
@C        +6.65924000        +2.07575000        +3.76088000
@C        +5.56011000        +1.18925000        +3.11050000
@O        +5.24428000        +1.91887000        +1.91412000
@H        +6.98822000        +3.92006000        +2.60593000
@H        +6.09824000        +4.20712000        +4.10439000
@H        +7.63770000        +1.79218000        +3.36949000
@H        +6.68947000        +1.96962000        +4.84716000
@H        +4.64858000        +3.98167000        +1.87724000
@C        +5.97038000        -0.23043000        +2.78976000
@H        +6.87331000        -0.21971000        +2.21573000
@H        +5.19539000        -0.70708000        +2.22665000
@H        +6.13275000        -0.76905000        +3.69994000
@H        +2.86915000        +2.85035000        +3.09153000
@H        +3.77140000        +3.50841000        +4.36616000
@H        +4.43281000        +1.29319000        +5.00675000
@H        +3.49064000        +0.62868000        +3.77631000
$end

$rem
JOBTYPE                   SP
METHOD                    B3LYP
DFT_D                     d3_op
BASIS                     6-311++G(d,p)
SYMMETRY                  False
THRESH                    12
SCF_CONVERGENCE           8
MAX_SUB_FILE_NUM          128
MEM_STATIC                400
MEM_TOTAL                 4000
$end
--------------------------------------------------------------

             Standard Nuclear Orientation (Angstroms)
    I     Atom           X                Y                Z
 ----------------------------------------------------------------
    1      C       0.2227000000     1.0448800000     0.5859500000
    2      C       0.6262600000    -0.4135300000     0.9987100000
    3      C       1.3300800000     1.3997400000    -0.4349100000
    4      C       2.6307000000     1.7170000000     0.3285500000
    5      C       3.0433600000     0.2935100000     0.8030000000
    6      C       1.9442300000    -0.5929900000     0.1526200000
    7      O       1.6284000000     0.1366300000    -1.0437600000
    8      H       3.3723400000     2.1378200000    -0.3519500000
    9      H       2.4823600000     2.4248800000     1.1465100000
   10      H       4.0218200000     0.0099400000     0.4116100000
   11      H       3.0735900000     0.1873800000     1.8892800000
   12      H       1.0327000000     2.1994300000    -1.0806400000
   13      C       2.3545000000    -2.0126700000    -0.1681200000
   14      H       3.2574300000    -2.0019500000    -0.7421500000
   15      H       1.5795100000    -2.4893200000    -0.7312300000
   16      H       2.5168700000    -2.5512900000     0.7420600000
   17      H      -0.7467300000     1.0681100000     0.1336500000
   18      H       0.1555200000     1.7261700000     1.4082800000
   19      H       0.8169300000    -0.4890500000     2.0488700000
   20      H      -0.1252400000    -1.1535600000     0.8184300000
   21      GH      3.8385800000     2.8271200000     3.5438300000
   22      GH      4.2421400000     1.3687100000     3.9565900000
   23      GH      4.9459600000     3.1819800000     2.5229700000
   24      GH      6.2465800000     3.4992400000     3.2864300000
   25      GH      6.6592400000     2.0757500000     3.7608800000
   26      GH      5.5601100000     1.1892500000     3.1105000000
   27      GH      5.2442800000     1.9188700000     1.9141200000
   28      GH      6.9882200000     3.9200600000     2.6059300000
   29      GH      6.0982400000     4.2071200000     4.1043900000
   30      GH      7.6377000000     1.7921800000     3.3694900000
   31      GH      6.6894700000     1.9696200000     4.8471600000
   32      GH      4.6485800000     3.9816700000     1.8772400000
   33      GH      5.9703800000    -0.2304300000     2.7897600000
   34      GH      6.8733100000    -0.2197100000     2.2157300000
   35      GH      5.1953900000    -0.7070800000     2.2266500000
   36      GH      6.1327500000    -0.7690500000     3.6999400000
   37      GH      2.8691500000     2.8503500000     3.0915300000
   38      GH      3.7714000000     3.5084100000     4.3661600000
   39      GH      4.4328100000     1.2931900000     5.0067500000
   40      GH      3.4906400000     0.6286800000     3.7763100000
 ----------------------------------------------------------------

   13    -349.2962671504      2.62E-09 Convergence criterion met
 Total energy in the final basis set = -349.29626715

                    Orbital Energies (a.u.)
 --------------------------------------------------------------

 Alpha MOs
 -- Occupied --
-19.119 -10.225 -10.216 -10.166 -10.166 -10.163 -10.162 -10.154
 -1.049  -0.798  -0.775  -0.748  -0.684  -0.615  -0.575  -0.556
 -0.503  -0.482  -0.464  -0.441  -0.418  -0.405  -0.392  -0.377
 -0.360  -0.348  -0.344  -0.336  -0.316  -0.301  -0.262

          Ground-State Mulliken Net Atomic Charges

     Atom                 Charge (a.u.)
  ----------------------------------------
      1 C                    -0.595550
      2 C                    -0.177963
      3 C                     0.098872
      4 C                    -0.382276
      5 C                    -0.147521
      6 C                    -0.033574
      7 O                    -0.049825
      8 H                     0.191001
      9 H                     0.084135
     10 H                     0.184651
     11 H                     0.016176
     12 H                     0.245579
     13 C                    -0.521876
     14 H                     0.145780
     15 H                     0.165248
     16 H                     0.149239
     17 H                     0.173580
     18 H                     0.115873
     19 H                     0.135283
     20 H                     0.172530
     21 GH                    0.031226
     22 GH                   -0.007908
     23 GH                   -0.038647
     24 GH                   -0.000137
     25 GH                   -0.012521
     26 GH                    0.019669
     27 GH                    0.023061
     28 GH                   -0.000831
     29 GH                    0.000508
     30 GH                   -0.000251
     31 GH                    0.000041
     32 GH                    0.002078
     33 GH                   -0.016300
     34 GH                    0.003113
     35 GH                    0.013336
     36 GH                   -0.001960
     37 GH                    0.014194
     38 GH                   -0.001749
     39 GH                   -0.000361
     40 GH                    0.004076
  ----------------------------------------
  Sum of atomic charges =    -0.000000

                    Cartesian Multipole Moments
 -----------------------------------------------------------------
    Charge (ESU x 10^10)
                -0.0000
    Dipole Moment (Debye)
         X      -0.0052      Y       0.4048      Z       1.6166
       Tot       1.6665
    Quadrupole Moments (Debye-Ang)
        XX     -49.7873     XY      -0.0658     YY     -47.6158
        XZ       2.5681     YZ      -0.6694     ZZ     -52.6474

 Total job time:  222.55s(wall), 883.99s(cpu)
        *  Thank you very much for using Q-Chem.  Have a nice day.  *
