 Q-Chem 5.0, Q-Chem, Inc., Pleasanton, CA (2017)
 Q-Chem 5.0.1 for Intel X86 EM64T Linux

User input:
--------------------------------------------------------------
$molecule
0  1
--
0  1
C        +0.20553000        +1.04146000        +0.58269000
C        +0.65000000        -0.38925000        +1.00740000
C        +1.32948000        +1.41743000        -0.40725000
C        +2.62919000        +1.72756000        +0.36622000
C        +3.06783000        +0.29650000        +0.79479000
C        +1.94651000        -0.57906000        +0.17708000
O        +1.63056000        +0.15702000        -1.03120000
H        +3.36767000        +2.18673000        -0.29348000
H        +2.46319000        +2.40269000        +1.20873000
H        +4.03298000        +0.02999000        +0.35944000
H        +3.13919000        +0.17160000        +1.87760000
H        +1.05575000        +2.14422000        -1.17046000
C        +2.32428000        -2.00466000        -0.15206000
H        +3.19961000        -2.02906000        -0.80581000
H        +1.50021000        -2.51513000        -0.65630000
H        +2.56254000        -2.55434000        +0.76296000
H        -0.76025000        +1.02051000        +0.07473000
H        +0.13481000        +1.74083000        +1.41846000
H        +0.82947000        -0.48542000        +2.08050000
H        -0.09122000        -1.13848000        +0.72072000
--
0  1
C        +0.21903000        +2.10249000        +4.12727000
C        +0.66350000        +0.67178000        +4.55198000
C        +1.34298000        +2.47846000        +3.13733000
C        +2.64269000        +2.78859000        +3.91080000
C        +3.08133000        +1.35753000        +4.33937000
C        +1.96001000        +0.48197000        +3.72166000
O        +1.64406000        +1.21805000        +2.51338000
H        +3.38117000        +3.24776000        +3.25110000
H        +2.47669000        +3.46372000        +4.75331000
H        +4.04648000        +1.09102000        +3.90402000
H        +3.15269000        +1.23263000        +5.42218000
H        +1.06925000        +3.20525000        +2.37412000
C        +2.33778000        -0.94363000        +3.39252000
H        +3.21311000        -0.96803000        +2.73877000
H        +1.51371000        -1.45410000        +2.88828000
H        +2.57604000        -1.49331000        +4.30754000
H        -0.74675000        +2.08154000        +3.61931000
H        +0.14831000        +2.80186000        +4.96304000
H        +0.84297000        +0.57561000        +5.62508000
H        -0.07772000        -0.07745000        +4.26530000
$end

$rem
JOBTYPE                   SP
METHOD                    B3LYP
DFT_D                     d3_op
BASIS                     6-311++G(d,p)
SYMMETRY                  False
THRESH                    12
SCF_CONVERGENCE           8
MAX_SUB_FILE_NUM          128
MEM_STATIC                400
MEM_TOTAL                 4000
$end
--------------------------------------------------------------

             Standard Nuclear Orientation (Angstroms)
    I     Atom           X                Y                Z
 ----------------------------------------------------------------
    1      C       1.0749704545     1.2656771379    -1.2627850126
    2      C       1.2775685200    -0.2782844198    -1.2628208210
    3      C       1.8663306050     1.6666341254     0.0011694381
    4      C       1.0770949368     1.2635027510     1.2653983323
    5      C       1.2761096999    -0.2806366764     1.2593509262
    6      C       2.1565626308    -0.4836912997    -0.0012445508
    7      O       2.9547546860     0.7264606268    -0.0005479731
    8      H       1.5200751217     1.7159772192     2.1544592417
    9      H       0.0290037114     1.5676134739     1.2184827867
   10      H       1.8137236884    -0.6151615469     2.1488092082
   11      H       0.3383673878    -0.8378241234     1.2014608536
   12      H       2.2625707465     2.6808503576     0.0018805136
   13      C       3.0444179802    -1.7064295422     0.0004111340
   14      H       3.6812895530    -1.7176448047     0.8883614981
   15      H       3.6838912173    -1.7195882938    -0.8854950629
   16      H       2.4368000109    -2.6158126026     0.0010301268
   17      H       1.5159544169     1.7219040735    -2.1508071973
   18      H       0.0264443930     1.5666156512    -1.2112067431
   19      H       0.3407254441    -0.8371851581    -1.2084445802
   20      H       1.8169715898    -0.6095174373    -2.1529147037
   21      C      -2.5941322466     0.7884982902    -1.2627240072
   22      C      -2.3915341811    -0.7554632675    -1.2627598156
   23      C      -1.8027720960     1.1894552776     0.0012304435
   24      C      -2.5920077642     0.7863239032     1.2654593377
   25      C      -2.3929930011    -0.7578155241     1.2594119315
   26      C      -1.5125400703    -0.9608701474    -0.0011835455
   27      O      -0.7143480151     0.2492817790    -0.0004869677
   28      H      -2.1490275793     1.2387983714     2.1545202471
   29      H      -3.6400989897     1.0904346261     1.2185437920
   30      H      -1.8553790126    -1.0923403946     2.1488702136
   31      H      -3.3307353133    -1.3150029712     1.2015218590
   32      H      -1.4065319545     2.2036715099     0.0019415190
   33      C      -0.6246847208    -2.1836083899     0.0004721394
   34      H       0.0121868519    -2.1948236524     0.8884225035
   35      H       0.0147885162    -2.1967671416    -0.8854340575
   36      H      -1.2323026901    -3.0929914504     0.0010911322
   37      H      -2.1531482841     1.2447252257    -2.1507461919
   38      H      -3.6426583080     1.0894368035    -1.2111457377
   39      H      -3.3283772570    -1.3143640059    -1.2083835749
   40      H      -1.8521311112    -1.0866962851    -2.1528536984
 ----------------------------------------------------------------

   13    -698.5146797635      7.86E-09 Convergence criterion met
 Total energy in the final basis set = -698.51467976

                    Orbital Energies (a.u.)
 --------------------------------------------------------------

 Alpha MOs
 -- Occupied --
-19.119 -19.098 -10.237 -10.230 -10.208 -10.199 -10.180 -10.180
-10.180 -10.180 -10.168 -10.151 -10.143 -10.143 -10.140 -10.140
 -1.068  -1.027  -0.817  -0.799  -0.776  -0.764  -0.756  -0.730
 -0.696  -0.665  -0.627  -0.597  -0.596  -0.576  -0.551  -0.536
 -0.517  -0.515  -0.489  -0.478  -0.462  -0.460  -0.437  -0.435
 -0.420  -0.418  -0.402  -0.401  -0.390  -0.388  -0.376  -0.372
 -0.363  -0.357  -0.352  -0.350  -0.329  -0.328  -0.325  -0.322
 -0.313  -0.304  -0.293  -0.282  -0.268  -0.238

          Ground-State Mulliken Net Atomic Charges

     Atom                 Charge (a.u.)
  ----------------------------------------
      1 C                    -0.222916
      2 C                     0.049327
      3 C                    -0.214950
      4 C                    -0.225114
      5 C                     0.052553
      6 C                    -0.551836
      7 O                    -0.017870
      8 H                     0.197587
      9 H                     0.079050
     10 H                     0.210868
     11 H                    -0.047008
     12 H                     0.222442
     13 C                    -0.489313
     14 H                     0.152667
     15 H                     0.152517
     16 H                     0.130818
     17 H                     0.197744
     18 H                     0.078117
     19 H                    -0.045771
     20 H                     0.210781
     21 C                    -0.657835
     22 C                    -0.317849
     23 C                     0.401207
     24 C                    -0.661789
     25 C                    -0.311953
     26 C                     0.040611
     27 O                    -0.064088
     28 H                     0.156195
     29 H                     0.153503
     30 H                     0.180780
     31 H                     0.152703
     32 H                     0.265902
     33 C                    -0.523060
     34 H                     0.222233
     35 H                     0.222173
     36 H                     0.178141
     37 H                     0.156733
     38 H                     0.153225
     39 H                     0.152571
     40 H                     0.180908
  ----------------------------------------
  Sum of atomic charges =     0.000000

                    Cartesian Multipole Moments
 -----------------------------------------------------------------
    Charge (ESU x 10^10)
                 0.0000
    Dipole Moment (Debye)
         X      -4.5034      Y      -0.8970      Z       0.0050
       Tot       4.5918
    Quadrupole Moments (Debye-Ang)
        XX    -107.4074     XY      -3.0460     YY     -97.6994
        XZ      -0.0031     YZ       0.0078     ZZ    -101.8129

 Total job time:  289.40s(wall), 1144.05s(cpu)
        *  Thank you very much for using Q-Chem.  Have a nice day.  *
