 Q-Chem 5.0, Q-Chem, Inc., Pleasanton, CA (2017)
 Q-Chem 5.0.1 for Intel X86 EM64T Linux

User input:
--------------------------------------------------------------
$molecule
0  1
C        +0.20186000        +1.01419000        +0.57588000
C        +0.65458000        -0.40740000        +1.00877000
C        +1.31047000        +1.40432000        -0.43622000
C        +2.61036000        +1.71622000        +0.34904000
C        +3.06420000        +0.29616000        +0.78527000
C        +1.94960000        -0.59295000        +0.17632000
O        +1.62620000        +0.12693000        -1.03574000
H        +3.34518000        +2.18171000        -0.31153000
H        +2.43386000        +2.39558000        +1.18603000
H        +4.02983000        +0.03650000        +0.34656000
H        +3.14253000        +0.17627000        +1.86830000
C        +0.91819000        +2.41036000        -1.49368000
C        +2.33867000        -2.01935000        -0.13734000
H        +3.21332000        -2.04461000        -0.79203000
H        +2.58239000        -2.55643000        +0.78377000
H        +1.51806000        -2.54232000        -0.63447000
H        +1.73500000        +2.55908000        -2.20400000
H        +0.68341000        +3.37378000        -1.03196000
H        +0.03753000        +2.06800000        -2.04235000
H        +0.83643000        -0.49892000        +2.08202000
H        -0.08220000        -1.16297000        +0.72684000
H        -0.76801000        +0.98583000        +0.07445000
H        +0.13288000        +1.72189000        +1.40479000
@C        +0.21559000        +2.10035000        +4.11284000
@C        +0.66831000        +0.67876000        +4.54573000
@C        +1.32420000        +2.49048000        +3.10074000
@C        +2.62409000        +2.80238000        +3.88600000
@C        +3.07793000        +1.38232000        +4.32223000
@C        +1.96333000        +0.49321000        +3.71328000
@O        +1.63993000        +1.21309000        +2.50122000
@H        +3.35891000        +3.26787000        +3.22543000
@H        +2.44759000        +3.48174000        +4.72299000
@H        +4.04356000        +1.12266000        +3.88352000
@H        +3.15626000        +1.26243000        +5.40526000
@C        +0.93192000        +3.49652000        +2.04328000
@C        +2.35240000        -0.93319000        +3.39962000
@H        +3.22705000        -0.95845000        +2.74493000
@H        +2.59612000        -1.47027000        +4.32073000
@H        +1.53179000        -1.45616000        +2.90249000
@H        +1.74873000        +3.64524000        +1.33296000
@H        +0.69714000        +4.45994000        +2.50500000
@H        +0.05126000        +3.15416000        +1.49461000
@H        +0.85016000        +0.58724000        +5.61898000
@H        -0.06847000        -0.07681000        +4.26380000
@H        -0.75428000        +2.07199000        +3.61141000
@H        +0.14661000        +2.80805000        +4.94175000
$end

$rem
JOBTYPE                   SP
METHOD                    B3LYP
DFT_D                     d3_op
BASIS                     6-311++G(d,p)
SYMMETRY                  False
THRESH                    12
SCF_CONVERGENCE           8
MAX_SUB_FILE_NUM          128
MEM_STATIC                400
MEM_TOTAL                 4000
$end
--------------------------------------------------------------

             Standard Nuclear Orientation (Angstroms)
    I     Atom           X                Y                Z
 ----------------------------------------------------------------
    1      C       0.2018600000     1.0141900000     0.5758800000
    2      C       0.6545800000    -0.4074000000     1.0087700000
    3      C       1.3104700000     1.4043200000    -0.4362200000
    4      C       2.6103600000     1.7162200000     0.3490400000
    5      C       3.0642000000     0.2961600000     0.7852700000
    6      C       1.9496000000    -0.5929500000     0.1763200000
    7      O       1.6262000000     0.1269300000    -1.0357400000
    8      H       3.3451800000     2.1817100000    -0.3115300000
    9      H       2.4338600000     2.3955800000     1.1860300000
   10      H       4.0298300000     0.0365000000     0.3465600000
   11      H       3.1425300000     0.1762700000     1.8683000000
   12      C       0.9181900000     2.4103600000    -1.4936800000
   13      C       2.3386700000    -2.0193500000    -0.1373400000
   14      H       3.2133200000    -2.0446100000    -0.7920300000
   15      H       2.5823900000    -2.5564300000     0.7837700000
   16      H       1.5180600000    -2.5423200000    -0.6344700000
   17      H       1.7350000000     2.5590800000    -2.2040000000
   18      H       0.6834100000     3.3737800000    -1.0319600000
   19      H       0.0375300000     2.0680000000    -2.0423500000
   20      H       0.8364300000    -0.4989200000     2.0820200000
   21      H      -0.0822000000    -1.1629700000     0.7268400000
   22      H      -0.7680100000     0.9858300000     0.0744500000
   23      H       0.1328800000     1.7218900000     1.4047900000
   24      GH      0.2155900000     2.1003500000     4.1128400000
   25      GH      0.6683100000     0.6787600000     4.5457300000
   26      GH      1.3242000000     2.4904800000     3.1007400000
   27      GH      2.6240900000     2.8023800000     3.8860000000
   28      GH      3.0779300000     1.3823200000     4.3222300000
   29      GH      1.9633300000     0.4932100000     3.7132800000
   30      GH      1.6399300000     1.2130900000     2.5012200000
   31      GH      3.3589100000     3.2678700000     3.2254300000
   32      GH      2.4475900000     3.4817400000     4.7229900000
   33      GH      4.0435600000     1.1226600000     3.8835200000
   34      GH      3.1562600000     1.2624300000     5.4052600000
   35      GH      0.9319200000     3.4965200000     2.0432800000
   36      GH      2.3524000000    -0.9331900000     3.3996200000
   37      GH      3.2270500000    -0.9584500000     2.7449300000
   38      GH      2.5961200000    -1.4702700000     4.3207300000
   39      GH      1.5317900000    -1.4561600000     2.9024900000
   40      GH      1.7487300000     3.6452400000     1.3329600000
   41      GH      0.6971400000     4.4599400000     2.5050000000
   42      GH      0.0512600000     3.1541600000     1.4946100000
   43      GH      0.8501600000     0.5872400000     5.6189800000
   44      GH     -0.0684700000    -0.0768100000     4.2638000000
   45      GH     -0.7542800000     2.0719900000     3.6114100000
   46      GH      0.1466100000     2.8080500000     4.9417500000
 ----------------------------------------------------------------

   12    -388.6389275412      3.28E-09 Convergence criterion met
 Total energy in the final basis set = -388.63892754

                    Orbital Energies (a.u.)
 --------------------------------------------------------------

 Alpha MOs
 -- Occupied --
-19.113 -10.223 -10.223 -10.166 -10.166 -10.166 -10.166 -10.160
-10.160  -1.043  -0.799  -0.788  -0.749  -0.716  -0.650  -0.613
 -0.557  -0.553  -0.484  -0.475  -0.466  -0.440  -0.417  -0.408
 -0.404  -0.402  -0.383  -0.359  -0.344  -0.343  -0.341  -0.335
 -0.317  -0.298  -0.260

          Ground-State Mulliken Net Atomic Charges

     Atom                 Charge (a.u.)
  ----------------------------------------
      1 C                    -0.114781
      2 C                    -0.116241
      3 C                    -0.691272
      4 C                    -0.116707
      5 C                    -0.110018
      6 C                    -0.688736
      7 O                     0.119485
      8 H                     0.227334
      9 H                     0.067965
     10 H                     0.227483
     11 H                     0.064447
     12 C                    -0.183319
     13 C                    -0.184574
     14 H                     0.148807
     15 H                     0.147885
     16 H                     0.148716
     17 H                     0.148905
     18 H                     0.147674
     19 H                     0.148659
     20 H                     0.066859
     21 H                     0.227878
     22 H                     0.227325
     23 H                     0.065840
     24 GH                   -0.017273
     25 GH                   -0.017642
     26 GH                   -0.001324
     27 GH                   -0.019036
     28 GH                   -0.016778
     29 GH                   -0.004049
     30 GH                   -0.077878
     31 GH                    0.004636
     32 GH                   -0.000068
     33 GH                    0.004646
     34 GH                   -0.000009
     35 GH                    0.033669
     36 GH                    0.033489
     37 GH                    0.026014
     38 GH                   -0.007587
     39 GH                    0.025835
     40 GH                    0.026212
     41 GH                   -0.007579
     42 GH                    0.025860
     43 GH                   -0.000067
     44 GH                    0.004711
     45 GH                    0.004595
     46 GH                    0.000005
  ----------------------------------------
  Sum of atomic charges =     0.000000

                    Cartesian Multipole Moments
 -----------------------------------------------------------------
    Charge (ESU x 10^10)
                 0.0000
    Dipole Moment (Debye)
         X       0.0081      Y       0.4549      Z       1.4763
       Tot       1.5448
    Quadrupole Moments (Debye-Ang)
        XX     -56.6126     XY       0.1793     YY     -54.8891
        XZ       2.5669     YZ      -0.6397     ZZ     -59.1374

 Total job time:  405.62s(wall), 1600.76s(cpu)
        *  Thank you very much for using Q-Chem.  Have a nice day.  *
