 Q-Chem 5.0, Q-Chem, Inc., Pleasanton, CA (2017)
 Q-Chem 5.0.1 for Intel X86 EM64T Linux

User input:
--------------------------------------------------------------
$molecule
0  1
--
0  1
C        +0.20186000        +1.01419000        +0.57588000
C        +0.65458000        -0.40740000        +1.00877000
C        +1.31047000        +1.40432000        -0.43622000
C        +2.61036000        +1.71622000        +0.34904000
C        +3.06420000        +0.29616000        +0.78527000
C        +1.94960000        -0.59295000        +0.17632000
O        +1.62620000        +0.12693000        -1.03574000
H        +3.34518000        +2.18171000        -0.31153000
H        +2.43386000        +2.39558000        +1.18603000
H        +4.02983000        +0.03650000        +0.34656000
H        +3.14253000        +0.17627000        +1.86830000
C        +0.91819000        +2.41036000        -1.49368000
C        +2.33867000        -2.01935000        -0.13734000
H        +3.21332000        -2.04461000        -0.79203000
H        +2.58239000        -2.55643000        +0.78377000
H        +1.51806000        -2.54232000        -0.63447000
H        +1.73500000        +2.55908000        -2.20400000
H        +0.68341000        +3.37378000        -1.03196000
H        +0.03753000        +2.06800000        -2.04235000
H        +0.83643000        -0.49892000        +2.08202000
H        -0.08220000        -1.16297000        +0.72684000
H        -0.76801000        +0.98583000        +0.07445000
H        +0.13288000        +1.72189000        +1.40479000
--
0  1
C        +0.21559000        +2.10035000        +4.11284000
C        +0.66831000        +0.67876000        +4.54573000
C        +1.32420000        +2.49048000        +3.10074000
C        +2.62409000        +2.80238000        +3.88600000
C        +3.07793000        +1.38232000        +4.32223000
C        +1.96333000        +0.49321000        +3.71328000
O        +1.63993000        +1.21309000        +2.50122000
H        +3.35891000        +3.26787000        +3.22543000
H        +2.44759000        +3.48174000        +4.72299000
H        +4.04356000        +1.12266000        +3.88352000
H        +3.15626000        +1.26243000        +5.40526000
C        +0.93192000        +3.49652000        +2.04328000
C        +2.35240000        -0.93319000        +3.39962000
H        +3.22705000        -0.95845000        +2.74493000
H        +2.59612000        -1.47027000        +4.32073000
H        +1.53179000        -1.45616000        +2.90249000
H        +1.74873000        +3.64524000        +1.33296000
H        +0.69714000        +4.45994000        +2.50500000
H        +0.05126000        +3.15416000        +1.49461000
H        +0.85016000        +0.58724000        +5.61898000
H        -0.06847000        -0.07681000        +4.26380000
H        -0.75428000        +2.07199000        +3.61141000
H        +0.14661000        +2.80805000        +4.94175000
$end

$rem
JOBTYPE                   SP
METHOD                    B3LYP
DFT_D                     d3_op
BASIS                     6-311++G(d,p)
SYMMETRY                  False
THRESH                    12
SCF_CONVERGENCE           8
MAX_SUB_FILE_NUM          128
MEM_STATIC                400
MEM_TOTAL                 4000
$end
--------------------------------------------------------------

             Standard Nuclear Orientation (Angstroms)
    I     Atom           X                Y                Z
 ----------------------------------------------------------------
    1      C       1.1101473444     0.7769260132    -1.2591382711
    2      C       1.1117548179    -0.7765407855    -1.2615046886
    3      C       1.9591587364     1.0918525671     0.0000538830
    4      C       1.1121796755     0.7768370676     1.2598239394
    5      C       1.1101411497    -0.7764923388     1.2586569851
    6      C       1.9572482793    -1.0928157417    -0.0007154262
    7      O       2.9059238975    -0.0010654215    -0.0008816731
    8      H       1.6043963067     1.1718915962     2.1512547022
    9      H       0.1133526262     1.2157740330     1.2058481507
   10      H       1.6021803981    -1.1741140369     2.1486712770
   11      H       0.1096743561    -1.2117808846     1.2034006841
   12      C       2.6763313643     2.4222228739     0.0000534487
   13      C       2.6741880849    -2.4233674885     0.0013785836
   14      H       3.3042595244    -2.5196424796     0.8890783039
   15      H       1.9503128282    -3.2433075452     0.0023341276
   16      H       3.3058902501    -2.5222607397    -0.8847416843
   17      H       3.3087494603     2.5175215028     0.8859519983
   18      H       1.9531240460     3.2428610172     0.0031056329
   19      H       3.3045330522     2.5204696453    -0.8884967105
   20      H       0.1119335274    -1.2134742886    -1.2089937723
   21      H       1.6056685740    -1.1728227055    -2.1515750003
   22      H       1.6013863214     1.1752120689    -2.1496081677
   23      H       0.1103347485     1.2125438729    -1.2016824456
   24      C      -2.5898550532     0.7774379936    -1.2588281121
   25      C      -2.5882475796    -0.7760288052    -1.2611945296
   26      C      -1.7408436612     1.0923645474     0.0003640420
   27      C      -2.5878227220     0.7773490479     1.2601340985
   28      C      -2.5898612479    -0.7759803585     1.2589671441
   29      C      -1.7427541183    -1.0923037614    -0.0004052672
   30      O      -0.7940785000    -0.0005534412    -0.0005715141
   31      H      -2.0956060908     1.1724035765     2.1515648612
   32      H      -3.5866497713     1.2162860133     1.2061583098
   33      H      -2.0978219995    -1.1736020565     2.1489814361
   34      H      -3.5903280414    -1.2112689043     1.2037108431
   35      C      -1.0236710332     2.4227348543     0.0003636077
   36      C      -1.0258143127    -2.4228555082     0.0016887426
   37      H      -0.3957428732    -2.5191304993     0.8893884630
   38      H      -1.7496895693    -3.2427955649     0.0026442867
   39      H      -0.3941121475    -2.5217487594    -0.8844315253
   40      H      -0.3912529373     2.5180334831     0.8862621573
   41      H      -1.7468783515     3.2433729975     0.0034157919
   42      H      -0.3954693454     2.5209816256    -0.8881865515
   43      H      -3.5880688701    -1.2129623083    -1.2086836132
   44      H      -2.0943338236    -1.1723107252    -2.1512648412
   45      H      -2.0986160761     1.1757240493    -2.1492980086
   46      H      -3.5896676491     1.2130558532    -1.2013722866
 ----------------------------------------------------------------

   13    -777.1549649394      6.29E-09 Convergence criterion met
 Total energy in the final basis set = -777.15496494

                    Orbital Energies (a.u.)
 --------------------------------------------------------------

 Alpha MOs
 -- Occupied --
-19.116 -19.096 -10.236 -10.235 -10.205 -10.205 -10.178 -10.178
-10.178 -10.178 -10.166 -10.166 -10.149 -10.149 -10.138 -10.137
-10.137 -10.137  -1.067  -1.025  -0.817  -0.812  -0.782  -0.773
 -0.764  -0.732  -0.730  -0.703  -0.669  -0.634  -0.628  -0.599
 -0.578  -0.575  -0.543  -0.533  -0.522  -0.493  -0.485  -0.465
 -0.460  -0.456  -0.456  -0.452  -0.431  -0.425  -0.417  -0.406
 -0.397  -0.397  -0.393  -0.389  -0.382  -0.375  -0.363  -0.360
 -0.359  -0.350  -0.348  -0.344  -0.322  -0.319  -0.315  -0.311
 -0.304  -0.299  -0.291  -0.278  -0.265  -0.236

          Ground-State Mulliken Net Atomic Charges

     Atom                 Charge (a.u.)
  ----------------------------------------
      1 C                     0.006180
      2 C                     0.001999
      3 C                    -0.759447
      4 C                     0.000609
      5 C                     0.006793
      6 C                    -0.758222
      7 O                     0.114465
      8 H                     0.213581
      9 H                    -0.036636
     10 H                     0.214024
     11 H                    -0.042470
     12 C                    -0.205510
     13 C                    -0.205064
     14 H                     0.147886
     15 H                     0.134943
     16 H                     0.147711
     17 H                     0.147959
     18 H                     0.135024
     19 H                     0.147649
     20 H                    -0.039228
     21 H                     0.213714
     22 H                     0.213816
     23 H                    -0.041683
     24 C                    -0.367121
     25 C                    -0.373362
     26 C                     0.212597
     27 C                    -0.372149
     28 C                    -0.368616
     29 C                     0.216366
     30 O                    -0.025936
     31 H                     0.173160
     32 H                     0.157471
     33 H                     0.173366
     34 H                     0.157531
     35 C                    -0.653004
     36 C                    -0.656629
     37 H                     0.237865
     38 H                     0.177635
     39 H                     0.237560
     40 H                     0.237629
     41 H                     0.177811
     42 H                     0.238084
     43 H                     0.157390
     44 H                     0.173531
     45 H                     0.173230
     46 H                     0.157499
  ----------------------------------------
  Sum of atomic charges =     0.000000

                    Cartesian Multipole Moments
 -----------------------------------------------------------------
    Charge (ESU x 10^10)
                 0.0000
    Dipole Moment (Debye)
         X      -4.4650      Y       0.0031      Z       0.0057
       Tot       4.4650
    Quadrupole Moments (Debye-Ang)
        XX    -120.5832     XY      -0.0021     YY    -110.5577
        XZ      -0.0008     YZ       0.0057     ZZ    -115.2673

 Total job time:  448.77s(wall), 1762.15s(cpu)
        *  Thank you very much for using Q-Chem.  Have a nice day.  *
