 Q-Chem 5.0, Q-Chem, Inc., Pleasanton, CA (2017)
 Q-Chem 5.0.1 for Intel X86 EM64T Linux

User input:
--------------------------------------------------------------
$molecule
0  1
--
0  1
C        +0.22270000        +1.04488000        +0.58595000
C        +0.62626000        -0.41353000        +0.99871000
C        +1.33008000        +1.39974000        -0.43491000
C        +2.63070000        +1.71700000        +0.32855000
C        +3.04336000        +0.29351000        +0.80300000
C        +1.94423000        -0.59299000        +0.15262000
O        +1.62840000        +0.13663000        -1.04376000
H        +3.37234000        +2.13782000        -0.35195000
H        +2.48236000        +2.42488000        +1.14651000
H        +4.02182000        +0.00994000        +0.41161000
H        +3.07359000        +0.18738000        +1.88928000
C        +0.90028000        +2.39077000        -1.49430000
C        +2.35450000        -2.01267000        -0.16812000
H        +3.26311000        -2.00678000        -0.77366000
H        +2.54990000        -2.57059000        +0.75079000
H        +1.57335000        -2.52896000        -0.72872000
H        +1.71845000        +2.58186000        -2.15686000
H        +0.59919000        +3.30478000        -1.02650000
H        +0.07925000        +1.98653000        -2.04874000
H        +0.81693000        -0.48905000        +2.04887000
H        -0.12524000        -1.15356000        +0.81843000
H        -0.74673000        +1.06811000        +0.13365000
H        +0.15552000        +1.72617000        +1.40828000
--
0  1
C        +2.99982000        +2.52924000        +2.52871000
C        +3.40338000        +1.07083000        +2.94147000
C        +4.10720000        +2.88410000        +1.50785000
C        +5.40782000        +3.20136000        +2.27131000
C        +5.82048000        +1.77787000        +2.74576000
C        +4.72135000        +0.89137000        +2.09538000
O        +4.40552000        +1.62099000        +0.89900000
H        +6.14946000        +3.62218000        +1.59081000
H        +5.25948000        +3.90924000        +3.08927000
H        +6.79894000        +1.49430000        +2.35437000
H        +5.85071000        +1.67174000        +3.83204000
C        +3.67740000        +3.87513000        +0.44846000
C        +5.13162000        -0.52831000        +1.77464000
H        +6.04023000        -0.52242000        +1.16910000
H        +5.32702000        -1.08623000        +2.69355000
H        +4.35047000        -1.04460000        +1.21404000
H        +4.49557000        +4.06622000        -0.21410000
H        +3.37631000        +4.78914000        +0.91626000
H        +2.85637000        +3.47089000        -0.10598000
H        +3.59405000        +0.99531000        +3.99163000
H        +2.65188000        +0.33080000        +2.76119000
H        +2.03039000        +2.55247000        +2.07641000
H        +2.93264000        +3.21053000        +3.35104000
$end

$rem
JOBTYPE                   SP
METHOD                    B3LYP
DFT_D                     d3_op
BASIS                     6-311++G(d,p)
SYMMETRY                  False
THRESH                    12
SCF_CONVERGENCE           8
MAX_SUB_FILE_NUM          128
MEM_STATIC                400
MEM_TOTAL                 4000
$end
--------------------------------------------------------------

             Standard Nuclear Orientation (Angstroms)
    I     Atom           X                Y                Z
 ----------------------------------------------------------------
    1      C       2.3770888758    -0.8060327930     1.2908842171
    2      C       2.4430156780     0.7609053124     1.3143330961
    3      C       1.8988775319    -1.0782630096    -0.1553439265
    4      C       0.3912562640    -0.7726338673    -0.2491863670
    5      C       0.4052658062     0.7818700537    -0.1782205261
    6      C       1.9290210581     1.0878831248    -0.1396318765
    7      O       2.4806188218     0.0004646826    -0.8990264224
    8      H      -0.0038027038    -1.1216411040    -1.2043418374
    9      H      -0.1886835143    -1.2417560057     0.5481540148
   10      H      -0.0351697121     1.2266086903    -1.0722038302
   11      H      -0.1211392756     1.1837379073     0.6898702447
   12      C       2.3646152968    -2.4015227067    -0.7221311719
   13      C       2.3427577143     2.4216825976    -0.7197076203
   14      H       1.9477956250     2.5224764889    -1.7326888912
   15      H       1.9542777461     3.2405554192    -0.1094764422
   16      H       3.4296539868     2.5083265270    -0.7663162987
   17      H       1.9936491533    -2.5126560659    -1.7195963529
   18      H       1.9953325339    -3.2001201984    -0.1132152536
   19      H       3.4342287162    -2.4276028664    -0.7344157301
   20      H       1.7994897089     1.1727981589     2.0634078287
   21      H       3.4055410925     1.1646234385     1.5498198909
   22      H       3.3383988590    -1.2396271400     1.4719601855
   23      H       1.7433409791    -1.2254290484     2.0441213841
   24      C      -1.3214612133    -0.8065283339     1.3946315747
   25      C      -1.2555344111     0.7604097715     1.4180804537
   26      C      -1.7996725573    -1.0787585506    -0.0515965689
   27      C      -3.3072938251    -0.7731294082    -0.1454390094
   28      C      -3.2932842830     0.7813745128    -0.0744731684
   29      C      -1.7695290310     1.0873875838    -0.0358845188
   30      O      -1.2179312674    -0.0000308584    -0.7952790648
   31      H      -3.7023527930    -1.1221366449    -1.1005944798
   32      H      -3.8872336034    -1.2422515466     0.6519013724
   33      H      -3.7337198013     1.2261131493    -0.9684564725
   34      H      -3.8196893647     1.1832423663     0.7936176024
   35      C      -1.3339347924    -2.4020182476    -0.6183838142
   36      C      -1.3557923748     2.4211870566    -0.6159602627
   37      H      -1.7507544642     2.5219809479    -1.6289415336
   38      H      -1.7442723430     3.2400598783    -0.0057290846
   39      H      -0.2688961023     2.5078309860    -0.6625689411
   40      H      -1.7049009358    -2.5131516069    -1.6158489953
   41      H      -1.7032175552    -3.2006157393    -0.0094678959
   42      H      -0.2643213729    -2.4280984073    -0.6306683725
   43      H      -1.8990603802     1.1723026179     2.1671551864
   44      H      -0.2930089967     1.1641278975     1.6535672485
   45      H      -0.3601512302    -1.2401226810     1.5757075431
   46      H      -1.9552091100    -1.2259245894     2.1478687417
 ----------------------------------------------------------------

   14    -776.7796036170      5.30E-09 Convergence criterion met
 Total energy in the final basis set = -776.77960362

                    Orbital Energies (a.u.)
 --------------------------------------------------------------

 Alpha MOs
 -- Occupied --
-19.128 -19.087 -10.243 -10.240 -10.190 -10.190 -10.187 -10.186
-10.181 -10.181 -10.165 -10.155 -10.149 -10.147 -10.145 -10.136
-10.104 -10.096  -1.103  -1.020  -0.848  -0.846  -0.814  -0.769
 -0.765  -0.750  -0.713  -0.702  -0.700  -0.670  -0.630  -0.614
 -0.589  -0.578  -0.569  -0.550  -0.546  -0.497  -0.493  -0.476
 -0.467  -0.463  -0.458  -0.443  -0.441  -0.434  -0.423  -0.411
 -0.410  -0.395  -0.387  -0.386  -0.379  -0.377  -0.373  -0.362
 -0.355  -0.350  -0.345  -0.341  -0.332  -0.328  -0.327  -0.320
 -0.284  -0.277  -0.255  -0.246  -0.231  -0.197

          Ground-State Mulliken Net Atomic Charges

     Atom                 Charge (a.u.)
  ----------------------------------------
      1 C                    -0.246746
      2 C                    -0.300027
      3 C                    -0.208207
      4 C                    -0.467546
      5 C                    -0.510245
      6 C                    -0.183250
      7 O                     0.118131
      8 H                     0.152080
      9 H                     0.125874
     10 H                     0.162236
     11 H                     0.200526
     12 C                    -0.320125
     13 C                    -0.421451
     14 H                     0.154572
     15 H                     0.150834
     16 H                     0.164329
     17 H                     0.147332
     18 H                     0.145880
     19 H                     0.161702
     20 H                     0.107156
     21 H                     0.174097
     22 H                     0.162580
     23 H                     0.120425
     24 C                    -0.352506
     25 C                    -0.323772
     26 C                    -0.023189
     27 C                    -0.392718
     28 C                    -0.438855
     29 C                     0.056868
     30 O                     0.349423
     31 H                     0.158686
     32 H                     0.140409
     33 H                     0.168202
     34 H                     0.134603
     35 C                    -0.393838
     36 C                    -0.407738
     37 H                     0.171102
     38 H                     0.155962
     39 H                     0.192907
     40 H                     0.172446
     41 H                     0.152277
     42 H                     0.188777
     43 H                     0.204528
     44 H                     0.136475
     45 H                     0.147140
     46 H                     0.212651
  ----------------------------------------
  Sum of atomic charges =     0.000000

                    Cartesian Multipole Moments
 -----------------------------------------------------------------
    Charge (ESU x 10^10)
                 0.0000
    Dipole Moment (Debye)
         X      -3.9972      Y       0.0690      Z       2.4222
       Tot       4.6743
    Quadrupole Moments (Debye-Ang)
        XX    -119.1131     XY       0.1640     YY    -111.4701
        XZ       3.3968     YZ      -0.2681     ZZ    -116.4680

 Total job time:  465.34s(wall), 1844.24s(cpu)
        *  Thank you very much for using Q-Chem.  Have a nice day.  *
