 Q-Chem 5.0, Q-Chem, Inc., Pleasanton, CA (2017)
 Q-Chem 5.0.1 for Intel X86 EM64T Linux

User input:
--------------------------------------------------------------
$molecule
0  1
C        +6.22728000        +4.25430000        +4.78650000
C        +6.63084000        +2.79589000        +5.19926000
C        +7.33466000        +4.60916000        +3.76564000
C        +8.63528000        +4.92642000        +4.52910000
C        +9.04794000        +3.50293000        +5.00355000
C        +7.94881000        +2.61643000        +4.35317000
O        +7.63298000        +3.34605000        +3.15679000
H        +9.37692000        +5.34724000        +3.84860000
H        +8.48694000        +5.63430000        +5.34706000
H       +10.02640000        +3.21936000        +4.61216000
H        +9.07817000        +3.39680000        +6.08983000
C        +6.90486000        +5.60019000        +2.70625000
C        +8.35908000        +1.19675000        +4.03243000
H        +9.26769000        +1.20264000        +3.42689000
H        +8.55448000        +0.63883000        +4.95134000
H        +7.57793000        +0.68046000        +3.47183000
H        +7.72303000        +5.79128000        +2.04369000
H        +6.60377000        +6.51420000        +3.17405000
H        +6.08383000        +5.19595000        +2.15181000
H        +6.82151000        +2.72037000        +6.24942000
H        +5.87934000        +2.05586000        +5.01898000
H        +5.25785000        +4.27753000        +4.33420000
H        +6.16010000        +4.93559000        +5.60883000
@C        +0.22270000        +1.04488000        +0.58595000
@C        +0.62626000        -0.41353000        +0.99871000
@C        +1.33008000        +1.39974000        -0.43491000
@C        +2.63070000        +1.71700000        +0.32855000
@C        +3.04336000        +0.29351000        +0.80300000
@C        +1.94423000        -0.59299000        +0.15262000
@O        +1.62840000        +0.13663000        -1.04376000
@H        +3.37234000        +2.13782000        -0.35195000
@H        +2.48236000        +2.42488000        +1.14651000
@H        +4.02182000        +0.00994000        +0.41161000
@H        +3.07359000        +0.18738000        +1.88928000
@C        +0.90028000        +2.39077000        -1.49430000
@C        +2.35450000        -2.01267000        -0.16812000
@H        +3.26311000        -2.00678000        -0.77366000
@H        +2.54990000        -2.57059000        +0.75079000
@H        +1.57335000        -2.52896000        -0.72872000
@H        +1.71845000        +2.58186000        -2.15686000
@H        +0.59919000        +3.30478000        -1.02650000
@H        +0.07925000        +1.98653000        -2.04874000
@H        +0.81693000        -0.48905000        +2.04887000
@H        -0.12524000        -1.15356000        +0.81843000
@H        -0.74673000        +1.06811000        +0.13365000
@H        +0.15552000        +1.72617000        +1.40828000
$end

$rem
JOBTYPE                   SP
METHOD                    B3LYP
DFT_D                     d3_op
BASIS                     6-311++G(d,p)
SYMMETRY                  False
THRESH                    12
SCF_CONVERGENCE           8
MAX_SUB_FILE_NUM          128
MEM_STATIC                400
MEM_TOTAL                 4000
$end
--------------------------------------------------------------

             Standard Nuclear Orientation (Angstroms)
    I     Atom           X                Y                Z
 ----------------------------------------------------------------
    1      C       6.2272800000     4.2543000000     4.7865000000
    2      C       6.6308400000     2.7958900000     5.1992600000
    3      C       7.3346600000     4.6091600000     3.7656400000
    4      C       8.6352800000     4.9264200000     4.5291000000
    5      C       9.0479400000     3.5029300000     5.0035500000
    6      C       7.9488100000     2.6164300000     4.3531700000
    7      O       7.6329800000     3.3460500000     3.1567900000
    8      H       9.3769200000     5.3472400000     3.8486000000
    9      H       8.4869400000     5.6343000000     5.3470600000
   10      H      10.0264000000     3.2193600000     4.6121600000
   11      H       9.0781700000     3.3968000000     6.0898300000
   12      C       6.9048600000     5.6001900000     2.7062500000
   13      C       8.3590800000     1.1967500000     4.0324300000
   14      H       9.2676900000     1.2026400000     3.4268900000
   15      H       8.5544800000     0.6388300000     4.9513400000
   16      H       7.5779300000     0.6804600000     3.4718300000
   17      H       7.7230300000     5.7912800000     2.0436900000
   18      H       6.6037700000     6.5142000000     3.1740500000
   19      H       6.0838300000     5.1959500000     2.1518100000
   20      H       6.8215100000     2.7203700000     6.2494200000
   21      H       5.8793400000     2.0558600000     5.0189800000
   22      H       5.2578500000     4.2775300000     4.3342000000
   23      H       6.1601000000     4.9355900000     5.6088300000
   24      GH      0.2227000000     1.0448800000     0.5859500000
   25      GH      0.6262600000    -0.4135300000     0.9987100000
   26      GH      1.3300800000     1.3997400000    -0.4349100000
   27      GH      2.6307000000     1.7170000000     0.3285500000
   28      GH      3.0433600000     0.2935100000     0.8030000000
   29      GH      1.9442300000    -0.5929900000     0.1526200000
   30      GH      1.6284000000     0.1366300000    -1.0437600000
   31      GH      3.3723400000     2.1378200000    -0.3519500000
   32      GH      2.4823600000     2.4248800000     1.1465100000
   33      GH      4.0218200000     0.0099400000     0.4116100000
   34      GH      3.0735900000     0.1873800000     1.8892800000
   35      GH      0.9002800000     2.3907700000    -1.4943000000
   36      GH      2.3545000000    -2.0126700000    -0.1681200000
   37      GH      3.2631100000    -2.0067800000    -0.7736600000
   38      GH      2.5499000000    -2.5705900000     0.7507900000
   39      GH      1.5733500000    -2.5289600000    -0.7287200000
   40      GH      1.7184500000     2.5818600000    -2.1568600000
   41      GH      0.5991900000     3.3047800000    -1.0265000000
   42      GH      0.0792500000     1.9865300000    -2.0487400000
   43      GH      0.8169300000    -0.4890500000     2.0488700000
   44      GH     -0.1252400000    -1.1535600000     0.8184300000
   45      GH     -0.7467300000     1.0681100000     0.1336500000
   46      GH      0.1555200000     1.7261700000     1.4082800000
 ----------------------------------------------------------------

   12    -388.6328732323      6.90E-09 Convergence criterion met
 Total energy in the final basis set = -388.63287323

                    Orbital Energies (a.u.)
 --------------------------------------------------------------

 Alpha MOs
 -- Occupied --
-19.115 -10.224 -10.221 -10.166 -10.166 -10.162 -10.161 -10.160
-10.151  -1.049  -0.799  -0.789  -0.749  -0.717  -0.652  -0.616
 -0.562  -0.556  -0.486  -0.474  -0.464  -0.444  -0.420  -0.410
 -0.407  -0.402  -0.384  -0.360  -0.346  -0.343  -0.340  -0.333
 -0.316  -0.299  -0.261

          Ground-State Mulliken Net Atomic Charges

     Atom                 Charge (a.u.)
  ----------------------------------------
      1 C                    -0.436145
      2 C                    -0.531968
      3 C                    -0.000154
      4 C                    -0.569637
      5 C                    -0.476431
      6 C                    -0.002941
      7 O                     0.001441
      8 H                     0.153385
      9 H                     0.141712
     10 H                     0.152948
     11 H                     0.141659
     12 C                     0.002774
     13 C                    -0.040188
     14 H                     0.151738
     15 H                     0.143524
     16 H                     0.146007
     17 H                     0.146315
     18 H                     0.140492
     19 H                     0.143593
     20 H                     0.137942
     21 H                     0.160755
     22 H                     0.140948
     23 H                     0.150534
     24 GH                   -0.000099
     25 GH                   -0.000010
     26 GH                    0.000261
     27 GH                    0.001744
     28 GH                   -0.000677
     29 GH                    0.000224
     30 GH                   -0.000001
     31 GH                    0.000521
     32 GH                   -0.000080
     33 GH                    0.000712
     34 GH                   -0.000873
     35 GH                   -0.000033
     36 GH                   -0.000038
     37 GH                   -0.000007
     38 GH                    0.000028
     39 GH                   -0.000003
     40 GH                   -0.000002
     41 GH                    0.000020
     42 GH                   -0.000001
     43 GH                    0.000003
     44 GH                   -0.000001
     45 GH                   -0.000003
     46 GH                    0.000014
  ----------------------------------------
  Sum of atomic charges =     0.000000

                    Cartesian Multipole Moments
 -----------------------------------------------------------------
    Charge (ESU x 10^10)
                 0.0000
    Dipole Moment (Debye)
         X      -0.0324      Y       0.4311      Z       1.5099
       Tot       1.5706
    Quadrupole Moments (Debye-Ang)
        XX     -56.8535     XY       2.6274     YY     -52.0235
        XZ      11.3223     YZ       6.1597     ZZ     -46.4263

 Total job time:  162.13s(wall), 642.47s(cpu)
        *  Thank you very much for using Q-Chem.  Have a nice day.  *
