 Q-Chem 5.0, Q-Chem, Inc., Pleasanton, CA (2017)
 Q-Chem 5.0.1 for Intel X86 EM64T Linux

User input:
--------------------------------------------------------------
$molecule
0  1
--
0  1
C        +0.22270000        +1.04488000        +0.58595000
C        +0.62626000        -0.41353000        +0.99871000
C        +1.33008000        +1.39974000        -0.43491000
C        +2.63070000        +1.71700000        +0.32855000
C        +3.04336000        +0.29351000        +0.80300000
C        +1.94423000        -0.59299000        +0.15262000
O        +1.62840000        +0.13663000        -1.04376000
H        +3.37234000        +2.13782000        -0.35195000
H        +2.48236000        +2.42488000        +1.14651000
H        +4.02182000        +0.00994000        +0.41161000
H        +3.07359000        +0.18738000        +1.88928000
C        +0.90028000        +2.39077000        -1.49430000
C        +2.35450000        -2.01267000        -0.16812000
H        +3.26311000        -2.00678000        -0.77366000
H        +2.54990000        -2.57059000        +0.75079000
H        +1.57335000        -2.52896000        -0.72872000
H        +1.71845000        +2.58186000        -2.15686000
H        +0.59919000        +3.30478000        -1.02650000
H        +0.07925000        +1.98653000        -2.04874000
H        +0.81693000        -0.48905000        +2.04887000
H        -0.12524000        -1.15356000        +0.81843000
H        -0.74673000        +1.06811000        +0.13365000
H        +0.15552000        +1.72617000        +1.40828000
--
0  1
C        +6.22728000        +4.25430000        +4.78650000
C        +6.63084000        +2.79589000        +5.19926000
C        +7.33466000        +4.60916000        +3.76564000
C        +8.63528000        +4.92642000        +4.52910000
C        +9.04794000        +3.50293000        +5.00355000
C        +7.94881000        +2.61643000        +4.35317000
O        +7.63298000        +3.34605000        +3.15679000
H        +9.37692000        +5.34724000        +3.84860000
H        +8.48694000        +5.63430000        +5.34706000
H       +10.02640000        +3.21936000        +4.61216000
H        +9.07817000        +3.39680000        +6.08983000
C        +6.90486000        +5.60019000        +2.70625000
C        +8.35908000        +1.19675000        +4.03243000
H        +9.26769000        +1.20264000        +3.42689000
H        +8.55448000        +0.63883000        +4.95134000
H        +7.57793000        +0.68046000        +3.47183000
H        +7.72303000        +5.79128000        +2.04369000
H        +6.60377000        +6.51420000        +3.17405000
H        +6.08383000        +5.19595000        +2.15181000
H        +6.82151000        +2.72037000        +6.24942000
H        +5.87934000        +2.05586000        +5.01898000
H        +5.25785000        +4.27753000        +4.33420000
H        +6.16010000        +4.93559000        +5.60883000
$end

$rem
JOBTYPE                   SP
METHOD                    B3LYP
DFT_D                     d3_op
BASIS                     6-311++G(d,p)
SYMMETRY                  False
THRESH                    12
SCF_CONVERGENCE           8
MAX_SUB_FILE_NUM          128
MEM_STATIC                400
MEM_TOTAL                 4000
$end
--------------------------------------------------------------

             Standard Nuclear Orientation (Angstroms)
    I     Atom           X                Y                Z
 ----------------------------------------------------------------
    1      C       4.4979873147    -0.8062721148     1.3298486404
    2      C       4.5635624111     0.7606582886     1.3547532001
    3      C       4.0516685071    -1.0784405039    -0.1265493525
    4      C       2.5465109938    -0.7726375610    -0.2535252700
    5      C       2.5591348799     0.7818644032    -0.1822571930
    6      C       4.0817079692     1.0877020758    -0.1101624148
    7      O       4.6497494134     0.0002238035    -0.8572493995
    8      H       2.1725150509    -1.1215948528    -1.2171410935
    9      H       1.9491210371    -1.2416967794     0.5308637284
   10      H       2.1385191187     1.2266579081    -1.0857078934
   11      H       2.0138106351     1.1837886807     0.6740488337
   12      C       4.5296074582    -2.4017510671    -0.6829657302
   13      C       4.5082558366     2.4214567071    -0.6809885030
   14      H       4.1356802233     2.5223008027    -1.7024107451
   15      H       4.1065425620     3.2403713092    -0.0794431646
   16      H       5.5959242441     2.5079758760    -0.7036802461
   17      H       4.1806563865    -2.5128370533    -1.6883494101
   18      H       4.1469298958    -3.2003089689    -0.0823248484
   19      H       5.5992293268    -2.4279541616    -0.6717225902
   20      H       3.9037643828     1.1726215891     2.0894961116
   21      H       5.5207220986     1.1642646195     1.6113555997
   22      H       5.4550323976    -1.2399778544     1.5320205682
   23      H       3.8477779666    -1.2255990547     2.0689620055
   24      C      -3.5018650527    -0.8064230821     1.3782231569
   25      C      -3.4362899563     0.7605073213     1.4031277166
   26      C      -3.9481838602    -1.0785914712    -0.0781748360
   27      C      -5.4533413736    -0.7727885283    -0.2051507535
   28      C      -5.4407174874     0.7817134359    -0.1338826765
   29      C      -3.9181443981     1.0875511085    -0.0617878982
   30      O      -3.3501029539     0.0000728362    -0.8088748829
   31      H      -5.8273373164    -1.1217458201    -1.1687665770
   32      H      -6.0507313302    -1.2418477467     0.5792382449
   33      H      -5.8613332486     1.2265069408    -1.0373333769
   34      H      -5.9860417322     1.1836377134     0.7224233503
   35      C      -3.4702449091    -2.4019020344    -0.6345912137
   36      C      -3.4915965307     2.4213057398    -0.6326139865
   37      H      -3.8641721440     2.5221498354    -1.6540362286
   38      H      -3.8933098053     3.2402203419    -0.0310686481
   39      H      -2.4039281232     2.5078249086    -0.6553057295
   40      H      -3.8191959808    -2.5129880206    -1.6399748935
   41      H      -3.8529224715    -3.2004599362    -0.0339503319
   42      H      -2.4006230405    -2.4281051289    -0.6233480736
   43      H      -4.0960879845     1.1724706217     2.1378706281
   44      H      -2.4791302687     1.1641136522     1.6597301162
   45      H      -2.5448199697    -1.2401288217     1.5803950847
   46      H      -4.1520744007    -1.2257500220     2.1173365220
 ----------------------------------------------------------------

   13    -777.2660568000      2.17E-09 Convergence criterion met
 Total energy in the final basis set = -777.26605680

                    Orbital Energies (a.u.)
 --------------------------------------------------------------

 Alpha MOs
 -- Occupied --
-19.116 -19.113 -10.226 -10.222 -10.222 -10.219 -10.167 -10.167
-10.164 -10.164 -10.163 -10.162 -10.161 -10.161 -10.159 -10.158
-10.152 -10.150  -1.050  -1.047  -0.801  -0.797  -0.790  -0.787
 -0.750  -0.747  -0.719  -0.716  -0.653  -0.650  -0.617  -0.614
 -0.564  -0.560  -0.557  -0.554  -0.487  -0.484  -0.475  -0.472
 -0.465  -0.462  -0.445  -0.442  -0.421  -0.418  -0.412  -0.408
 -0.408  -0.405  -0.403  -0.400  -0.385  -0.382  -0.361  -0.358
 -0.348  -0.345  -0.345  -0.342  -0.341  -0.338  -0.334  -0.331
 -0.317  -0.314  -0.301  -0.297  -0.263  -0.259

          Ground-State Mulliken Net Atomic Charges

     Atom                 Charge (a.u.)
  ----------------------------------------
      1 C                    -0.465360
      2 C                    -0.493631
      3 C                     0.051768
      4 C                    -0.506508
      5 C                    -0.455244
      6 C                     0.022306
      7 O                    -0.016524
      8 H                     0.157463
      9 H                     0.117836
     10 H                     0.146865
     11 H                     0.118113
     12 C                    -0.066257
     13 C                    -0.095133
     14 H                     0.152024
     15 H                     0.140537
     16 H                     0.155836
     17 H                     0.144524
     18 H                     0.137575
     19 H                     0.153467
     20 H                     0.135592
     21 H                     0.166941
     22 H                     0.154665
     23 H                     0.143200
     24 C                    -0.435571
     25 C                    -0.530713
     26 C                     0.001971
     27 C                    -0.572182
     28 C                    -0.477589
     29 C                    -0.003323
     30 O                     0.000574
     31 H                     0.153915
     32 H                     0.141961
     33 H                     0.153153
     34 H                     0.142116
     35 C                     0.001468
     36 C                    -0.038622
     37 H                     0.152178
     38 H                     0.143662
     39 H                     0.146696
     40 H                     0.146874
     41 H                     0.140721
     42 H                     0.144146
     43 H                     0.138433
     44 H                     0.159219
     45 H                     0.139842
     46 H                     0.151014
  ----------------------------------------
  Sum of atomic charges =     0.000000

                    Cartesian Multipole Moments
 -----------------------------------------------------------------
    Charge (ESU x 10^10)
                 0.0000
    Dipole Moment (Debye)
         X      -1.9550      Y       0.0143      Z       2.4549
       Tot       3.1383
    Quadrupole Moments (Debye-Ang)
        XX    -115.7142     XY       0.2097     YY    -109.4670
        XZ       2.7302     YZ      -0.2275     ZZ    -116.1994

 Total job time:  188.91s(wall), 749.68s(cpu)
        *  Thank you very much for using Q-Chem.  Have a nice day.  *
