 Q-Chem 5.0, Q-Chem, Inc., Pleasanton, CA (2017)
 Q-Chem 5.0.1 for Intel X86 EM64T Linux

User input:
--------------------------------------------------------------
$molecule
0  1
--
0  1
C        +0.22270000        +1.04488000        +0.58595000
C        +0.62626000        -0.41353000        +0.99871000
C        +1.33008000        +1.39974000        -0.43491000
C        +2.63070000        +1.71700000        +0.32855000
C        +3.04336000        +0.29351000        +0.80300000
C        +1.94423000        -0.59299000        +0.15262000
O        +1.62840000        +0.13663000        -1.04376000
H        +3.37234000        +2.13782000        -0.35195000
H        +2.48236000        +2.42488000        +1.14651000
H        +4.02182000        +0.00994000        +0.41161000
H        +3.07359000        +0.18738000        +1.88928000
C        +0.90028000        +2.39077000        -1.49430000
C        +2.35450000        -2.01267000        -0.16812000
H        +3.26311000        -2.00678000        -0.77366000
H        +2.54990000        -2.57059000        +0.75079000
H        +1.57335000        -2.52896000        -0.72872000
H        +1.71845000        +2.58186000        -2.15686000
H        +0.59919000        +3.30478000        -1.02650000
H        +0.07925000        +1.98653000        -2.04874000
H        +0.81693000        -0.48905000        +2.04887000
H        -0.12524000        -1.15356000        +0.81843000
H        -0.74673000        +1.06811000        +0.13365000
H        +0.15552000        +1.72617000        +1.40828000
--
0  1
C        +3.97556000        +3.05077000        +3.21130000
C        +4.37912000        +1.59236000        +3.62406000
C        +5.08294000        +3.40563000        +2.19044000
C        +6.38356000        +3.72289000        +2.95390000
C        +6.79622000        +2.29940000        +3.42835000
C        +5.69709000        +1.41290000        +2.77797000
O        +5.38126000        +2.14252000        +1.58159000
H        +7.12520000        +4.14371000        +2.27340000
H        +6.23522000        +4.43077000        +3.77186000
H        +7.77468000        +2.01583000        +3.03696000
H        +6.82645000        +2.19327000        +4.51463000
C        +4.65314000        +4.39666000        +1.13105000
C        +6.10736000        -0.00678000        +2.45723000
H        +7.01597000        -0.00089000        +1.85169000
H        +6.30276000        -0.56470000        +3.37614000
H        +5.32621000        -0.52307000        +1.89663000
H        +5.47131000        +4.58775000        +0.46849000
H        +4.35205000        +5.31067000        +1.59885000
H        +3.83211000        +3.99242000        +0.57661000
H        +4.56979000        +1.51684000        +4.67422000
H        +3.62762000        +0.85233000        +3.44378000
H        +3.00613000        +3.07400000        +2.75900000
H        +3.90838000        +3.73206000        +4.03363000
$end

$rem
JOBTYPE                   SP
METHOD                    B3LYP
DFT_D                     d3_op
BASIS                     6-311++G(d,p)
SYMMETRY                  False
THRESH                    12
SCF_CONVERGENCE           8
MAX_SUB_FILE_NUM          128
MEM_STATIC                400
MEM_TOTAL                 4000
$end
--------------------------------------------------------------

             Standard Nuclear Orientation (Angstroms)
    I     Atom           X                Y                Z
 ----------------------------------------------------------------
    1      C       3.0104753501    -0.8061847111     1.3107324320
    2      C       3.0762226912     0.7607481971     1.3350175599
    3      C       2.5505231909    -1.0783731901    -0.1414137958
    4      C       1.0442292760    -0.7726267202    -0.2542641470
    5      C       1.0574631593     0.7818758821    -0.1831207568
    6      C       2.5806341785     1.0877705478    -0.1253137411
    7      O       3.1416824569     0.0003117148    -0.8776947308
    8      H       0.6612226880    -1.1216002409    -1.2143282319
    9      H       0.4542418472    -1.2417063842     0.5356956712
   10      H       0.6283736024     1.2266515594    -1.0825865971
   11      H       0.5201813152     1.1837818260     0.6782627237
   12      C       3.0232705185    -2.4016672270    -0.7022868020
   13      C       3.0017582820     2.4215397516    -0.7001190326
   14      H       2.6196128557     2.5223675346    -1.7180012199
   15      H       2.6056754871     3.2404407789    -0.0948331484
   16      H       4.0891627111     2.5080994594    -0.7330138809
   17      H       2.6649069731    -2.5127686062    -1.7043523405
   18      H       2.6462745111    -3.2002379941    -0.0980806712
   19      H       4.0929517712    -2.4278303760    -0.7010787312
   20      H       2.4233312856     1.1726886053     2.0759171871
   21      H       4.0357324933     1.1643908545     1.5826282908
   22      H       3.9693911809    -1.2398542564     1.5039178421
   23      H       2.3672442452    -1.2255341747     2.0559140330
   24      C      -1.9889310071    -0.8064669250     1.3878783354
   25      C      -1.9231836660     0.7604659833     1.4121634634
   26      C      -2.4488831663    -1.0786554040    -0.0642678924
   27      C      -3.9551770811    -0.7729089341    -0.1771182435
   28      C      -3.9419431979     0.7815936682    -0.1059748534
   29      C      -2.4187721787     1.0874883339    -0.0481678377
   30      O      -1.8577239003     0.0000295009    -0.8005488274
   31      H      -4.3381836692    -1.1218824548    -1.1371823285
   32      H      -4.5451645099    -1.2419885981     0.6128415746
   33      H      -4.3710327548     1.2263693455    -1.0054406936
   34      H      -4.4792250420     1.1834996121     0.7554086271
   35      C      -1.9761358386    -2.4019494409    -0.6251408985
   36      C      -1.9976480752     2.4212575377    -0.6229731292
   37      H      -2.3797935015     2.5220853207    -1.6408553165
   38      H      -2.3937308700     3.2401585650    -0.0176872450
   39      H      -0.9102436460     2.5078172455    -0.6558679775
   40      H      -2.3344993841    -2.5130508201    -1.6272064370
   41      H      -2.3531318460    -3.2005202080    -0.0209347677
   42      H      -0.9064545860    -2.4281125899    -0.6239328278
   43      H      -2.5760750716     1.1724063914     2.1530630906
   44      H      -0.9636738638     1.1641086406     1.6597741943
   45      H      -1.0300151763    -1.2401364703     1.5810637456
   46      H      -2.6321621120    -1.2258163886     2.1330599364
 ----------------------------------------------------------------

   13    -777.2613732958      5.94E-09 Convergence criterion met
 Total energy in the final basis set = -777.26137330

                    Orbital Energies (a.u.)
 --------------------------------------------------------------

 Alpha MOs
 -- Occupied --
-19.117 -19.108 -10.228 -10.224 -10.218 -10.214 -10.169 -10.168
-10.166 -10.165 -10.161 -10.158 -10.157 -10.156 -10.156 -10.155
-10.153 -10.147  -1.053  -1.042  -0.803  -0.793  -0.792  -0.783
 -0.754  -0.742  -0.720  -0.713  -0.655  -0.648  -0.622  -0.609
 -0.566  -0.562  -0.557  -0.548  -0.493  -0.484  -0.475  -0.469
 -0.469  -0.456  -0.450  -0.438  -0.424  -0.416  -0.413  -0.413
 -0.407  -0.403  -0.400  -0.392  -0.391  -0.376  -0.363  -0.355
 -0.351  -0.349  -0.345  -0.341  -0.339  -0.333  -0.332  -0.326
 -0.318  -0.310  -0.300  -0.292  -0.266  -0.252

          Ground-State Mulliken Net Atomic Charges

     Atom                 Charge (a.u.)
  ----------------------------------------
      1 C                    -0.425050
      2 C                    -0.464282
      3 C                    -0.121595
      4 C                    -0.165463
      5 C                    -0.118196
      6 C                    -0.161015
      7 O                     0.051808
      8 H                     0.207688
      9 H                    -0.058653
     10 H                     0.183018
     11 H                    -0.023226
     12 C                    -0.284593
     13 C                    -0.294692
     14 H                     0.152605
     15 H                     0.152334
     16 H                     0.160762
     17 H                     0.141648
     18 H                     0.148430
     19 H                     0.159405
     20 H                     0.127001
     21 H                     0.173014
     22 H                     0.160138
     23 H                     0.139444
     24 C                    -0.314545
     25 C                    -0.333969
     26 C                     0.052486
     27 C                    -0.568182
     28 C                    -0.525213
     29 C                     0.102045
     30 O                     0.098743
     31 H                     0.157200
     32 H                     0.138114
     33 H                     0.160642
     34 H                     0.135381
     35 C                    -0.200284
     36 C                    -0.285606
     37 H                     0.157840
     38 H                     0.149462
     39 H                     0.134895
     40 H                     0.154673
     41 H                     0.146649
     42 H                     0.125121
     43 H                     0.172030
     44 H                     0.168705
     45 H                     0.147991
     46 H                     0.185292
  ----------------------------------------
  Sum of atomic charges =     0.000000

                    Cartesian Multipole Moments
 -----------------------------------------------------------------
    Charge (ESU x 10^10)
                 0.0000
    Dipole Moment (Debye)
         X      -2.2121      Y       0.0232      Z       2.2900
       Tot       3.1840
    Quadrupole Moments (Debye-Ang)
        XX    -116.5905     XY       0.1866     YY    -110.0282
        XZ       2.5790     YZ      -0.2194     ZZ    -116.3035

 Total job time:  306.26s(wall), 1212.81s(cpu)
        *  Thank you very much for using Q-Chem.  Have a nice day.  *
