 Q-Chem 5.0, Q-Chem, Inc., Pleasanton, CA (2017)
 Q-Chem 5.0.1 for Intel X86 EM64T Linux

User input:
--------------------------------------------------------------
$molecule
0  1
C        +0.22270000        +1.04488000        +0.58595000
C        +0.62626000        -0.41353000        +0.99871000
C        +1.33008000        +1.39974000        -0.43491000
C        +2.63070000        +1.71700000        +0.32855000
C        +3.04336000        +0.29351000        +0.80300000
C        +1.94423000        -0.59299000        +0.15262000
O        +1.62840000        +0.13663000        -1.04376000
H        +3.37234000        +2.13782000        -0.35195000
H        +2.48236000        +2.42488000        +1.14651000
H        +4.02182000        +0.00994000        +0.41161000
H        +3.07359000        +0.18738000        +1.88928000
C        +0.90028000        +2.39077000        -1.49430000
C        +2.35450000        -2.01267000        -0.16812000
H        +3.26311000        -2.00678000        -0.77366000
H        +2.54990000        -2.57059000        +0.75079000
H        +1.57335000        -2.52896000        -0.72872000
H        +1.71845000        +2.58186000        -2.15686000
H        +0.59919000        +3.30478000        -1.02650000
H        +0.07925000        +1.98653000        -2.04874000
H        +0.81693000        -0.48905000        +2.04887000
H        -0.12524000        -1.15356000        +0.81843000
H        -0.74673000        +1.06811000        +0.13365000
H        +0.15552000        +1.72617000        +1.40828000
@C        +3.97556000        +3.05077000        +3.21130000
@C        +4.37912000        +1.59236000        +3.62406000
@C        +5.08294000        +3.40563000        +2.19044000
@C        +6.38356000        +3.72289000        +2.95390000
@C        +6.79622000        +2.29940000        +3.42835000
@C        +5.69709000        +1.41290000        +2.77797000
@O        +5.38126000        +2.14252000        +1.58159000
@H        +7.12520000        +4.14371000        +2.27340000
@H        +6.23522000        +4.43077000        +3.77186000
@H        +7.77468000        +2.01583000        +3.03696000
@H        +6.82645000        +2.19327000        +4.51463000
@C        +4.65314000        +4.39666000        +1.13105000
@C        +6.10736000        -0.00678000        +2.45723000
@H        +7.01597000        -0.00089000        +1.85169000
@H        +6.30276000        -0.56470000        +3.37614000
@H        +5.32621000        -0.52307000        +1.89663000
@H        +5.47131000        +4.58775000        +0.46849000
@H        +4.35205000        +5.31067000        +1.59885000
@H        +3.83211000        +3.99242000        +0.57661000
@H        +4.56979000        +1.51684000        +4.67422000
@H        +3.62762000        +0.85233000        +3.44378000
@H        +3.00613000        +3.07400000        +2.75900000
@H        +3.90838000        +3.73206000        +4.03363000
$end

$rem
JOBTYPE                   SP
METHOD                    B3LYP
DFT_D                     d3_op
BASIS                     6-311++G(d,p)
SYMMETRY                  False
THRESH                    12
SCF_CONVERGENCE           8
MAX_SUB_FILE_NUM          128
MEM_STATIC                400
MEM_TOTAL                 4000
$end
--------------------------------------------------------------

             Standard Nuclear Orientation (Angstroms)
    I     Atom           X                Y                Z
 ----------------------------------------------------------------
    1      C       0.2227000000     1.0448800000     0.5859500000
    2      C       0.6262600000    -0.4135300000     0.9987100000
    3      C       1.3300800000     1.3997400000    -0.4349100000
    4      C       2.6307000000     1.7170000000     0.3285500000
    5      C       3.0433600000     0.2935100000     0.8030000000
    6      C       1.9442300000    -0.5929900000     0.1526200000
    7      O       1.6284000000     0.1366300000    -1.0437600000
    8      H       3.3723400000     2.1378200000    -0.3519500000
    9      H       2.4823600000     2.4248800000     1.1465100000
   10      H       4.0218200000     0.0099400000     0.4116100000
   11      H       3.0735900000     0.1873800000     1.8892800000
   12      C       0.9002800000     2.3907700000    -1.4943000000
   13      C       2.3545000000    -2.0126700000    -0.1681200000
   14      H       3.2631100000    -2.0067800000    -0.7736600000
   15      H       2.5499000000    -2.5705900000     0.7507900000
   16      H       1.5733500000    -2.5289600000    -0.7287200000
   17      H       1.7184500000     2.5818600000    -2.1568600000
   18      H       0.5991900000     3.3047800000    -1.0265000000
   19      H       0.0792500000     1.9865300000    -2.0487400000
   20      H       0.8169300000    -0.4890500000     2.0488700000
   21      H      -0.1252400000    -1.1535600000     0.8184300000
   22      H      -0.7467300000     1.0681100000     0.1336500000
   23      H       0.1555200000     1.7261700000     1.4082800000
   24      GH      3.9755600000     3.0507700000     3.2113000000
   25      GH      4.3791200000     1.5923600000     3.6240600000
   26      GH      5.0829400000     3.4056300000     2.1904400000
   27      GH      6.3835600000     3.7228900000     2.9539000000
   28      GH      6.7962200000     2.2994000000     3.4283500000
   29      GH      5.6970900000     1.4129000000     2.7779700000
   30      GH      5.3812600000     2.1425200000     1.5815900000
   31      GH      7.1252000000     4.1437100000     2.2734000000
   32      GH      6.2352200000     4.4307700000     3.7718600000
   33      GH      7.7746800000     2.0158300000     3.0369600000
   34      GH      6.8264500000     2.1932700000     4.5146300000
   35      GH      4.6531400000     4.3966600000     1.1310500000
   36      GH      6.1073600000    -0.0067800000     2.4572300000
   37      GH      7.0159700000    -0.0008900000     1.8516900000
   38      GH      6.3027600000    -0.5647000000     3.3761400000
   39      GH      5.3262100000    -0.5230700000     1.8966300000
   40      GH      5.4713100000     4.5877500000     0.4684900000
   41      GH      4.3520500000     5.3106700000     1.5988500000
   42      GH      3.8321100000     3.9924200000     0.5766100000
   43      GH      4.5697900000     1.5168400000     4.6742200000
   44      GH      3.6276200000     0.8523300000     3.4437800000
   45      GH      3.0061300000     3.0740000000     2.7590000000
   46      GH      3.9083800000     3.7320600000     4.0336300000
 ----------------------------------------------------------------

   12    -388.6332945546      6.97E-09 Convergence criterion met
 Total energy in the final basis set = -388.63329455

                    Orbital Energies (a.u.)
 --------------------------------------------------------------

 Alpha MOs
 -- Occupied --
-19.115 -10.224 -10.221 -10.166 -10.165 -10.162 -10.161 -10.160
-10.151  -1.049  -0.799  -0.789  -0.749  -0.717  -0.652  -0.616
 -0.562  -0.556  -0.486  -0.474  -0.464  -0.444  -0.420  -0.410
 -0.407  -0.402  -0.384  -0.360  -0.346  -0.343  -0.340  -0.333
 -0.316  -0.299  -0.261

          Ground-State Mulliken Net Atomic Charges

     Atom                 Charge (a.u.)
  ----------------------------------------
      1 C                    -0.416912
      2 C                    -0.457521
      3 C                    -0.085630
      4 C                    -0.257715
      5 C                    -0.176904
      6 C                    -0.101543
      7 O                     0.055282
      8 H                     0.193997
      9 H                     0.035901
     10 H                     0.183015
     11 H                     0.041213
     12 C                    -0.292165
     13 C                    -0.310128
     14 H                     0.149639
     15 H                     0.154667
     16 H                     0.162249
     17 H                     0.139217
     18 H                     0.150530
     19 H                     0.160798
     20 H                     0.133355
     21 H                     0.175998
     22 H                     0.163253
     23 H                     0.142849
     24 GH                    0.042890
     25 GH                    0.038969
     26 GH                   -0.030690
     27 GH                   -0.006738
     28 GH                   -0.011041
     29 GH                   -0.014367
     30 GH                    0.020465
     31 GH                   -0.000503
     32 GH                   -0.000045
     33 GH                   -0.000340
     34 GH                   -0.000113
     35 GH                   -0.016626
     36 GH                   -0.024510
     37 GH                    0.001777
     38 GH                   -0.000784
     39 GH                    0.016651
     40 GH                    0.001643
     41 GH                   -0.001041
     42 GH                    0.021887
     43 GH                   -0.000359
     44 GH                    0.010231
     45 GH                    0.009329
     46 GH                   -0.000130
  ----------------------------------------
  Sum of atomic charges =     0.000000

                    Cartesian Multipole Moments
 -----------------------------------------------------------------
    Charge (ESU x 10^10)
                -0.0000
    Dipole Moment (Debye)
         X      -0.0307      Y       0.4303      Z       1.5057
       Tot       1.5663
    Quadrupole Moments (Debye-Ang)
        XX     -56.4595     XY       0.1533     YY     -54.7979
        XZ       2.4068     YZ      -0.4842     ZZ     -59.0985

 Total job time:  299.00s(wall), 1182.36s(cpu)
        *  Thank you very much for using Q-Chem.  Have a nice day.  *
