 Q-Chem 5.0, Q-Chem, Inc., Pleasanton, CA (2017)
 Q-Chem 5.0.1 for Intel X86 EM64T Linux

User input:
--------------------------------------------------------------
$molecule
0  1
C        +2.99982000        +2.52924000        +2.52871000
C        +3.40338000        +1.07083000        +2.94147000
C        +4.10720000        +2.88410000        +1.50785000
C        +5.40782000        +3.20136000        +2.27131000
C        +5.82048000        +1.77787000        +2.74576000
C        +4.72135000        +0.89137000        +2.09538000
O        +4.40552000        +1.62099000        +0.89900000
H        +6.14946000        +3.62218000        +1.59081000
H        +5.25948000        +3.90924000        +3.08927000
H        +6.79894000        +1.49430000        +2.35437000
H        +5.85071000        +1.67174000        +3.83204000
C        +3.67740000        +3.87513000        +0.44846000
C        +5.13162000        -0.52831000        +1.77464000
H        +6.04023000        -0.52242000        +1.16910000
H        +5.32702000        -1.08623000        +2.69355000
H        +4.35047000        -1.04460000        +1.21404000
H        +4.49557000        +4.06622000        -0.21410000
H        +3.37631000        +4.78914000        +0.91626000
H        +2.85637000        +3.47089000        -0.10598000
H        +3.59405000        +0.99531000        +3.99163000
H        +2.65188000        +0.33080000        +2.76119000
H        +2.03039000        +2.55247000        +2.07641000
H        +2.93264000        +3.21053000        +3.35104000
@C        +0.22270000        +1.04488000        +0.58595000
@C        +0.62626000        -0.41353000        +0.99871000
@C        +1.33008000        +1.39974000        -0.43491000
@C        +2.63070000        +1.71700000        +0.32855000
@C        +3.04336000        +0.29351000        +0.80300000
@C        +1.94423000        -0.59299000        +0.15262000
@O        +1.62840000        +0.13663000        -1.04376000
@H        +3.37234000        +2.13782000        -0.35195000
@H        +2.48236000        +2.42488000        +1.14651000
@H        +4.02182000        +0.00994000        +0.41161000
@H        +3.07359000        +0.18738000        +1.88928000
@C        +0.90028000        +2.39077000        -1.49430000
@C        +2.35450000        -2.01267000        -0.16812000
@H        +3.26311000        -2.00678000        -0.77366000
@H        +2.54990000        -2.57059000        +0.75079000
@H        +1.57335000        -2.52896000        -0.72872000
@H        +1.71845000        +2.58186000        -2.15686000
@H        +0.59919000        +3.30478000        -1.02650000
@H        +0.07925000        +1.98653000        -2.04874000
@H        +0.81693000        -0.48905000        +2.04887000
@H        -0.12524000        -1.15356000        +0.81843000
@H        -0.74673000        +1.06811000        +0.13365000
@H        +0.15552000        +1.72617000        +1.40828000
$end

$rem
JOBTYPE                   SP
METHOD                    B3LYP
DFT_D                     d3_op
BASIS                     6-311++G(d,p)
SYMMETRY                  False
THRESH                    12
SCF_CONVERGENCE           8
MAX_SUB_FILE_NUM          128
MEM_STATIC                400
MEM_TOTAL                 4000
$end
--------------------------------------------------------------

             Standard Nuclear Orientation (Angstroms)
    I     Atom           X                Y                Z
 ----------------------------------------------------------------
    1      C       2.9998200000     2.5292400000     2.5287100000
    2      C       3.4033800000     1.0708300000     2.9414700000
    3      C       4.1072000000     2.8841000000     1.5078500000
    4      C       5.4078200000     3.2013600000     2.2713100000
    5      C       5.8204800000     1.7778700000     2.7457600000
    6      C       4.7213500000     0.8913700000     2.0953800000
    7      O       4.4055200000     1.6209900000     0.8990000000
    8      H       6.1494600000     3.6221800000     1.5908100000
    9      H       5.2594800000     3.9092400000     3.0892700000
   10      H       6.7989400000     1.4943000000     2.3543700000
   11      H       5.8507100000     1.6717400000     3.8320400000
   12      C       3.6774000000     3.8751300000     0.4484600000
   13      C       5.1316200000    -0.5283100000     1.7746400000
   14      H       6.0402300000    -0.5224200000     1.1691000000
   15      H       5.3270200000    -1.0862300000     2.6935500000
   16      H       4.3504700000    -1.0446000000     1.2140400000
   17      H       4.4955700000     4.0662200000    -0.2141000000
   18      H       3.3763100000     4.7891400000     0.9162600000
   19      H       2.8563700000     3.4708900000    -0.1059800000
   20      H       3.5940500000     0.9953100000     3.9916300000
   21      H       2.6518800000     0.3308000000     2.7611900000
   22      H       2.0303900000     2.5524700000     2.0764100000
   23      H       2.9326400000     3.2105300000     3.3510400000
   24      GH      0.2227000000     1.0448800000     0.5859500000
   25      GH      0.6262600000    -0.4135300000     0.9987100000
   26      GH      1.3300800000     1.3997400000    -0.4349100000
   27      GH      2.6307000000     1.7170000000     0.3285500000
   28      GH      3.0433600000     0.2935100000     0.8030000000
   29      GH      1.9442300000    -0.5929900000     0.1526200000
   30      GH      1.6284000000     0.1366300000    -1.0437600000
   31      GH      3.3723400000     2.1378200000    -0.3519500000
   32      GH      2.4823600000     2.4248800000     1.1465100000
   33      GH      4.0218200000     0.0099400000     0.4116100000
   34      GH      3.0735900000     0.1873800000     1.8892800000
   35      GH      0.9002800000     2.3907700000    -1.4943000000
   36      GH      2.3545000000    -2.0126700000    -0.1681200000
   37      GH      3.2631100000    -2.0067800000    -0.7736600000
   38      GH      2.5499000000    -2.5705900000     0.7507900000
   39      GH      1.5733500000    -2.5289600000    -0.7287200000
   40      GH      1.7184500000     2.5818600000    -2.1568600000
   41      GH      0.5991900000     3.3047800000    -1.0265000000
   42      GH      0.0792500000     1.9865300000    -2.0487400000
   43      GH      0.8169300000    -0.4890500000     2.0488700000
   44      GH     -0.1252400000    -1.1535600000     0.8184300000
   45      GH     -0.7467300000     1.0681100000     0.1336500000
   46      GH      0.1555200000     1.7261700000     1.4082800000
 ----------------------------------------------------------------

   12    -388.6350059582      7.07E-09 Convergence criterion met
 Total energy in the final basis set = -388.63500596

                    Orbital Energies (a.u.)
 --------------------------------------------------------------

 Alpha MOs
 -- Occupied --
-19.115 -10.224 -10.221 -10.166 -10.165 -10.162 -10.161 -10.160
-10.151  -1.048  -0.799  -0.788  -0.748  -0.717  -0.652  -0.616
 -0.562  -0.555  -0.486  -0.474  -0.464  -0.444  -0.420  -0.410
 -0.406  -0.402  -0.383  -0.360  -0.346  -0.343  -0.340  -0.333
 -0.316  -0.299  -0.261

          Ground-State Mulliken Net Atomic Charges

     Atom                 Charge (a.u.)
  ----------------------------------------
      1 C                    -0.436795
      2 C                    -0.427634
      3 C                     0.308947
      4 C                    -0.377111
      5 C                    -0.408415
      6 C                     0.326629
      7 O                     0.038447
      8 H                     0.147803
      9 H                     0.138592
     10 H                     0.158413
     11 H                     0.131608
     12 C                    -0.431623
     13 C                    -0.448691
     14 H                     0.148809
     15 H                     0.162299
     16 H                     0.084316
     17 H                     0.152821
     18 H                     0.158597
     19 H                     0.068419
     20 H                     0.196793
     21 H                     0.147205
     22 H                     0.172570
     23 H                     0.200356
     24 GH                   -0.036721
     25 GH                   -0.026076
     26 GH                   -0.118518
     27 GH                   -0.016383
     28 GH                   -0.074820
     29 GH                   -0.109157
     30 GH                   -0.017284
     31 GH                    0.008911
     32 GH                   -0.016550
     33 GH                    0.053221
     34 GH                    0.106901
     35 GH                    0.036177
     36 GH                    0.002065
     37 GH                   -0.000929
     38 GH                    0.004979
     39 GH                    0.000531
     40 GH                   -0.000515
     41 GH                    0.006042
     42 GH                    0.000120
     43 GH                   -0.006377
     44 GH                   -0.001053
     45 GH                   -0.000852
     46 GH                   -0.006068
  ----------------------------------------
  Sum of atomic charges =     0.000000

                    Cartesian Multipole Moments
 -----------------------------------------------------------------
    Charge (ESU x 10^10)
                 0.0000
    Dipole Moment (Debye)
         X      -0.0388      Y       0.4234      Z       1.4842
       Tot       1.5439
    Quadrupole Moments (Debye-Ang)
        XX     -56.7085     XY       1.2704     YY     -53.5781
        XZ       6.4342     YZ       2.5612     ZZ     -53.2821

 Total job time:  382.58s(wall), 1516.56s(cpu)
        *  Thank you very much for using Q-Chem.  Have a nice day.  *
