 Q-Chem 5.0, Q-Chem, Inc., Pleasanton, CA (2017)
 Q-Chem 5.0.1 for Intel X86 EM64T Linux

User input:
--------------------------------------------------------------
$molecule
0  1
C        -0.54444000        -0.68370000        -0.06689000
C        -0.55709000        +0.71878000        +0.05493000
C        -1.74320000        -1.41616000        -0.12552000
C        -2.93952000        -0.70056000        -0.05285000
C        -2.95313000        +0.68255000        +0.06934000
C        -1.77161000        +1.42404000        +0.12810000
H        -3.90354000        +1.20325000        +0.11710000
H        -3.87892000        -1.24211000        -0.08988000
C        -1.83960000        +2.92746000        +0.24839000
H        -1.24214000        +3.42352000        -0.52065000
H        -1.45503000        +3.26427000        +1.21284000
H        -2.87211000        +3.26623000        +0.14638000
H        -1.73878000        -2.44393000        -0.21875000
H        +0.35825000        -1.18166000        -0.11386000
H        +0.33551000        +1.23549000        +0.09097000
@C        -0.71533000        -1.04119000        +4.91739000
@C        -0.72798000        +0.36129000        +5.03921000
@C        -1.91409000        -1.77365000        +4.85876000
@C        -3.11041000        -1.05805000        +4.93143000
@C        -3.12402000        +0.32506000        +5.05362000
@C        -1.94250000        +1.06655000        +5.11238000
@H        -4.07443000        +0.84576000        +5.10138000
@H        -4.04981000        -1.59960000        +4.89440000
@C        -2.01049000        +2.56997000        +5.23267000
@H        -1.41303000        +3.06603000        +4.46363000
@H        -1.62592000        +2.90678000        +6.19712000
@H        -3.04300000        +2.90874000        +5.13066000
@H        -1.90967000        -2.80142000        +4.76553000
@H        +0.18736000        -1.53915000        +4.87042000
@H        +0.16462000        +0.87800000        +5.07525000
$end

$rem
JOBTYPE                   SP
METHOD                    B3LYP
DFT_D                     d3_op
BASIS                     6-311++G(d,p)
SYMMETRY                  False
THRESH                    12
SCF_CONVERGENCE           8
MAX_SUB_FILE_NUM          128
MEM_STATIC                400
MEM_TOTAL                 4000
$end
--------------------------------------------------------------

             Standard Nuclear Orientation (Angstroms)
    I     Atom           X                Y                Z
 ----------------------------------------------------------------
    1      C      -0.5444400000    -0.6837000000    -0.0668900000
    2      C      -0.5570900000     0.7187800000     0.0549300000
    3      C      -1.7432000000    -1.4161600000    -0.1255200000
    4      C      -2.9395200000    -0.7005600000    -0.0528500000
    5      C      -2.9531300000     0.6825500000     0.0693400000
    6      C      -1.7716100000     1.4240400000     0.1281000000
    7      H      -3.9035400000     1.2032500000     0.1171000000
    8      H      -3.8789200000    -1.2421100000    -0.0898800000
    9      C      -1.8396000000     2.9274600000     0.2483900000
   10      H      -1.2421400000     3.4235200000    -0.5206500000
   11      H      -1.4550300000     3.2642700000     1.2128400000
   12      H      -2.8721100000     3.2662300000     0.1463800000
   13      H      -1.7387800000    -2.4439300000    -0.2187500000
   14      H       0.3582500000    -1.1816600000    -0.1138600000
   15      H       0.3355100000     1.2354900000     0.0909700000
   16      GH     -0.7153300000    -1.0411900000     4.9173900000
   17      GH     -0.7279800000     0.3612900000     5.0392100000
   18      GH     -1.9140900000    -1.7736500000     4.8587600000
   19      GH     -3.1104100000    -1.0580500000     4.9314300000
   20      GH     -3.1240200000     0.3250600000     5.0536200000
   21      GH     -1.9425000000     1.0665500000     5.1123800000
   22      GH     -4.0744300000     0.8457600000     5.1013800000
   23      GH     -4.0498100000    -1.5996000000     4.8944000000
   24      GH     -2.0104900000     2.5699700000     5.2326700000
   25      GH     -1.4130300000     3.0660300000     4.4636300000
   26      GH     -1.6259200000     2.9067800000     6.1971200000
   27      GH     -3.0430000000     2.9087400000     5.1306600000
   28      GH     -1.9096700000    -2.8014200000     4.7655300000
   29      GH      0.1873600000    -1.5391500000     4.8704200000
   30      GH      0.1646200000     0.8780000000     5.0752500000
 ----------------------------------------------------------------

   12    -271.6437106702      9.78E-09 Convergence criterion met
 Total energy in the final basis set = -271.64371067

                    Orbital Energies (a.u.)
 --------------------------------------------------------------

 Alpha MOs
 -- Occupied --
-10.185 -10.174 -10.172 -10.171 -10.170 -10.169 -10.169  -0.858
 -0.776  -0.747  -0.691  -0.611  -0.591  -0.521  -0.465  -0.462
 -0.424  -0.423  -0.418  -0.390  -0.358  -0.350  -0.342  -0.255
 -0.247

          Ground-State Mulliken Net Atomic Charges

     Atom                 Charge (a.u.)
  ----------------------------------------
      1 C                    -0.054787
      2 C                    -0.428532
      3 C                    -0.342184
      4 C                    -0.104080
      5 C                    -0.586774
      6 C                     0.935940
      7 H                     0.148574
      8 H                     0.169635
      9 C                    -0.656840
     10 H                     0.146714
     11 H                     0.160896
     12 H                     0.144125
     13 H                     0.150184
     14 H                     0.160873
     15 H                     0.167469
     16 GH                   -0.015231
     17 GH                    0.017777
     18 GH                    0.021930
     19 GH                   -0.021961
     20 GH                   -0.005831
     21 GH                   -0.011629
     22 GH                   -0.000714
     23 GH                   -0.000459
     24 GH                    0.003033
     25 GH                   -0.000735
     26 GH                   -0.000422
     27 GH                    0.001132
     28 GH                    0.001780
     29 GH                   -0.000379
     30 GH                    0.000493
  ----------------------------------------
  Sum of atomic charges =     0.000000

                    Cartesian Multipole Moments
 -----------------------------------------------------------------
    Charge (ESU x 10^10)
                 0.0000
    Dipole Moment (Debye)
         X       0.0614      Y       0.3876      Z       0.0390
       Tot       0.3943
    Quadrupole Moments (Debye-Ang)
        XX     -39.3583     XY      -0.6300     YY     -38.0773
        XZ      -0.0998     YZ       0.7284     ZZ     -46.4065

 Total job time:  79.33s(wall), 315.63s(cpu)
        *  Thank you very much for using Q-Chem.  Have a nice day.  *
