 Q-Chem 5.0, Q-Chem, Inc., Pleasanton, CA (2017)
 Q-Chem 5.0.1 for Intel X86 EM64T Linux

User input:
--------------------------------------------------------------
$molecule
0  1
C        -0.57785000        -0.98520000        +3.63635000
C        -0.60819000        +0.40187000        +3.75733000
C        -1.76866000        -1.70981000        +3.56486000
C        -2.98550000        -1.03429000        +3.61616000
C        -3.01010000        +0.35557000        +3.73723000
C        -1.82546000        +1.09417000        +3.80792000
H        -3.96319000        +0.87320000        +3.77632000
H        -3.91735000        -1.58666000        +3.56142000
C        -1.85011000        +2.59886000        +3.93339000
H        -1.32574000        +3.07288000        +3.09786000
H        -1.35871000        +2.92755000        +4.85434000
H        -2.87342000        +2.97927000        +3.94539000
H        -1.74666000        -2.78964000        +3.46970000
H        +0.37439000        -1.50287000        +3.59749000
H        +0.32370000        +0.95616000        +3.81238000
@C        -0.55335000        -0.66344000        -0.04955000
@C        -0.58369000        +0.72363000        +0.07143000
@C        -1.74416000        -1.38805000        -0.12104000
@C        -2.96100000        -0.71253000        -0.06974000
@C        -2.98560000        +0.67733000        +0.05133000
@C        -1.80096000        +1.41593000        +0.12202000
@H        -3.93869000        +1.19496000        +0.09042000
@H        -3.89285000        -1.26490000        -0.12448000
@C        -1.82561000        +2.92062000        +0.24749000
@H        -1.30124000        +3.39464000        -0.58804000
@H        -1.33421000        +3.24931000        +1.16844000
@H        -2.84892000        +3.30103000        +0.25949000
@H        -1.72216000        -2.46788000        -0.21620000
@H        +0.39889000        -1.18111000        -0.08841000
@H        +0.34820000        +1.27792000        +0.12648000
$end

$rem
JOBTYPE                   SP
METHOD                    B3LYP
DFT_D                     d3_op
BASIS                     6-311++G(d,p)
SYMMETRY                  False
THRESH                    12
SCF_CONVERGENCE           8
MAX_SUB_FILE_NUM          128
MEM_STATIC                400
MEM_TOTAL                 4000
$end
--------------------------------------------------------------

             Standard Nuclear Orientation (Angstroms)
    I     Atom           X                Y                Z
 ----------------------------------------------------------------
    1      C      -0.5778500000    -0.9852000000     3.6363500000
    2      C      -0.6081900000     0.4018700000     3.7573300000
    3      C      -1.7686600000    -1.7098100000     3.5648600000
    4      C      -2.9855000000    -1.0342900000     3.6161600000
    5      C      -3.0101000000     0.3555700000     3.7372300000
    6      C      -1.8254600000     1.0941700000     3.8079200000
    7      H      -3.9631900000     0.8732000000     3.7763200000
    8      H      -3.9173500000    -1.5866600000     3.5614200000
    9      C      -1.8501100000     2.5988600000     3.9333900000
   10      H      -1.3257400000     3.0728800000     3.0978600000
   11      H      -1.3587100000     2.9275500000     4.8543400000
   12      H      -2.8734200000     2.9792700000     3.9453900000
   13      H      -1.7466600000    -2.7896400000     3.4697000000
   14      H       0.3743900000    -1.5028700000     3.5974900000
   15      H       0.3237000000     0.9561600000     3.8123800000
   16      GH     -0.5533500000    -0.6634400000    -0.0495500000
   17      GH     -0.5836900000     0.7236300000     0.0714300000
   18      GH     -1.7441600000    -1.3880500000    -0.1210400000
   19      GH     -2.9610000000    -0.7125300000    -0.0697400000
   20      GH     -2.9856000000     0.6773300000     0.0513300000
   21      GH     -1.8009600000     1.4159300000     0.1220200000
   22      GH     -3.9386900000     1.1949600000     0.0904200000
   23      GH     -3.8928500000    -1.2649000000    -0.1244800000
   24      GH     -1.8256100000     2.9206200000     0.2474900000
   25      GH     -1.3012400000     3.3946400000    -0.5880400000
   26      GH     -1.3342100000     3.2493100000     1.1684400000
   27      GH     -2.8489200000     3.3010300000     0.2594900000
   28      GH     -1.7221600000    -2.4678800000    -0.2162000000
   29      GH      0.3988900000    -1.1811100000    -0.0884100000
   30      GH      0.3482000000     1.2779200000     0.1264800000
 ----------------------------------------------------------------

   13    -271.6510160874      8.96E-10 Convergence criterion met
 Total energy in the final basis set = -271.65101609

                    Orbital Energies (a.u.)
 --------------------------------------------------------------

 Alpha MOs
 -- Occupied --
-10.185 -10.176 -10.175 -10.173 -10.173 -10.173 -10.170  -0.860
 -0.775  -0.748  -0.689  -0.608  -0.587  -0.515  -0.464  -0.457
 -0.424  -0.423  -0.412  -0.389  -0.360  -0.346  -0.343  -0.257
 -0.248

          Ground-State Mulliken Net Atomic Charges

     Atom                 Charge (a.u.)
  ----------------------------------------
      1 C                    -0.212299
      2 C                    -0.132867
      3 C                    -0.352154
      4 C                    -0.255195
      5 C                    -0.232536
      6 C                     0.553786
      7 H                     0.162775
      8 H                     0.174169
      9 C                    -0.741917
     10 H                     0.172316
     11 H                     0.159010
     12 H                     0.140617
     13 H                     0.154361
     14 H                     0.169649
     15 H                     0.181671
     16 GH                    0.006554
     17 GH                    0.024954
     18 GH                   -0.004533
     19 GH                   -0.003445
     20 GH                    0.003739
     21 GH                   -0.007072
     22 GH                    0.008768
     23 GH                    0.004179
     24 GH                    0.018113
     25 GH                    0.000897
     26 GH                   -0.010685
     27 GH                    0.000477
     28 GH                    0.004062
     29 GH                    0.005340
     30 GH                    0.007264
  ----------------------------------------
  Sum of atomic charges =    -0.000000

                    Cartesian Multipole Moments
 -----------------------------------------------------------------
    Charge (ESU x 10^10)
                -0.0000
    Dipole Moment (Debye)
         X       0.0345      Y       0.4035      Z       0.0379
       Tot       0.4067
    Quadrupole Moments (Debye-Ang)
        XX     -39.3046     XY      -0.6672     YY     -38.7168
        XZ       0.1176     YZ       2.1765     ZZ     -46.1719

 Total job time:  111.85s(wall), 445.20s(cpu)
        *  Thank you very much for using Q-Chem.  Have a nice day.  *
