 Q-Chem 5.0, Q-Chem, Inc., Pleasanton, CA (2017)
 Q-Chem 5.0.1 for Intel X86 EM64T Linux

User input:
--------------------------------------------------------------
$molecule
0  1
--
0  1
C        -0.54444000        -0.68370000        -0.06689000
C        -0.55709000        +0.71878000        +0.05493000
C        -1.74320000        -1.41616000        -0.12552000
C        -2.93952000        -0.70056000        -0.05285000
C        -2.95313000        +0.68255000        +0.06934000
C        -1.77161000        +1.42404000        +0.12810000
H        -3.90354000        +1.20325000        +0.11710000
H        -3.87892000        -1.24211000        -0.08988000
C        -1.83960000        +2.92746000        +0.24839000
H        -1.24214000        +3.42352000        -0.52065000
H        -1.45503000        +3.26427000        +1.21284000
H        -2.87211000        +3.26623000        +0.14638000
H        -1.73878000        -2.44393000        -0.21875000
H        +0.35825000        -1.18166000        -0.11386000
H        +0.33551000        +1.23549000        +0.09097000
--
0  1
C        -0.51003000        -1.11966000        +4.91395000
C        -0.52268000        +0.28282000        +5.03577000
C        -1.70879000        -1.85212000        +4.85532000
C        -2.90511000        -1.13652000        +4.92799000
C        -2.91872000        +0.24659000        +5.05018000
C        -1.73720000        +0.98808000        +5.10894000
H        -3.86913000        +0.76729000        +5.09794000
H        -3.84451000        -1.67807000        +4.89096000
C        -1.80519000        +2.49150000        +5.22923000
H        -1.20773000        +2.98756000        +4.46019000
H        -1.42062000        +2.82831000        +6.19368000
H        -2.83770000        +2.83027000        +5.12722000
H        -1.70437000        -2.87989000        +4.76209000
H        +0.39266000        -1.61762000        +4.86698000
H        +0.36992000        +0.79953000        +5.07181000
$end

$rem
JOBTYPE                   SP
METHOD                    B3LYP
DFT_D                     d3_op
BASIS                     6-311++G(d,p)
SYMMETRY                  False
THRESH                    12
SCF_CONVERGENCE           8
MAX_SUB_FILE_NUM          128
MEM_STATIC                400
MEM_TOTAL                 4000
$end
--------------------------------------------------------------

             Standard Nuclear Orientation (Angstroms)
    I     Atom           X                Y                Z
 ----------------------------------------------------------------
    1      C       2.4962722681    -1.2312401633     1.1901575594
    2      C       2.4986926221     0.1762892858     1.2185349662
    3      C       2.4984213349    -1.9307869306    -0.0295105791
    4      C       2.4974623199    -1.1770238841    -1.2044089497
    5      C       2.4978126990     0.2112802133    -1.1775666183
    6      C       2.4964503668     0.9203314665     0.0251362263
    7      H       2.5027684662     0.7616248947    -2.1123312131
    8      H       2.4931267832    -1.6921346826    -2.1592712705
    9      C       2.5096808918     2.4298399389     0.0011957672
   10      H       3.3152939580     2.8384019781     0.6164364879
   11      H       1.5760371045     2.8391964994     0.3913692519
   12      H       2.6483475802     2.7882028100    -1.0203695295
   13      H       2.5006233387    -2.9624656500    -0.0551369963
   14      H       2.4928668502    -1.7574836937     2.0778938539
   15      H       2.5021493858     0.6679435031     2.1258866329
   16      C      -2.5037264712    -1.2262571720     1.1899292614
   17      C      -2.5013061172     0.1812722770     1.2183066682
   18      C      -2.5015774044    -1.9258039393    -0.0297388771
   19      C      -2.5025364194    -1.1720408928    -1.2046372477
   20      C      -2.5021860403     0.2162632046    -1.1777949163
   21      C      -2.5035483725     0.9253144578     0.0249079283
   22      H      -2.4972302731     0.7666078859    -2.1125595111
   23      H      -2.5068719561    -1.6871516914    -2.1594995685
   24      C      -2.4903178475     2.4348229302     0.0009674692
   25      H      -1.6847047813     2.8433849694     0.6162081899
   26      H      -3.4239616348     2.8441794907     0.3911409539
   27      H      -2.3516511591     2.7931858012    -1.0205978275
   28      H      -2.4993754006    -2.9574826588    -0.0553652943
   29      H      -2.5071318891    -1.7525007024     2.0776655559
   30      H      -2.4978493535     0.6729264943     2.1256583349
 ----------------------------------------------------------------

   13    -543.2880953810      5.40E-09 Convergence criterion met
 Total energy in the final basis set = -543.28809538

                    Orbital Energies (a.u.)
 --------------------------------------------------------------

 Alpha MOs
 -- Occupied --
-10.182 -10.182 -10.170 -10.170 -10.169 -10.169 -10.168 -10.168
-10.167 -10.167 -10.166 -10.166 -10.166 -10.166  -0.855  -0.855
 -0.773  -0.773  -0.744  -0.744  -0.689  -0.689  -0.608  -0.608
 -0.588  -0.587  -0.518  -0.518  -0.462  -0.462  -0.460  -0.459
 -0.424  -0.421  -0.420  -0.420  -0.415  -0.415  -0.388  -0.388
 -0.356  -0.353  -0.347  -0.347  -0.339  -0.339  -0.253  -0.249
 -0.245  -0.242

          Ground-State Mulliken Net Atomic Charges

     Atom                 Charge (a.u.)
  ----------------------------------------
      1 C                    -0.074737
      2 C                    -0.427789
      3 C                    -0.308182
      4 C                    -0.130261
      5 C                    -0.577670
      6 C                     0.936809
      7 H                     0.146295
      8 H                     0.165433
      9 C                    -0.644345
     10 H                     0.146026
     11 H                     0.154151
     12 H                     0.143886
     13 H                     0.149504
     14 H                     0.156260
     15 H                     0.164026
     16 C                    -0.137400
     17 C                    -0.373908
     18 C                    -0.295726
     19 C                    -0.183968
     20 C                    -0.460412
     21 C                     0.872606
     22 H                     0.146746
     23 H                     0.167721
     24 C                    -0.654679
     25 H                     0.147131
     26 H                     0.157450
     27 H                     0.143145
     28 H                     0.149299
     29 H                     0.157841
     30 H                     0.164749
  ----------------------------------------
  Sum of atomic charges =     0.000000

                    Cartesian Multipole Moments
 -----------------------------------------------------------------
    Charge (ESU x 10^10)
                 0.0000
    Dipole Moment (Debye)
         X      -0.0054      Y       0.6495      Z       0.1295
       Tot       0.6623
    Quadrupole Moments (Debye-Ang)
        XX     -93.9960     XY       0.0432     YY     -77.2015
        XZ      -0.0307     YZ       0.0529     ZZ     -78.4300

 Total job time:  79.94s(wall), 318.48s(cpu)
        *  Thank you very much for using Q-Chem.  Have a nice day.  *
