 Q-Chem 5.0, Q-Chem, Inc., Pleasanton, CA (2017)
 Q-Chem 5.0.1 for Intel X86 EM64T Linux

User input:
--------------------------------------------------------------
$molecule
0  1
--
0  1
C        -0.54444000        -0.68370000        -0.06689000
C        -0.55709000        +0.71878000        +0.05493000
C        -1.74320000        -1.41616000        -0.12552000
C        -2.93952000        -0.70056000        -0.05285000
C        -2.95313000        +0.68255000        +0.06934000
C        -1.77161000        +1.42404000        +0.12810000
H        -3.90354000        +1.20325000        +0.11710000
H        -3.87892000        -1.24211000        -0.08988000
C        -1.83960000        +2.92746000        +0.24839000
H        -1.24214000        +3.42352000        -0.52065000
H        -1.45503000        +3.26427000        +1.21284000
H        -2.87211000        +3.26623000        +0.14638000
H        -1.73878000        -2.44393000        -0.21875000
H        +0.35825000        -1.18166000        -0.11386000
H        +0.33551000        +1.23549000        +0.09097000
--
0  1
C        -0.81786000        -1.25568000        +7.90795000
C        -0.83051000        +0.14680000        +8.02977000
C        -2.01662000        -1.98814000        +7.84932000
C        -3.21294000        -1.27254000        +7.92199000
C        -3.22655000        +0.11057000        +8.04418000
C        -2.04503000        +0.85206000        +8.10294000
H        -4.17696000        +0.63127000        +8.09194000
H        -4.15234000        -1.81409000        +7.88496000
C        -2.11302000        +2.35548000        +8.22323000
H        -1.51556000        +2.85154000        +7.45419000
H        -1.72845000        +2.69229000        +9.18768000
H        -3.14553000        +2.69425000        +8.12122000
H        -2.01220000        -3.01591000        +7.75609000
H        +0.08483000        -1.75364000        +7.86098000
H        +0.06209000        +0.66351000        +8.06581000
$end

$rem
JOBTYPE                   SP
METHOD                    B3LYP
DFT_D                     d3_op
BASIS                     6-311++G(d,p)
SYMMETRY                  False
THRESH                    12
SCF_CONVERGENCE           8
MAX_SUB_FILE_NUM          128
MEM_STATIC                400
MEM_TOTAL                 4000
$end
--------------------------------------------------------------

             Standard Nuclear Orientation (Angstroms)
    I     Atom           X                Y                Z
 ----------------------------------------------------------------
    1      C       4.0731884176    -1.2163891738     1.1782629658
    2      C       4.0479302295     0.1909296947     1.2059380734
    3      C       4.0367107775    -1.9173266723    -0.0400623894
    4      C       3.9692248491    -1.1652666722    -1.2141140224
    5      C       3.9422272439     0.2227864722    -1.1878747779
    6      C       3.9785583956     0.9332205693     0.0134632716
    7      H       3.8952604831     0.7719038472    -2.1221942669
    8      H       3.9339872799    -1.6815965047    -2.1676767110
    9      C       3.9597302840     2.4426506893    -0.0116412242
   10      H       4.7827520940     2.8684410761     0.5678362504
   11      H       3.0357098486     2.8332859061     0.4185787497
   12      H       4.0464916845     2.8024554357    -1.0384133786
   13      H       4.0589860599    -2.9487757889    -0.0653423000
   14      H       4.1191654549    -1.7414397140     2.0655214518
   15      H       4.0807075716     0.6837282388     2.1120827123
   16      C      -3.9267508488    -1.2376544514     1.2008940102
   17      C      -3.9520090369     0.1696644171     1.2285691178
   18      C      -3.9632284889    -1.9385919499    -0.0174313450
   19      C      -4.0307144173    -1.1865319498    -1.1914829780
   20      C      -4.0577120225     0.2015211946    -1.1652437335
   21      C      -4.0213808708     0.9119552917     0.0360943160
   22      H      -4.1046787833     0.7506385696    -2.0995632225
   23      H      -4.0659519865    -1.7028617823    -2.1450456666
   24      C      -4.0402089824     2.4213854117     0.0109898202
   25      H      -3.2171871724     2.8471757984     0.5904672948
   26      H      -4.9642294178     2.8120206284     0.4412097941
   27      H      -3.9534475819     2.7811901581    -1.0157823342
   28      H      -3.9409532065    -2.9700410665    -0.0427112556
   29      H      -3.8807738115    -1.7627049916     2.0881524962
   30      H      -3.9192316948     0.6624629612     2.1347137567
 ----------------------------------------------------------------

   13    -543.2869361590      2.95E-09 Convergence criterion met
 Total energy in the final basis set = -543.28693616

                    Orbital Energies (a.u.)
 --------------------------------------------------------------

 Alpha MOs
 -- Occupied --
-10.184 -10.184 -10.173 -10.172 -10.171 -10.171 -10.170 -10.169
-10.169 -10.169 -10.168 -10.168 -10.168 -10.168  -0.857  -0.857
 -0.775  -0.775  -0.746  -0.746  -0.690  -0.690  -0.610  -0.610
 -0.590  -0.589  -0.520  -0.520  -0.464  -0.464  -0.461  -0.461
 -0.423  -0.423  -0.422  -0.422  -0.417  -0.417  -0.389  -0.389
 -0.356  -0.356  -0.349  -0.349  -0.341  -0.341  -0.253  -0.253
 -0.246  -0.246

          Ground-State Mulliken Net Atomic Charges

     Atom                 Charge (a.u.)
  ----------------------------------------
      1 C                    -0.019050
      2 C                    -0.399294
      3 C                    -0.312242
      4 C                    -0.041054
      5 C                    -0.859040
      6 C                     1.021168
      7 H                     0.116872
      8 H                     0.167071
      9 C                    -0.567516
     10 H                     0.147472
     11 H                     0.154364
     12 H                     0.149587
     13 H                     0.141613
     14 H                     0.153966
     15 H                     0.146057
     16 C                    -0.031045
     17 C                    -0.381538
     18 C                    -0.298137
     19 C                    -0.066293
     20 C                    -0.828939
     21 C                     0.995368
     22 H                     0.118396
     23 H                     0.166448
     24 C                    -0.568468
     25 H                     0.145538
     26 H                     0.157674
     27 H                     0.149193
     28 H                     0.141593
     29 H                     0.154320
     30 H                     0.145917
  ----------------------------------------
  Sum of atomic charges =    -0.000000

                    Cartesian Multipole Moments
 -----------------------------------------------------------------
    Charge (ESU x 10^10)
                -0.0000
    Dipole Moment (Debye)
         X      -0.0126      Y       0.7410      Z       0.1420
       Tot       0.7546
    Quadrupole Moments (Debye-Ang)
        XX     -93.3712     XY      -0.2830     YY     -76.8744
        XZ       0.5870     YZ       0.0901     ZZ     -78.3001

 Total job time:  52.31s(wall), 207.83s(cpu)
        *  Thank you very much for using Q-Chem.  Have a nice day.  *
