 Q-Chem 5.0, Q-Chem, Inc., Pleasanton, CA (2017)
 Q-Chem 5.0.1 for Intel X86 EM64T Linux

User input:
--------------------------------------------------------------
$molecule
0  1
--
0  1
C        -0.54444000        -0.68370000        -0.06689000
C        -0.55709000        +0.71878000        +0.05493000
C        -1.74320000        -1.41616000        -0.12552000
C        -2.93952000        -0.70056000        -0.05285000
C        -2.95313000        +0.68255000        +0.06934000
C        -1.77161000        +1.42404000        +0.12810000
H        -3.90354000        +1.20325000        +0.11710000
H        -3.87892000        -1.24211000        -0.08988000
C        -1.83960000        +2.92746000        +0.24839000
H        -1.24214000        +3.42352000        -0.52065000
H        -1.45503000        +3.26427000        +1.21284000
H        -2.87211000        +3.26623000        +0.14638000
H        -1.73878000        -2.44393000        -0.21875000
H        +0.35825000        -1.18166000        -0.11386000
H        +0.33551000        +1.23549000        +0.09097000
--
0  1
C        -0.51898000        -1.00631000        +3.61893000
C        -0.53163000        +0.39617000        +3.74075000
C        -1.71774000        -1.73877000        +3.56030000
C        -2.91406000        -1.02317000        +3.63297000
C        -2.92767000        +0.35994000        +3.75516000
C        -1.74615000        +1.10143000        +3.81392000
H        -3.87808000        +0.88064000        +3.80292000
H        -3.85346000        -1.56472000        +3.59594000
C        -1.81414000        +2.60485000        +3.93421000
H        -1.21668000        +3.10091000        +3.16517000
H        -1.42957000        +2.94166000        +4.89866000
H        -2.84665000        +2.94362000        +3.83220000
H        -1.71332000        -2.76654000        +3.46707000
H        +0.38371000        -1.50427000        +3.57196000
H        +0.36097000        +0.91288000        +3.77679000
$end

$rem
JOBTYPE                   SP
METHOD                    B3LYP
DFT_D                     d3_op
BASIS                     6-311++G(d,p)
SYMMETRY                  False
THRESH                    12
SCF_CONVERGENCE           8
MAX_SUB_FILE_NUM          128
MEM_STATIC                400
MEM_TOTAL                 4000
$end
--------------------------------------------------------------

             Standard Nuclear Orientation (Angstroms)
    I     Atom           X                Y                Z
 ----------------------------------------------------------------
    1      C       1.8428859417    -1.2355623978     1.1902278074
    2      C       1.8490973312     0.1719554301     1.2186050511
    3      C       1.8432148190    -1.9351128433    -0.0294400704
    4      C       1.8443491540    -1.1813503603    -1.2043386464
    5      C       1.8484388555     0.2069477627    -1.1774965839
    6      C       1.8489232198     0.9160005338     0.0252060398
    7      H       1.8549271019     0.7572767658    -2.1122610284
    8      H       1.8386763557    -1.6964479413    -2.1592010892
    9      C       1.8662222974     2.4254678689     0.0012659702
   10      H       2.6729006464     2.8318579376     0.6165493602
   11      H       0.9336641942     2.8373387581     0.3913898201
   12      H       2.0059082962     2.7834554477    -1.0202920400
   13      H       1.8426383442    -2.9667937598    -0.0550661570
   14      H       1.8380154746    -1.7617945312     2.0779640289
   15      H       1.8538306779     0.6635988662     2.1259567982
   16      C      -1.8570880905    -1.2219050981     1.1898591234
   17      C      -1.8508767009     0.1856127298     1.2182363671
   18      C      -1.8567592131    -1.9214555436    -0.0298087544
   19      C      -1.8556248781    -1.1676930606    -1.2047073304
   20      C      -1.8515351766     0.2206050624    -1.1778652679
   21      C      -1.8510508123     0.9296578335     0.0248373558
   22      H      -1.8450469302     0.7709340655    -2.1126297124
   23      H      -1.8612976764    -1.6827906416    -2.1595697732
   24      C      -1.8337517347     2.4391251686     0.0008972862
   25      H      -1.0270733857     2.8455152373     0.6161806762
   26      H      -2.7663098379     2.8509960578     0.3910211361
   27      H      -1.6940657359     2.7971127474    -1.0206607240
   28      H      -1.8573356879    -2.9531364602    -0.0554348410
   29      H      -1.8619585575    -1.7481372315     2.0775953449
   30      H      -1.8461433542     0.6772561659     2.1255881142
 ----------------------------------------------------------------

   13    -543.2901183432      6.52E-09 Convergence criterion met
 Total energy in the final basis set = -543.29011834

                    Orbital Energies (a.u.)
 --------------------------------------------------------------

 Alpha MOs
 -- Occupied --
-10.180 -10.180 -10.168 -10.168 -10.168 -10.167 -10.167 -10.166
-10.165 -10.165 -10.164 -10.164 -10.164 -10.163  -0.854  -0.851
 -0.773  -0.770  -0.743  -0.741  -0.690  -0.685  -0.607  -0.605
 -0.587  -0.585  -0.518  -0.515  -0.462  -0.460  -0.459  -0.457
 -0.436  -0.419  -0.417  -0.415  -0.413  -0.408  -0.389  -0.385
 -0.364  -0.347  -0.345  -0.340  -0.338  -0.336  -0.259  -0.252
 -0.238  -0.231

          Ground-State Mulliken Net Atomic Charges

     Atom                 Charge (a.u.)
  ----------------------------------------
      1 C                    -0.117008
      2 C                    -0.333234
      3 C                    -0.297331
      4 C                    -0.326749
      5 C                    -0.159817
      6 C                     0.666300
      7 H                     0.163785
      8 H                     0.162808
      9 C                    -0.699220
     10 H                     0.152264
     11 H                     0.161875
     12 H                     0.141429
     13 H                     0.146297
     14 H                     0.161058
     15 H                     0.165797
     16 C                    -0.263726
     17 C                     0.007098
     18 C                    -0.356707
     19 C                    -0.188853
     20 C                    -0.346219
     21 C                     0.571005
     22 H                     0.156225
     23 H                     0.174587
     24 C                    -0.649321
     25 H                     0.124806
     26 H                     0.162648
     27 H                     0.136987
     28 H                     0.143149
     29 H                     0.161128
     30 H                     0.178943
  ----------------------------------------
  Sum of atomic charges =     0.000000

                    Cartesian Multipole Moments
 -----------------------------------------------------------------
    Charge (ESU x 10^10)
                 0.0000
    Dipole Moment (Debye)
         X      -0.0293      Y       0.5566      Z       0.1108
       Tot       0.5683
    Quadrupole Moments (Debye-Ang)
        XX     -94.4544     XY       0.0469     YY     -77.7686
        XZ      -0.0310     YZ       0.0050     ZZ     -78.7667

 Total job time:  108.11s(wall), 430.86s(cpu)
        *  Thank you very much for using Q-Chem.  Have a nice day.  *
