 Q-Chem 5.0, Q-Chem, Inc., Pleasanton, CA (2017)
 Q-Chem 5.0.1 for Intel X86 EM64T Linux

User input:
--------------------------------------------------------------
$molecule
0  1
C        -0.54444000        -0.68370000        -0.06689000
C        -0.55709000        +0.71878000        +0.05493000
C        -1.74320000        -1.41616000        -0.12552000
C        -2.93952000        -0.70056000        -0.05285000
C        -2.95313000        +0.68255000        +0.06934000
C        -1.77161000        +1.42404000        +0.12810000
H        -3.90354000        +1.20325000        +0.11710000
H        -3.87892000        -1.24211000        -0.08988000
C        -1.83960000        +2.92746000        +0.24839000
H        -1.24214000        +3.42352000        -0.52065000
H        -1.45503000        +3.26427000        +1.21284000
H        -2.87211000        +3.26623000        +0.14638000
H        -1.73878000        -2.44393000        -0.21875000
H        +0.35825000        -1.18166000        -0.11386000
H        +0.33551000        +1.23549000        +0.09097000
@C        -0.81786000        -1.25568000        +7.90795000
@C        -0.83051000        +0.14680000        +8.02977000
@C        -2.01662000        -1.98814000        +7.84932000
@C        -3.21294000        -1.27254000        +7.92199000
@C        -3.22655000        +0.11057000        +8.04418000
@C        -2.04503000        +0.85206000        +8.10294000
@H        -4.17696000        +0.63127000        +8.09194000
@H        -4.15234000        -1.81409000        +7.88496000
@C        -2.11302000        +2.35548000        +8.22323000
@H        -1.51556000        +2.85154000        +7.45419000
@H        -1.72845000        +2.69229000        +9.18768000
@H        -3.14553000        +2.69425000        +8.12122000
@H        -2.01220000        -3.01591000        +7.75609000
@H        +0.08483000        -1.75364000        +7.86098000
@H        +0.06209000        +0.66351000        +8.06581000
$end

$rem
JOBTYPE                   SP
METHOD                    B3LYP
DFT_D                     d3_op
BASIS                     6-311++G(d,p)
SYMMETRY                  False
THRESH                    12
SCF_CONVERGENCE           8
MAX_SUB_FILE_NUM          128
MEM_STATIC                400
MEM_TOTAL                 4000
$end
--------------------------------------------------------------

             Standard Nuclear Orientation (Angstroms)
    I     Atom           X                Y                Z
 ----------------------------------------------------------------
    1      C      -0.5444400000    -0.6837000000    -0.0668900000
    2      C      -0.5570900000     0.7187800000     0.0549300000
    3      C      -1.7432000000    -1.4161600000    -0.1255200000
    4      C      -2.9395200000    -0.7005600000    -0.0528500000
    5      C      -2.9531300000     0.6825500000     0.0693400000
    6      C      -1.7716100000     1.4240400000     0.1281000000
    7      H      -3.9035400000     1.2032500000     0.1171000000
    8      H      -3.8789200000    -1.2421100000    -0.0898800000
    9      C      -1.8396000000     2.9274600000     0.2483900000
   10      H      -1.2421400000     3.4235200000    -0.5206500000
   11      H      -1.4550300000     3.2642700000     1.2128400000
   12      H      -2.8721100000     3.2662300000     0.1463800000
   13      H      -1.7387800000    -2.4439300000    -0.2187500000
   14      H       0.3582500000    -1.1816600000    -0.1138600000
   15      H       0.3355100000     1.2354900000     0.0909700000
   16      GH     -0.8178600000    -1.2556800000     7.9079500000
   17      GH     -0.8305100000     0.1468000000     8.0297700000
   18      GH     -2.0166200000    -1.9881400000     7.8493200000
   19      GH     -3.2129400000    -1.2725400000     7.9219900000
   20      GH     -3.2265500000     0.1105700000     8.0441800000
   21      GH     -2.0450300000     0.8520600000     8.1029400000
   22      GH     -4.1769600000     0.6312700000     8.0919400000
   23      GH     -4.1523400000    -1.8140900000     7.8849600000
   24      GH     -2.1130200000     2.3554800000     8.2232300000
   25      GH     -1.5155600000     2.8515400000     7.4541900000
   26      GH     -1.7284500000     2.6922900000     9.1876800000
   27      GH     -3.1455300000     2.6942500000     8.1212200000
   28      GH     -2.0122000000    -3.0159100000     7.7560900000
   29      GH      0.0848300000    -1.7536400000     7.8609800000
   30      GH      0.0620900000     0.6635100000     8.0658100000
 ----------------------------------------------------------------

   12    -271.6435258068      9.49E-09 Convergence criterion met
 Total energy in the final basis set = -271.64352581

                    Orbital Energies (a.u.)
 --------------------------------------------------------------

 Alpha MOs
 -- Occupied --
-10.185 -10.174 -10.172 -10.171 -10.170 -10.169 -10.169  -0.858
 -0.776  -0.748  -0.691  -0.611  -0.591  -0.521  -0.465  -0.463
 -0.424  -0.423  -0.418  -0.390  -0.358  -0.350  -0.342  -0.255
 -0.247

          Ground-State Mulliken Net Atomic Charges

     Atom                 Charge (a.u.)
  ----------------------------------------
      1 C                    -0.023465
      2 C                    -0.393539
      3 C                    -0.310322
      4 C                    -0.044352
      5 C                    -0.853515
      6 C                     1.010119
      7 H                     0.117623
      8 H                     0.167460
      9 C                    -0.565671
     10 H                     0.147787
     11 H                     0.154657
     12 H                     0.149751
     13 H                     0.142050
     14 H                     0.154431
     15 H                     0.146950
     16 GH                    0.000037
     17 GH                   -0.000150
     18 GH                    0.000022
     19 GH                   -0.000008
     20 GH                   -0.000042
     21 GH                    0.000091
     22 GH                   -0.000006
     23 GH                   -0.000005
     24 GH                    0.000058
     25 GH                    0.000061
     26 GH                    0.000000
     27 GH                   -0.000006
     28 GH                    0.000004
     29 GH                   -0.000001
     30 GH                   -0.000021
  ----------------------------------------
  Sum of atomic charges =     0.000000

                    Cartesian Multipole Moments
 -----------------------------------------------------------------
    Charge (ESU x 10^10)
                -0.0000
    Dipole Moment (Debye)
         X       0.0624      Y       0.3877      Z       0.0344
       Tot       0.3942
    Quadrupole Moments (Debye-Ang)
        XX     -39.3469     XY      -0.6307     YY     -38.0644
        XZ      -0.0902     YZ       0.7301     ZZ     -46.4272

 Total job time:  47.32s(wall), 188.07s(cpu)
        *  Thank you very much for using Q-Chem.  Have a nice day.  *
