 Q-Chem 5.0, Q-Chem, Inc., Pleasanton, CA (2017)
 Q-Chem 5.0.1 for Intel X86 EM64T Linux

User input:
--------------------------------------------------------------
$molecule
0  1
C        -0.54444000        -0.68370000        -0.06689000
C        -0.55709000        +0.71878000        +0.05493000
C        -1.74320000        -1.41616000        -0.12552000
C        -2.93952000        -0.70056000        -0.05285000
C        -2.95313000        +0.68255000        +0.06934000
C        -1.77161000        +1.42404000        +0.12810000
H        -3.90354000        +1.20325000        +0.11710000
H        -3.87892000        -1.24211000        -0.08988000
C        -1.83960000        +2.92746000        +0.24839000
H        -1.24214000        +3.42352000        -0.52065000
H        -1.45503000        +3.26427000        +1.21284000
H        -2.87211000        +3.26623000        +0.14638000
H        -1.73878000        -2.44393000        -0.21875000
H        +0.35825000        -1.18166000        -0.11386000
H        +0.33551000        +1.23549000        +0.09097000
@C        -0.67090000        -0.94824000        +3.62147000
@C        -0.68355000        +0.45424000        +3.74329000
@C        -1.86966000        -1.68070000        +3.56284000
@C        -3.06598000        -0.96510000        +3.63551000
@C        -3.07959000        +0.41801000        +3.75770000
@C        -1.89807000        +1.15950000        +3.81646000
@H        -4.03000000        +0.93871000        +3.80546000
@H        -4.00538000        -1.50665000        +3.59848000
@C        -1.96606000        +2.66292000        +3.93675000
@H        -1.36860000        +3.15898000        +3.16771000
@H        -1.58149000        +2.99973000        +4.90120000
@H        -2.99857000        +3.00169000        +3.83474000
@H        -1.86524000        -2.70847000        +3.46961000
@H        +0.23179000        -1.44620000        +3.57450000
@H        +0.20905000        +0.97095000        +3.77933000
$end

$rem
JOBTYPE                   SP
METHOD                    B3LYP
DFT_D                     d3_op
BASIS                     6-311++G(d,p)
SYMMETRY                  False
THRESH                    12
SCF_CONVERGENCE           8
MAX_SUB_FILE_NUM          128
MEM_STATIC                400
MEM_TOTAL                 4000
$end
--------------------------------------------------------------

             Standard Nuclear Orientation (Angstroms)
    I     Atom           X                Y                Z
 ----------------------------------------------------------------
    1      C      -0.5444400000    -0.6837000000    -0.0668900000
    2      C      -0.5570900000     0.7187800000     0.0549300000
    3      C      -1.7432000000    -1.4161600000    -0.1255200000
    4      C      -2.9395200000    -0.7005600000    -0.0528500000
    5      C      -2.9531300000     0.6825500000     0.0693400000
    6      C      -1.7716100000     1.4240400000     0.1281000000
    7      H      -3.9035400000     1.2032500000     0.1171000000
    8      H      -3.8789200000    -1.2421100000    -0.0898800000
    9      C      -1.8396000000     2.9274600000     0.2483900000
   10      H      -1.2421400000     3.4235200000    -0.5206500000
   11      H      -1.4550300000     3.2642700000     1.2128400000
   12      H      -2.8721100000     3.2662300000     0.1463800000
   13      H      -1.7387800000    -2.4439300000    -0.2187500000
   14      H       0.3582500000    -1.1816600000    -0.1138600000
   15      H       0.3355100000     1.2354900000     0.0909700000
   16      GH     -0.6709000000    -0.9482400000     3.6214700000
   17      GH     -0.6835500000     0.4542400000     3.7432900000
   18      GH     -1.8696600000    -1.6807000000     3.5628400000
   19      GH     -3.0659800000    -0.9651000000     3.6355100000
   20      GH     -3.0795900000     0.4180100000     3.7577000000
   21      GH     -1.8980700000     1.1595000000     3.8164600000
   22      GH     -4.0300000000     0.9387100000     3.8054600000
   23      GH     -4.0053800000    -1.5066500000     3.5984800000
   24      GH     -1.9660600000     2.6629200000     3.9367500000
   25      GH     -1.3686000000     3.1589800000     3.1677100000
   26      GH     -1.5814900000     2.9997300000     4.9012000000
   27      GH     -2.9985700000     3.0016900000     3.8347400000
   28      GH     -1.8652400000    -2.7084700000     3.4696100000
   29      GH      0.2317900000    -1.4462000000     3.5745000000
   30      GH      0.2090500000     0.9709500000     3.7793300000
 ----------------------------------------------------------------

   13    -271.6442373826      1.54E-09 Convergence criterion met
 Total energy in the final basis set = -271.64423738

                    Orbital Energies (a.u.)
 --------------------------------------------------------------

 Alpha MOs
 -- Occupied --
-10.185 -10.174 -10.172 -10.171 -10.170 -10.169 -10.169  -0.858
 -0.776  -0.747  -0.691  -0.611  -0.591  -0.521  -0.465  -0.462
 -0.424  -0.423  -0.418  -0.390  -0.358  -0.350  -0.342  -0.255
 -0.248

          Ground-State Mulliken Net Atomic Charges

     Atom                 Charge (a.u.)
  ----------------------------------------
      1 C                    -0.191306
      2 C                    -0.218223
      3 C                    -0.326565
      4 C                    -0.257698
      5 C                    -0.217248
      6 C                     0.605741
      7 H                     0.159283
      8 H                     0.169136
      9 C                    -0.751898
     10 H                     0.153678
     11 H                     0.182030
     12 H                     0.143275
     13 H                     0.147424
     14 H                     0.162294
     15 H                     0.170797
     16 GH                    0.019068
     17 GH                    0.046112
     18 GH                    0.001116
     19 GH                   -0.013384
     20 GH                   -0.045319
     21 GH                    0.005895
     22 GH                    0.004819
     23 GH                    0.004978
     24 GH                    0.033623
     25 GH                   -0.012187
     26 GH                    0.000725
     27 GH                    0.000324
     28 GH                    0.003802
     29 GH                    0.007534
     30 GH                    0.012172
  ----------------------------------------
  Sum of atomic charges =    -0.000000

                    Cartesian Multipole Moments
 -----------------------------------------------------------------
    Charge (ESU x 10^10)
                -0.0000
    Dipole Moment (Debye)
         X       0.0574      Y       0.3936      Z       0.0292
       Tot       0.3988
    Quadrupole Moments (Debye-Ang)
        XX     -39.4185     XY      -0.6395     YY     -38.1465
        XZ      -0.0840     YZ       0.7164     ZZ     -46.3551

 Total job time:  102.18s(wall), 406.54s(cpu)
        *  Thank you very much for using Q-Chem.  Have a nice day.  *
