 Q-Chem 5.0, Q-Chem, Inc., Pleasanton, CA (2017)
 Q-Chem 5.0.1 for Intel X86 EM64T Linux

User input:
--------------------------------------------------------------
$molecule
0  1
C        -0.51898000        -1.00631000        +3.61893000
C        -0.53163000        +0.39617000        +3.74075000
C        -1.71774000        -1.73877000        +3.56030000
C        -2.91406000        -1.02317000        +3.63297000
C        -2.92767000        +0.35994000        +3.75516000
C        -1.74615000        +1.10143000        +3.81392000
H        -3.87808000        +0.88064000        +3.80292000
H        -3.85346000        -1.56472000        +3.59594000
C        -1.81414000        +2.60485000        +3.93421000
H        -1.21668000        +3.10091000        +3.16517000
H        -1.42957000        +2.94166000        +4.89866000
H        -2.84665000        +2.94362000        +3.83220000
H        -1.71332000        -2.76654000        +3.46707000
H        +0.38371000        -1.50427000        +3.57196000
H        +0.36097000        +0.91288000        +3.77679000
@C        -0.54444000        -0.68370000        -0.06689000
@C        -0.55709000        +0.71878000        +0.05493000
@C        -1.74320000        -1.41616000        -0.12552000
@C        -2.93952000        -0.70056000        -0.05285000
@C        -2.95313000        +0.68255000        +0.06934000
@C        -1.77161000        +1.42404000        +0.12810000
@H        -3.90354000        +1.20325000        +0.11710000
@H        -3.87892000        -1.24211000        -0.08988000
@C        -1.83960000        +2.92746000        +0.24839000
@H        -1.24214000        +3.42352000        -0.52065000
@H        -1.45503000        +3.26427000        +1.21284000
@H        -2.87211000        +3.26623000        +0.14638000
@H        -1.73878000        -2.44393000        -0.21875000
@H        +0.35825000        -1.18166000        -0.11386000
@H        +0.33551000        +1.23549000        +0.09097000
$end

$rem
JOBTYPE                   SP
METHOD                    B3LYP
DFT_D                     d3_op
BASIS                     6-311++G(d,p)
SYMMETRY                  False
THRESH                    12
SCF_CONVERGENCE           8
MAX_SUB_FILE_NUM          128
MEM_STATIC                400
MEM_TOTAL                 4000
$end
--------------------------------------------------------------

             Standard Nuclear Orientation (Angstroms)
    I     Atom           X                Y                Z
 ----------------------------------------------------------------
    1      C      -0.5189800000    -1.0063100000     3.6189300000
    2      C      -0.5316300000     0.3961700000     3.7407500000
    3      C      -1.7177400000    -1.7387700000     3.5603000000
    4      C      -2.9140600000    -1.0231700000     3.6329700000
    5      C      -2.9276700000     0.3599400000     3.7551600000
    6      C      -1.7461500000     1.1014300000     3.8139200000
    7      H      -3.8780800000     0.8806400000     3.8029200000
    8      H      -3.8534600000    -1.5647200000     3.5959400000
    9      C      -1.8141400000     2.6048500000     3.9342100000
   10      H      -1.2166800000     3.1009100000     3.1651700000
   11      H      -1.4295700000     2.9416600000     4.8986600000
   12      H      -2.8466500000     2.9436200000     3.8322000000
   13      H      -1.7133200000    -2.7665400000     3.4670700000
   14      H       0.3837100000    -1.5042700000     3.5719600000
   15      H       0.3609700000     0.9128800000     3.7767900000
   16      GH     -0.5444400000    -0.6837000000    -0.0668900000
   17      GH     -0.5570900000     0.7187800000     0.0549300000
   18      GH     -1.7432000000    -1.4161600000    -0.1255200000
   19      GH     -2.9395200000    -0.7005600000    -0.0528500000
   20      GH     -2.9531300000     0.6825500000     0.0693400000
   21      GH     -1.7716100000     1.4240400000     0.1281000000
   22      GH     -3.9035400000     1.2032500000     0.1171000000
   23      GH     -3.8789200000    -1.2421100000    -0.0898800000
   24      GH     -1.8396000000     2.9274600000     0.2483900000
   25      GH     -1.2421400000     3.4235200000    -0.5206500000
   26      GH     -1.4550300000     3.2642700000     1.2128400000
   27      GH     -2.8721100000     3.2662300000     0.1463800000
   28      GH     -1.7387800000    -2.4439300000    -0.2187500000
   29      GH      0.3582500000    -1.1816600000    -0.1138600000
   30      GH      0.3355100000     1.2354900000     0.0909700000
 ----------------------------------------------------------------

   13    -271.6442332976      1.41E-09 Convergence criterion met
 Total energy in the final basis set = -271.64423330

                    Orbital Energies (a.u.)
 --------------------------------------------------------------

 Alpha MOs
 -- Occupied --
-10.185 -10.174 -10.172 -10.171 -10.170 -10.169 -10.169  -0.858
 -0.776  -0.747  -0.691  -0.611  -0.591  -0.521  -0.465  -0.462
 -0.424  -0.423  -0.418  -0.390  -0.358  -0.350  -0.342  -0.255
 -0.248

          Ground-State Mulliken Net Atomic Charges

     Atom                 Charge (a.u.)
  ----------------------------------------
      1 C                    -0.247698
      2 C                    -0.080810
      3 C                    -0.348708
      4 C                    -0.224974
      5 C                    -0.293051
      6 C                     0.567616
      7 H                     0.158187
      8 H                     0.174176
      9 C                    -0.702318
     10 H                     0.156042
     11 H                     0.163466
     12 H                     0.137763
     13 H                     0.146212
     14 H                     0.162747
     15 H                     0.175263
     16 GH                    0.036242
     17 GH                   -0.023223
     18 GH                   -0.003297
     19 GH                   -0.018359
     20 GH                    0.020579
     21 GH                    0.005539
     22 GH                    0.010464
     23 GH                    0.002171
     24 GH                    0.003261
     25 GH                    0.000984
     26 GH                    0.006005
     27 GH                    0.000051
     28 GH                    0.005083
     29 GH                    0.005635
     30 GH                    0.004952
  ----------------------------------------
  Sum of atomic charges =    -0.000000

                    Cartesian Multipole Moments
 -----------------------------------------------------------------
    Charge (ESU x 10^10)
                -0.0000
    Dipole Moment (Debye)
         X       0.0612      Y       0.3901      Z       0.0409
       Tot       0.3970
    Quadrupole Moments (Debye-Ang)
        XX     -39.4247     XY      -0.6440     YY     -38.3999
        XZ       0.1291     YZ       2.1385     ZZ     -46.0569

 Total job time:  100.72s(wall), 401.37s(cpu)
        *  Thank you very much for using Q-Chem.  Have a nice day.  *
