 Q-Chem 5.0, Q-Chem, Inc., Pleasanton, CA (2017)
 Q-Chem 5.0.1 for Intel X86 EM64T Linux

User input:
--------------------------------------------------------------
$molecule
0  1
C        -0.48939000        -1.38123000        +7.90245000
C        -0.50204000        +0.02125000        +8.02427000
C        -1.68815000        -2.11369000        +7.84382000
C        -2.88447000        -1.39809000        +7.91649000
C        -2.89808000        -0.01498000        +8.03868000
C        -1.71656000        +0.72651000        +8.09744000
H        -3.84849000        +0.50572000        +8.08644000
H        -3.82387000        -1.93964000        +7.87946000
C        -1.78455000        +2.22993000        +8.21773000
H        -1.18709000        +2.72599000        +7.44869000
H        -1.39998000        +2.56674000        +9.18218000
H        -2.81706000        +2.56870000        +8.11572000
H        -1.68373000        -3.14146000        +7.75059000
H        +0.41330000        -1.87919000        +7.85548000
H        +0.39056000        +0.53796000        +8.06031000
@C        -0.54444000        -0.68370000        -0.06689000
@C        -0.55709000        +0.71878000        +0.05493000
@C        -1.74320000        -1.41616000        -0.12552000
@C        -2.93952000        -0.70056000        -0.05285000
@C        -2.95313000        +0.68255000        +0.06934000
@C        -1.77161000        +1.42404000        +0.12810000
@H        -3.90354000        +1.20325000        +0.11710000
@H        -3.87892000        -1.24211000        -0.08988000
@C        -1.83960000        +2.92746000        +0.24839000
@H        -1.24214000        +3.42352000        -0.52065000
@H        -1.45503000        +3.26427000        +1.21284000
@H        -2.87211000        +3.26623000        +0.14638000
@H        -1.73878000        -2.44393000        -0.21875000
@H        +0.35825000        -1.18166000        -0.11386000
@H        +0.33551000        +1.23549000        +0.09097000
$end

$rem
JOBTYPE                   SP
METHOD                    B3LYP
DFT_D                     d3_op
BASIS                     6-311++G(d,p)
SYMMETRY                  False
THRESH                    12
SCF_CONVERGENCE           8
MAX_SUB_FILE_NUM          128
MEM_STATIC                400
MEM_TOTAL                 4000
$end
--------------------------------------------------------------

             Standard Nuclear Orientation (Angstroms)
    I     Atom           X                Y                Z
 ----------------------------------------------------------------
    1      C      -0.4893900000    -1.3812300000     7.9024500000
    2      C      -0.5020400000     0.0212500000     8.0242700000
    3      C      -1.6881500000    -2.1136900000     7.8438200000
    4      C      -2.8844700000    -1.3980900000     7.9164900000
    5      C      -2.8980800000    -0.0149800000     8.0386800000
    6      C      -1.7165600000     0.7265100000     8.0974400000
    7      H      -3.8484900000     0.5057200000     8.0864400000
    8      H      -3.8238700000    -1.9396400000     7.8794600000
    9      C      -1.7845500000     2.2299300000     8.2177300000
   10      H      -1.1870900000     2.7259900000     7.4486900000
   11      H      -1.3999800000     2.5667400000     9.1821800000
   12      H      -2.8170600000     2.5687000000     8.1157200000
   13      H      -1.6837300000    -3.1414600000     7.7505900000
   14      H       0.4133000000    -1.8791900000     7.8554800000
   15      H       0.3905600000     0.5379600000     8.0603100000
   16      GH     -0.5444400000    -0.6837000000    -0.0668900000
   17      GH     -0.5570900000     0.7187800000     0.0549300000
   18      GH     -1.7432000000    -1.4161600000    -0.1255200000
   19      GH     -2.9395200000    -0.7005600000    -0.0528500000
   20      GH     -2.9531300000     0.6825500000     0.0693400000
   21      GH     -1.7716100000     1.4240400000     0.1281000000
   22      GH     -3.9035400000     1.2032500000     0.1171000000
   23      GH     -3.8789200000    -1.2421100000    -0.0898800000
   24      GH     -1.8396000000     2.9274600000     0.2483900000
   25      GH     -1.2421400000     3.4235200000    -0.5206500000
   26      GH     -1.4550300000     3.2642700000     1.2128400000
   27      GH     -2.8721100000     3.2662300000     0.1463800000
   28      GH     -1.7387800000    -2.4439300000    -0.2187500000
   29      GH      0.3582500000    -1.1816600000    -0.1138600000
   30      GH      0.3355100000     1.2354900000     0.0909700000
 ----------------------------------------------------------------

   12    -271.6435209134      9.49E-09 Convergence criterion met
 Total energy in the final basis set = -271.64352091

                    Orbital Energies (a.u.)
 --------------------------------------------------------------

 Alpha MOs
 -- Occupied --
-10.185 -10.174 -10.172 -10.171 -10.170 -10.169 -10.169  -0.858
 -0.776  -0.748  -0.691  -0.611  -0.591  -0.521  -0.465  -0.463
 -0.424  -0.423  -0.418  -0.390  -0.358  -0.350  -0.342  -0.255
 -0.247

          Ground-State Mulliken Net Atomic Charges

     Atom                 Charge (a.u.)
  ----------------------------------------
      1 C                    -0.038405
      2 C                    -0.375380
      3 C                    -0.294751
      4 C                    -0.069585
      5 C                    -0.821575
      6 C                     0.983841
      7 H                     0.119137
      8 H                     0.166925
      9 C                    -0.566709
     10 H                     0.145627
     11 H                     0.158067
     12 H                     0.149258
     13 H                     0.142034
     14 H                     0.154558
     15 H                     0.146948
     16 GH                    0.000014
     17 GH                   -0.000103
     18 GH                   -0.000019
     19 GH                    0.000074
     20 GH                   -0.000188
     21 GH                    0.000164
     22 GH                   -0.000031
     23 GH                    0.000003
     24 GH                    0.000075
     25 GH                    0.000001
     26 GH                    0.000031
     27 GH                    0.000003
     28 GH                    0.000004
     29 GH                   -0.000007
     30 GH                   -0.000011
  ----------------------------------------
  Sum of atomic charges =     0.000000

                    Cartesian Multipole Moments
 -----------------------------------------------------------------
    Charge (ESU x 10^10)
                -0.0000
    Dipole Moment (Debye)
         X       0.0624      Y       0.3876      Z       0.0342
       Tot       0.3941
    Quadrupole Moments (Debye-Ang)
        XX     -39.3398     XY      -0.6524     YY     -38.6047
        XZ       0.4093     YZ       3.7954     ZZ     -45.8807

 Total job time:  45.94s(wall), 183.12s(cpu)
        *  Thank you very much for using Q-Chem.  Have a nice day.  *
