 Q-Chem 5.0, Q-Chem, Inc., Pleasanton, CA (2017)
 Q-Chem 5.0.1 for Intel X86 EM64T Linux

User input:
--------------------------------------------------------------
$molecule
0  1
--
0  1
C        -0.54444000        -0.68370000        -0.06689000
C        -0.55709000        +0.71878000        +0.05493000
C        -1.74320000        -1.41616000        -0.12552000
C        -2.93952000        -0.70056000        -0.05285000
C        -2.95313000        +0.68255000        +0.06934000
C        -1.77161000        +1.42404000        +0.12810000
H        -3.90354000        +1.20325000        +0.11710000
H        -3.87892000        -1.24211000        -0.08988000
C        -1.83960000        +2.92746000        +0.24839000
H        -1.24214000        +3.42352000        -0.52065000
H        -1.45503000        +3.26427000        +1.21284000
H        -2.87211000        +3.26623000        +0.14638000
H        -1.73878000        -2.44393000        -0.21875000
H        +0.35825000        -1.18166000        -0.11386000
H        +0.33551000        +1.23549000        +0.09097000
--
0  1
C        -0.48939000        -1.38123000        +7.90245000
C        -0.50204000        +0.02125000        +8.02427000
C        -1.68815000        -2.11369000        +7.84382000
C        -2.88447000        -1.39809000        +7.91649000
C        -2.89808000        -0.01498000        +8.03868000
C        -1.71656000        +0.72651000        +8.09744000
H        -3.84849000        +0.50572000        +8.08644000
H        -3.82387000        -1.93964000        +7.87946000
C        -1.78455000        +2.22993000        +8.21773000
H        -1.18709000        +2.72599000        +7.44869000
H        -1.39998000        +2.56674000        +9.18218000
H        -2.81706000        +2.56870000        +8.11572000
H        -1.68373000        -3.14146000        +7.75059000
H        +0.41330000        -1.87919000        +7.85548000
H        +0.39056000        +0.53796000        +8.06031000
$end

$rem
JOBTYPE                   SP
METHOD                    B3LYP
DFT_D                     d3_op
BASIS                     6-311++G(d,p)
SYMMETRY                  False
THRESH                    12
SCF_CONVERGENCE           8
MAX_SUB_FILE_NUM          128
MEM_STATIC                400
MEM_TOTAL                 4000
$end
--------------------------------------------------------------

             Standard Nuclear Orientation (Angstroms)
    I     Atom           X                Y                Z
 ----------------------------------------------------------------
    1      C       3.9971852645    -1.2298839873     1.1901067097
    2      C       3.9986013551     0.1776468285     1.2184842106
    3      C       3.9997966206    -1.9294289225    -0.0295615774
    4      C       3.9982634416    -1.1756666384    -1.2044598282
    5      C       3.9976232400     0.2126373526    -1.1776173417
    6      C       3.9957913127     0.9216873348     0.0250856286
    7      H       4.0021574410     0.7629855238    -2.1123820218
    8      H       3.9942665787    -1.6907803085    -2.1593220776
    9      C       4.0079431491     2.4312048727     0.0011449454
   10      H       4.8132830482     2.8403420434     0.6163611019
   11      H       3.0740191954     2.8398945671     0.3913470032
   12      H       4.1463226813     2.7896667752    -1.0204245444
   13      H       4.0027345722    -2.9611058039    -0.0551881850
   14      H       3.9941827647    -1.7561299019     2.0778430450
   15      H       4.0017347442     0.6693033005     2.1258358300
   16      C      -4.0028118286    -1.2276182768     1.1899800444
   17      C      -4.0013957380     0.1799125390     1.2183575453
   18      C      -4.0002004724    -1.9271632120    -0.0296882427
   19      C      -4.0017336515    -1.1734009279    -1.2045864935
   20      C      -4.0023738531     0.2149030631    -1.1777440071
   21      C      -4.0042057804     0.9239530453     0.0249589632
   22      H      -3.9978396520     0.7652512343    -2.1125086872
   23      H      -4.0057305144    -1.6885145980    -2.1594487429
   24      C      -3.9920539440     2.4334705832     0.0010182801
   25      H      -3.1867140449     2.8426077539     0.6162344365
   26      H      -4.9259778977     2.8421602776     0.3912203378
   27      H      -3.8536744118     2.7919324857    -1.0205512098
   28      H      -3.9972625209    -2.9588400934    -0.0553148504
   29      H      -4.0058143284    -1.7538641914     2.0777163796
   30      H      -3.9982623488     0.6715690110     2.1257091646
 ----------------------------------------------------------------

   13    -543.2869447597      2.94E-09 Convergence criterion met
 Total energy in the final basis set = -543.28694476

                    Orbital Energies (a.u.)
 --------------------------------------------------------------

 Alpha MOs
 -- Occupied --
-10.184 -10.184 -10.173 -10.172 -10.171 -10.171 -10.169 -10.169
-10.169 -10.169 -10.168 -10.168 -10.168 -10.168  -0.857  -0.857
 -0.775  -0.775  -0.746  -0.746  -0.690  -0.690  -0.610  -0.610
 -0.589  -0.589  -0.520  -0.520  -0.464  -0.464  -0.461  -0.461
 -0.423  -0.423  -0.422  -0.422  -0.417  -0.417  -0.389  -0.389
 -0.356  -0.356  -0.349  -0.349  -0.341  -0.341  -0.253  -0.253
 -0.246  -0.246

          Ground-State Mulliken Net Atomic Charges

     Atom                 Charge (a.u.)
  ----------------------------------------
      1 C                    -0.013883
      2 C                    -0.401684
      3 C                    -0.314558
      4 C                    -0.041751
      5 C                    -0.859850
      6 C                     1.021987
      7 H                     0.116995
      8 H                     0.166956
      9 C                    -0.567458
     10 H                     0.147610
     11 H                     0.154608
     12 H                     0.149600
     13 H                     0.141504
     14 H                     0.154314
     15 H                     0.145590
     16 C                    -0.033607
     17 C                    -0.381080
     18 C                    -0.296109
     19 C                    -0.066613
     20 C                    -0.826418
     21 C                     0.993090
     22 H                     0.118491
     23 H                     0.166367
     24 C                    -0.568082
     25 H                     0.145518
     26 H                     0.157633
     27 H                     0.149113
     28 H                     0.141641
     29 H                     0.154114
     30 H                     0.145962
  ----------------------------------------
  Sum of atomic charges =    -0.000000

                    Cartesian Multipole Moments
 -----------------------------------------------------------------
    Charge (ESU x 10^10)
                -0.0000
    Dipole Moment (Debye)
         X      -0.0031      Y       0.7410      Z       0.1424
       Tot       0.7546
    Quadrupole Moments (Debye-Ang)
        XX     -93.4015     XY       0.0295     YY     -76.8696
        XZ      -0.0316     YZ       0.0798     ZZ     -78.2744

 Total job time:  51.59s(wall), 205.61s(cpu)
        *  Thank you very much for using Q-Chem.  Have a nice day.  *
