 Q-Chem 5.0, Q-Chem, Inc., Pleasanton, CA (2017)
 Q-Chem 5.0.1 for Intel X86 EM64T Linux

User input:
--------------------------------------------------------------
$molecule
0  1
--
0  1
C        -0.54444000        -0.68370000        -0.06689000
C        -0.55709000        +0.71878000        +0.05493000
C        -1.74320000        -1.41616000        -0.12552000
C        -2.93952000        -0.70056000        -0.05285000
C        -2.95313000        +0.68255000        +0.06934000
C        -1.77161000        +1.42404000        +0.12810000
H        -3.90354000        +1.20325000        +0.11710000
H        -3.87892000        -1.24211000        -0.08988000
C        -1.83960000        +2.92746000        +0.24839000
H        -1.24214000        +3.42352000        -0.52065000
H        -1.45503000        +3.26427000        +1.21284000
H        -2.87211000        +3.26623000        +0.14638000
H        -1.73878000        -2.44393000        -0.21875000
H        +0.35825000        -1.18166000        -0.11386000
H        +0.33551000        +1.23549000        +0.09097000
--
0  1
C        -0.67090000        -0.94824000        +3.62147000
C        -0.68355000        +0.45424000        +3.74329000
C        -1.86966000        -1.68070000        +3.56284000
C        -3.06598000        -0.96510000        +3.63551000
C        -3.07959000        +0.41801000        +3.75770000
C        -1.89807000        +1.15950000        +3.81646000
H        -4.03000000        +0.93871000        +3.80546000
H        -4.00538000        -1.50665000        +3.59848000
C        -1.96606000        +2.66292000        +3.93675000
H        -1.36860000        +3.15898000        +3.16771000
H        -1.58149000        +2.99973000        +4.90120000
H        -2.99857000        +3.00169000        +3.83474000
H        -1.86524000        -2.70847000        +3.46961000
H        +0.23179000        -1.44620000        +3.57450000
H        +0.20905000        +0.97095000        +3.77933000
$end

$rem
JOBTYPE                   SP
METHOD                    B3LYP
DFT_D                     d3_op
BASIS                     6-311++G(d,p)
SYMMETRY                  False
THRESH                    12
SCF_CONVERGENCE           8
MAX_SUB_FILE_NUM          128
MEM_STATIC                400
MEM_TOTAL                 4000
$end
--------------------------------------------------------------

             Standard Nuclear Orientation (Angstroms)
    I     Atom           X                Y                Z
 ----------------------------------------------------------------
    1      C       1.9785748881    -1.1592533016     1.1559843177
    2      C       1.9089916988     0.2465761991     1.1834047532
    3      C       1.9462073249    -1.8621202040    -0.0613451875
    4      C       1.8373053973    -1.1136695653    -1.2345918976
    5      C       1.7665750803     0.2728473349    -1.2085725202
    6      C       1.7982404382     0.9851856981    -0.0082304733
    7      H       1.6882152452     0.8193315709    -2.1423301932
    8      H       1.8042622426    -1.6317384295    -2.1872895335
    9      C       1.7310475423     2.4932305028    -0.0337256139
   10      H       2.5486785698     2.9455047172     0.5331818165
   11      H       0.8016029680     2.8546898703     0.4100972927
   12      H       1.7909722902     2.8546638720    -1.0618418512
   13      H       2.0008922183    -2.8923627154    -0.0864941909
   14      H       2.0544771265    -1.6817577723     2.0426903044
   15      H       1.9396159924     0.7410037062     2.0887369898
   16      C      -1.7186399468    -1.2866978937     1.2218126815
   17      C      -1.7882231361     0.1191316069     1.2492331170
   18      C      -1.7510075100    -1.9895647962     0.0044831763
   19      C      -1.8599094376    -1.2411141574    -1.1687635338
   20      C      -1.9306397546     0.1454027428    -1.1427441564
   21      C      -1.8989743967     0.8577411059     0.0575978905
   22      H      -2.0089995896     0.6918869787    -2.0765018294
   23      H      -1.8929525922    -1.7591830216    -2.1214611697
   24      C      -1.9661672926     2.3657859107     0.0321027499
   25      H      -1.1485362651     2.8180601251     0.5990101804
   26      H      -2.8956118669     2.7272452782     0.4759256565
   27      H      -1.9062425447     2.7272192799    -0.9960134874
   28      H      -1.6963226166    -3.0198073075    -0.0206658271
   29      H      -1.6427377084    -1.8092023644     2.1085186682
   30      H      -1.7575988424     0.6135591140     2.1545653536
 ----------------------------------------------------------------

   14    -543.2900457922      5.19E-09 Convergence criterion met
 Total energy in the final basis set = -543.29004579

                    Orbital Energies (a.u.)
 --------------------------------------------------------------

 Alpha MOs
 -- Occupied --
-10.180 -10.180 -10.168 -10.168 -10.168 -10.167 -10.167 -10.166
-10.165 -10.165 -10.164 -10.164 -10.164 -10.163  -0.854  -0.851
 -0.773  -0.770  -0.743  -0.741  -0.690  -0.685  -0.607  -0.605
 -0.587  -0.585  -0.518  -0.515  -0.462  -0.460  -0.459  -0.457
 -0.436  -0.419  -0.417  -0.415  -0.413  -0.408  -0.389  -0.385
 -0.364  -0.347  -0.345  -0.340  -0.338  -0.336  -0.259  -0.252
 -0.238  -0.231

          Ground-State Mulliken Net Atomic Charges

     Atom                 Charge (a.u.)
  ----------------------------------------
      1 C                    -0.193709
      2 C                    -0.241538
      3 C                    -0.332764
      4 C                    -0.239250
      5 C                    -0.198153
      6 C                     0.660669
      7 H                     0.161842
      8 H                     0.166240
      9 C                    -0.717093
     10 H                     0.152471
     11 H                     0.153677
     12 H                     0.142785
     13 H                     0.145837
     14 H                     0.158829
     15 H                     0.166093
     16 C                    -0.193275
     17 C                    -0.072534
     18 C                    -0.316167
     19 C                    -0.281995
     20 C                    -0.329016
     21 C                     0.603025
     22 H                     0.155872
     23 H                     0.172319
     24 C                    -0.642592
     25 H                     0.133029
     26 H                     0.162723
     27 H                     0.137459
     28 H                     0.143911
     29 H                     0.163016
     30 H                     0.178288
  ----------------------------------------
  Sum of atomic charges =     0.000000

                    Cartesian Multipole Moments
 -----------------------------------------------------------------
    Charge (ESU x 10^10)
                 0.0000
    Dipole Moment (Debye)
         X      -0.0492      Y       0.5560      Z       0.1096
       Tot       0.5689
    Quadrupole Moments (Debye-Ang)
        XX     -94.3730     XY      -0.8089     YY     -77.8058
        XZ       0.7599     YZ       0.0404     ZZ     -78.8140

 Total job time:  115.16s(wall), 458.41s(cpu)
        *  Thank you very much for using Q-Chem.  Have a nice day.  *
