 Q-Chem 5.0, Q-Chem, Inc., Pleasanton, CA (2017)
 Q-Chem 5.0.1 for Intel X86 EM64T Linux

User input:
--------------------------------------------------------------
$molecule
0  1
--
0  1
C        -0.55335000        -0.66344000        -0.04955000
C        -0.58369000        +0.72363000        +0.07143000
C        -1.74416000        -1.38805000        -0.12104000
C        -2.96100000        -0.71253000        -0.06974000
C        -2.98560000        +0.67733000        +0.05133000
C        -1.80096000        +1.41593000        +0.12202000
H        -3.93869000        +1.19496000        +0.09042000
H        -3.89285000        -1.26490000        -0.12448000
C        -1.82561000        +2.92062000        +0.24749000
H        -1.30124000        +3.39464000        -0.58804000
H        -1.33421000        +3.24931000        +1.16844000
H        -2.84892000        +3.30103000        +0.25949000
H        -1.72216000        -2.46788000        -0.21620000
H        +0.39889000        -1.18111000        -0.08841000
H        +0.34820000        +1.27792000        +0.12648000
--
0  1
C        -0.57785000        -0.98520000        +3.63635000
C        -0.60819000        +0.40187000        +3.75733000
C        -1.76866000        -1.70981000        +3.56486000
C        -2.98550000        -1.03429000        +3.61616000
C        -3.01010000        +0.35557000        +3.73723000
C        -1.82546000        +1.09417000        +3.80792000
H        -3.96319000        +0.87320000        +3.77632000
H        -3.91735000        -1.58666000        +3.56142000
C        -1.85011000        +2.59886000        +3.93339000
H        -1.32574000        +3.07288000        +3.09786000
H        -1.35871000        +2.92755000        +4.85434000
H        -2.87342000        +2.97927000        +3.94539000
H        -1.74666000        -2.78964000        +3.46970000
H        +0.37439000        -1.50287000        +3.59749000
H        +0.32370000        +0.95616000        +3.81238000
$end

$rem
JOBTYPE                   SP
METHOD                    B3LYP
DFT_D                     d3_op
BASIS                     6-311++G(d,p)
SYMMETRY                  False
THRESH                    12
SCF_CONVERGENCE           8
MAX_SUB_FILE_NUM          128
MEM_STATIC                400
MEM_TOTAL                 4000
$end
--------------------------------------------------------------

             Standard Nuclear Orientation (Angstroms)
    I     Atom           X                Y                Z
 ----------------------------------------------------------------
    1      C       1.8442867145    -1.2015304988     1.2062327813
    2      C       1.8488731886     0.1911160711     1.2003713164
    3      C       1.8422441757    -1.9085649491     0.0027806459
    4      C       1.8441932381    -1.2098606981    -1.2019878451
    5      C       1.8489796405     0.1854711654    -1.2020623397
    6      C       1.8530419430     0.9064728719    -0.0045486643
    7      H       1.8505565223     0.7212103922    -2.1459004547
    8      H       1.8427206070    -1.7484307233    -2.1434726651
    9      C       1.8638165470     2.4165466458    -0.0026926566
   10      H       2.7421576024     2.8039809097     0.5228365242
   11      H       0.9795522745     2.8182532868     0.5016568747
   12      H       1.8795197641     2.8144390977    -1.0192821164
   13      H       1.8396364157    -2.9927959367     0.0057165350
   14      H       1.8424715987    -1.7372738545     2.1492222342
   15      H       1.8502107529     0.7316252270     2.1419311615
   16      C      -1.8556908144    -1.1890869807     1.2061820805
   17      C      -1.8511043403     0.2035595891     1.2003206156
   18      C      -1.8577333531    -1.8961214310     0.0027299450
   19      C      -1.8557842908    -1.1974171800    -1.2020385460
   20      C      -1.8509978883     0.1979146835    -1.2021130405
   21      C      -1.8469355858     0.9189163900    -0.0045993652
   22      H      -1.8494210066     0.7336539103    -2.1459511555
   23      H      -1.8572569219    -1.7359872052    -2.1435233660
   24      C      -1.8361609819     2.4289901639    -0.0027433574
   25      H      -0.9578199265     2.8164244277     0.5227858233
   26      H      -2.7204252543     2.8306968048     0.5016061738
   27      H      -1.8204577648     2.8268826157    -1.0193328173
   28      H      -1.8603411132    -2.9803524187     0.0056658342
   29      H      -1.8575059302    -1.7248303365     2.1491715334
   30      H      -1.8497667759     0.7440687451     2.1418804607
 ----------------------------------------------------------------

   13    -543.3036223523      6.31E-09 Convergence criterion met
 Total energy in the final basis set = -543.30362235

                    Orbital Energies (a.u.)
 --------------------------------------------------------------

 Alpha MOs
 -- Occupied --
-10.180 -10.180 -10.170 -10.170 -10.170 -10.170 -10.168 -10.168
-10.168 -10.168 -10.168 -10.168 -10.167 -10.167  -0.856  -0.853
 -0.772  -0.769  -0.743  -0.741  -0.687  -0.683  -0.604  -0.602
 -0.584  -0.581  -0.512  -0.509  -0.461  -0.459  -0.454  -0.452
 -0.437  -0.419  -0.418  -0.410  -0.409  -0.406  -0.389  -0.384
 -0.365  -0.343  -0.342  -0.341  -0.340  -0.338  -0.261  -0.253
 -0.240  -0.232

          Ground-State Mulliken Net Atomic Charges

     Atom                 Charge (a.u.)
  ----------------------------------------
      1 C                    -0.188375
      2 C                    -0.161701
      3 C                    -0.345405
      4 C                    -0.273032
      5 C                    -0.197653
      6 C                     0.577673
      7 H                     0.164175
      8 H                     0.171173
      9 C                    -0.688777
     10 H                     0.157012
     11 H                     0.144596
     12 H                     0.139949
     13 H                     0.152018
     14 H                     0.168402
     15 H                     0.179028
     16 C                    -0.209880
     17 C                    -0.107320
     18 C                    -0.342752
     19 C                    -0.252873
     20 C                    -0.240874
     21 C                     0.577912
     22 H                     0.163283
     23 H                     0.171685
     24 C                    -0.693938
     25 H                     0.137055
     26 H                     0.157762
     27 H                     0.139690
     28 H                     0.151987
     29 H                     0.167784
     30 H                     0.181394
  ----------------------------------------
  Sum of atomic charges =     0.000000

                    Cartesian Multipole Moments
 -----------------------------------------------------------------
    Charge (ESU x 10^10)
                 0.0000
    Dipole Moment (Debye)
         X       0.0072      Y       0.5840      Z       0.0445
       Tot       0.5857
    Quadrupole Moments (Debye-Ang)
        XX     -94.6050     XY       0.0541     YY     -78.4030
        XZ      -0.0025     YZ       0.0413     ZZ     -78.7192

 Total job time:  108.57s(wall), 432.21s(cpu)
        *  Thank you very much for using Q-Chem.  Have a nice day.  *
