 Q-Chem 5.0, Q-Chem, Inc., Pleasanton, CA (2017)
 Q-Chem 5.0.1 for Intel X86 EM64T Linux

User input:
--------------------------------------------------------------
$molecule
0  1
C        -0.51003000        -1.11966000        +4.91395000
C        -0.52268000        +0.28282000        +5.03577000
C        -1.70879000        -1.85212000        +4.85532000
C        -2.90511000        -1.13652000        +4.92799000
C        -2.91872000        +0.24659000        +5.05018000
C        -1.73720000        +0.98808000        +5.10894000
H        -3.86913000        +0.76729000        +5.09794000
H        -3.84451000        -1.67807000        +4.89096000
C        -1.80519000        +2.49150000        +5.22923000
H        -1.20773000        +2.98756000        +4.46019000
H        -1.42062000        +2.82831000        +6.19368000
H        -2.83770000        +2.83027000        +5.12722000
H        -1.70437000        -2.87989000        +4.76209000
H        +0.39266000        -1.61762000        +4.86698000
H        +0.36992000        +0.79953000        +5.07181000
@C        -0.54444000        -0.68370000        -0.06689000
@C        -0.55709000        +0.71878000        +0.05493000
@C        -1.74320000        -1.41616000        -0.12552000
@C        -2.93952000        -0.70056000        -0.05285000
@C        -2.95313000        +0.68255000        +0.06934000
@C        -1.77161000        +1.42404000        +0.12810000
@H        -3.90354000        +1.20325000        +0.11710000
@H        -3.87892000        -1.24211000        -0.08988000
@C        -1.83960000        +2.92746000        +0.24839000
@H        -1.24214000        +3.42352000        -0.52065000
@H        -1.45503000        +3.26427000        +1.21284000
@H        -2.87211000        +3.26623000        +0.14638000
@H        -1.73878000        -2.44393000        -0.21875000
@H        +0.35825000        -1.18166000        -0.11386000
@H        +0.33551000        +1.23549000        +0.09097000
$end

$rem
JOBTYPE                   SP
METHOD                    B3LYP
DFT_D                     d3_op
BASIS                     6-311++G(d,p)
SYMMETRY                  False
THRESH                    12
SCF_CONVERGENCE           8
MAX_SUB_FILE_NUM          128
MEM_STATIC                400
MEM_TOTAL                 4000
$end
--------------------------------------------------------------

             Standard Nuclear Orientation (Angstroms)
    I     Atom           X                Y                Z
 ----------------------------------------------------------------
    1      C      -0.5100300000    -1.1196600000     4.9139500000
    2      C      -0.5226800000     0.2828200000     5.0357700000
    3      C      -1.7087900000    -1.8521200000     4.8553200000
    4      C      -2.9051100000    -1.1365200000     4.9279900000
    5      C      -2.9187200000     0.2465900000     5.0501800000
    6      C      -1.7372000000     0.9880800000     5.1089400000
    7      H      -3.8691300000     0.7672900000     5.0979400000
    8      H      -3.8445100000    -1.6780700000     4.8909600000
    9      C      -1.8051900000     2.4915000000     5.2292300000
   10      H      -1.2077300000     2.9875600000     4.4601900000
   11      H      -1.4206200000     2.8283100000     6.1936800000
   12      H      -2.8377000000     2.8302700000     5.1272200000
   13      H      -1.7043700000    -2.8798900000     4.7620900000
   14      H       0.3926600000    -1.6176200000     4.8669800000
   15      H       0.3699200000     0.7995300000     5.0718100000
   16      GH     -0.5444400000    -0.6837000000    -0.0668900000
   17      GH     -0.5570900000     0.7187800000     0.0549300000
   18      GH     -1.7432000000    -1.4161600000    -0.1255200000
   19      GH     -2.9395200000    -0.7005600000    -0.0528500000
   20      GH     -2.9531300000     0.6825500000     0.0693400000
   21      GH     -1.7716100000     1.4240400000     0.1281000000
   22      GH     -3.9035400000     1.2032500000     0.1171000000
   23      GH     -3.8789200000    -1.2421100000    -0.0898800000
   24      GH     -1.8396000000     2.9274600000     0.2483900000
   25      GH     -1.2421400000     3.4235200000    -0.5206500000
   26      GH     -1.4550300000     3.2642700000     1.2128400000
   27      GH     -2.8721100000     3.2662300000     0.1463800000
   28      GH     -1.7387800000    -2.4439300000    -0.2187500000
   29      GH      0.3582500000    -1.1816600000    -0.1138600000
   30      GH      0.3355100000     1.2354900000     0.0909700000
 ----------------------------------------------------------------

   12    -271.6437140485      9.70E-09 Convergence criterion met
 Total energy in the final basis set = -271.64371405

                    Orbital Energies (a.u.)
 --------------------------------------------------------------

 Alpha MOs
 -- Occupied --
-10.185 -10.174 -10.172 -10.171 -10.170 -10.169 -10.169  -0.858
 -0.776  -0.747  -0.691  -0.611  -0.591  -0.521  -0.465  -0.462
 -0.424  -0.423  -0.418  -0.390  -0.358  -0.350  -0.342  -0.255
 -0.247

          Ground-State Mulliken Net Atomic Charges

     Atom                 Charge (a.u.)
  ----------------------------------------
      1 C                    -0.122650
      2 C                    -0.396033
      3 C                    -0.318554
      4 C                    -0.169744
      5 C                    -0.454044
      6 C                     0.869890
      7 H                     0.150126
      8 H                     0.170995
      9 C                    -0.652249
     10 H                     0.153290
     11 H                     0.158513
     12 H                     0.143402
     13 H                     0.150610
     14 H                     0.161422
     15 H                     0.167327
     16 GH                   -0.019276
     17 GH                    0.010565
     18 GH                    0.020724
     19 GH                   -0.019888
     20 GH                    0.000550
     21 GH                   -0.012963
     22 GH                   -0.000325
     23 GH                   -0.000557
     24 GH                    0.009838
     25 GH                   -0.000324
     26 GH                   -0.002663
     27 GH                    0.000936
     28 GH                    0.002008
     29 GH                   -0.000782
     30 GH                   -0.000143
  ----------------------------------------
  Sum of atomic charges =     0.000000

                    Cartesian Multipole Moments
 -----------------------------------------------------------------
    Charge (ESU x 10^10)
                 0.0000
    Dipole Moment (Debye)
         X       0.0621      Y       0.3878      Z       0.0307
       Tot       0.3940
    Quadrupole Moments (Debye-Ang)
        XX     -39.3552     XY      -0.6437     YY     -38.4165
        XZ       0.2290     YZ       2.6429     ZZ     -46.1030

 Total job time:  78.25s(wall), 311.82s(cpu)
        *  Thank you very much for using Q-Chem.  Have a nice day.  *
