 Q-Chem 5.0, Q-Chem, Inc., Pleasanton, CA (2017)
 Q-Chem 5.0.1 for Intel X86 EM64T Linux

User input:
--------------------------------------------------------------
$molecule
0  1
--
0  1
C        -0.54444000        -0.68370000        -0.06689000
C        -0.55709000        +0.71878000        +0.05493000
C        -1.74320000        -1.41616000        -0.12552000
C        -2.93952000        -0.70056000        -0.05285000
C        -2.95313000        +0.68255000        +0.06934000
C        -1.77161000        +1.42404000        +0.12810000
H        -3.90354000        +1.20325000        +0.11710000
H        -3.87892000        -1.24211000        -0.08988000
C        -1.83960000        +2.92746000        +0.24839000
H        -1.24214000        +3.42352000        -0.52065000
H        -1.45503000        +3.26427000        +1.21284000
H        -2.87211000        +3.26623000        +0.14638000
H        -1.73878000        -2.44393000        -0.21875000
H        +0.35825000        -1.18166000        -0.11386000
H        +0.33551000        +1.23549000        +0.09097000
--
0  1
C        -0.71533000        -1.04119000        +4.91739000
C        -0.72798000        +0.36129000        +5.03921000
C        -1.91409000        -1.77365000        +4.85876000
C        -3.11041000        -1.05805000        +4.93143000
C        -3.12402000        +0.32506000        +5.05362000
C        -1.94250000        +1.06655000        +5.11238000
H        -4.07443000        +0.84576000        +5.10138000
H        -4.04981000        -1.59960000        +4.89440000
C        -2.01049000        +2.56997000        +5.23267000
H        -1.41303000        +3.06603000        +4.46363000
H        -1.62592000        +2.90678000        +6.19712000
H        -3.04300000        +2.90874000        +5.13066000
H        -1.90967000        -2.80142000        +4.76553000
H        +0.18736000        -1.53915000        +4.87042000
H        +0.16462000        +0.87800000        +5.07525000
$end

$rem
JOBTYPE                   SP
METHOD                    B3LYP
DFT_D                     d3_op
BASIS                     6-311++G(d,p)
SYMMETRY                  False
THRESH                    12
SCF_CONVERGENCE           8
MAX_SUB_FILE_NUM          128
MEM_STATIC                400
MEM_TOTAL                 4000
$end
--------------------------------------------------------------

             Standard Nuclear Orientation (Angstroms)
    I     Atom           X                Y                Z
 ----------------------------------------------------------------
    1      C       2.5875310470    -1.2029217907     1.1690478842
    2      C       2.5530137906     0.2042021839     1.1966334671
    3      C       2.5492849339    -1.9043235972    -0.0489559774
    4      C       2.4705542968    -1.1529590309    -1.2227526406
    5      C       2.4344188526     0.2348877471    -1.1965906301
    6      C       2.4723650047     0.9457816678     0.0044254360
    7      H       2.3788332644     0.7834978322    -2.1307351011
    8      H       2.4337170410    -1.6696976821    -2.1760333790
    9      C       2.4433154363     2.4550473526    -0.0208180974
   10      H       3.2665314767     2.8864409278     0.5542222759
   11      H       1.5189969646     2.8395818896     0.4142306540
   12      H       2.5222286923     2.8152248404    -1.0480926120
   13      H       2.5783197443    -2.9356056919    -0.0741901456
   14      H       2.6417167453    -1.7274813169     2.0561334450
   15      H       2.5872969638     0.6973844379     2.1025135883
   16      C      -2.4120905956    -1.2496270880     1.2096884691
   17      C      -2.4466078520     0.1574968866     1.2372740520
   18      C      -2.4503367087    -1.9510288945    -0.0083153924
   19      C      -2.5290673457    -1.1996643282    -1.1821120556
   20      C      -2.5652027900     0.1881824498    -1.1559500452
   21      C      -2.5272566378     0.8990763705     0.0450660210
   22      H      -2.6207883781     0.7367925349    -2.0900945161
   23      H      -2.5659046016    -1.7164029794    -2.1353927941
   24      C      -2.5563062062     2.4083420552     0.0198224875
   25      H      -1.7330901659     2.8397356305     0.5948628608
   26      H      -3.4806246780     2.7928765923     0.4548712389
   27      H      -2.4773929503     2.7685195431    -1.0074520271
   28      H      -2.4213018983    -2.9823109892    -0.0335495607
   29      H      -2.3579048972    -1.7741866142     2.0967740299
   30      H      -2.4123246787     0.6506791406     2.1431541733
 ----------------------------------------------------------------

   13    -543.2880738749      6.58E-09 Convergence criterion met
 Total energy in the final basis set = -543.28807387

                    Orbital Energies (a.u.)
 --------------------------------------------------------------

 Alpha MOs
 -- Occupied --
-10.182 -10.182 -10.170 -10.170 -10.169 -10.169 -10.168 -10.168
-10.168 -10.167 -10.166 -10.166 -10.166 -10.166  -0.855  -0.855
 -0.773  -0.773  -0.744  -0.744  -0.689  -0.689  -0.608  -0.608
 -0.588  -0.587  -0.518  -0.518  -0.462  -0.462  -0.460  -0.459
 -0.424  -0.421  -0.420  -0.420  -0.415  -0.415  -0.388  -0.388
 -0.356  -0.353  -0.347  -0.347  -0.339  -0.339  -0.253  -0.249
 -0.245  -0.242

          Ground-State Mulliken Net Atomic Charges

     Atom                 Charge (a.u.)
  ----------------------------------------
      1 C                    -0.071771
      2 C                    -0.430551
      3 C                    -0.317858
      4 C                    -0.120727
      5 C                    -0.581018
      6 C                     0.950323
      7 H                     0.145428
      8 H                     0.165720
      9 C                    -0.653969
     10 H                     0.145662
     11 H                     0.153369
     12 H                     0.144199
     13 H                     0.149330
     14 H                     0.156701
     15 H                     0.163924
     16 C                    -0.136075
     17 C                    -0.361930
     18 C                    -0.292206
     19 C                    -0.189367
     20 C                    -0.472888
     21 C                     0.870268
     22 H                     0.146311
     23 H                     0.168243
     24 C                    -0.652076
     25 H                     0.147938
     26 H                     0.157551
     27 H                     0.143890
     28 H                     0.149304
     29 H                     0.157413
     30 H                     0.164860
  ----------------------------------------
  Sum of atomic charges =     0.000000

                    Cartesian Multipole Moments
 -----------------------------------------------------------------
    Charge (ESU x 10^10)
                 0.0000
    Dipole Moment (Debye)
         X      -0.0181      Y       0.6499      Z       0.1287
       Tot       0.6628
    Quadrupole Moments (Debye-Ang)
        XX     -93.9554     XY      -0.3845     YY     -77.2100
        XZ       0.6526     YZ       0.0679     ZZ     -78.4637

 Total job time:  79.65s(wall), 316.86s(cpu)
        *  Thank you very much for using Q-Chem.  Have a nice day.  *
