 Q-Chem 5.0, Q-Chem, Inc., Pleasanton, CA (2017)
 Q-Chem 5.0.1 for Intel X86 EM64T Linux

User input:
--------------------------------------------------------------
$molecule
0  1
--
0  1
C        -0.54444000        -0.68370000        -0.06689000
C        -0.55709000        +0.71878000        +0.05493000
C        -1.74320000        -1.41616000        -0.12552000
C        -2.93952000        -0.70056000        -0.05285000
C        -2.95313000        +0.68255000        +0.06934000
C        -1.77161000        +1.42404000        +0.12810000
H        -3.90354000        +1.20325000        +0.11710000
H        -3.87892000        -1.24211000        -0.08988000
C        -1.83960000        +2.92746000        +0.24839000
C        -1.78103000        -2.92226000        -0.24590000
H        -1.39752000        -3.25223000        -1.21323000
H        -2.80572000        -3.28175000        -0.13627000
H        -1.16958000        -3.40777000        +0.51926000
H        -1.24214000        +3.42352000        -0.52065000
H        -1.45503000        +3.26427000        +1.21284000
H        -2.87211000        +3.26623000        +0.14638000
H        +0.35825000        -1.18166000        -0.11386000
H        +0.33551000        +1.23549000        +0.09097000
--
0  1
C        -2.98251000        +0.63783000        +7.43707000
C        -2.99516000        +2.04031000        +7.55889000
C        -4.18127000        -0.09463000        +7.37844000
C        -5.37759000        +0.62097000        +7.45111000
C        -5.39120000        +2.00408000        +7.57330000
C        -4.20968000        +2.74557000        +7.63206000
H        -6.34161000        +2.52478000        +7.62106000
H        -6.31699000        +0.07942000        +7.41408000
C        -4.27767000        +4.24899000        +7.75235000
C        -4.21910000        -1.60073000        +7.25806000
H        -3.83559000        -1.93070000        +6.29073000
H        -5.24379000        -1.96022000        +7.36769000
H        -3.60765000        -2.08624000        +8.02322000
H        -3.68021000        +4.74505000        +6.98331000
H        -3.89310000        +4.58580000        +8.71680000
H        -5.31018000        +4.58776000        +7.65034000
H        -2.07982000        +0.13987000        +7.39010000
H        -2.10256000        +2.55702000        +7.59493000
$end

$rem
JOBTYPE                   SP
METHOD                    B3LYP
DFT_D                     d3_op
BASIS                     6-311++G(d,p)
SYMMETRY                  False
THRESH                    12
SCF_CONVERGENCE           8
MAX_SUB_FILE_NUM          128
MEM_STATIC                400
MEM_TOTAL                 4000
$end
--------------------------------------------------------------

             Standard Nuclear Orientation (Angstroms)
    I     Atom           X                Y                Z
 ----------------------------------------------------------------
    1      C       4.5986102514    -0.2531980663     1.0897319733
    2      C       4.1616722344     1.0846215951     1.0540387197
    3      C       4.4417985586    -1.0960130002    -0.0247337042
    4      C       3.8336563575    -0.5567977691    -1.1596151205
    5      C       3.4005047157     0.7619980496    -1.1951980395
    6      C       3.5496905557     1.6115206967    -0.0973344207
    7      H       2.9374864011     1.1458915945    -2.0979319218
    8      H       3.6951432971    -1.1875118131    -2.0314717086
    9      C       3.0736105423     3.0412315976    -0.1902783887
   10      C       4.8851779122    -2.5408766764    -0.0313192452
   11      H       5.9725116165    -2.6219605291     0.0217681740
   12      H       4.5430469645    -3.0341311897    -0.9428497125
   13      H       4.4845401518    -3.0940369315     0.8222403633
   14      H       3.8569370418     3.7489727267     0.0924911045
   15      H       2.2297685121     3.2207448719     0.4784550978
   16      H       2.7642166460     3.2685410746    -1.2119700602
   17      H       5.0406399115    -0.6208038221     1.9467590244
   18      H       4.2920081862     1.6858228931     1.8826474360
   19      C      -3.3836182140    -0.7644548745     1.2403565098
   20      C      -3.8205562310     0.5733647869     1.2046632562
   21      C      -3.5404299067    -1.6072698084     0.1258908323
   22      C      -4.1485721079    -1.0680545773    -1.0089905840
   23      C      -4.5817237497     0.2507412414    -1.0445735030
   24      C      -4.4325379096     1.1002638885     0.0532901158
   25      H      -5.0447420642     0.6346347863    -1.9473073853
   26      H      -4.2870851682    -1.6987686213    -1.8808471721
   27      C      -4.9086179230     2.5299747894    -0.0396538522
   28      C      -3.0970505532    -3.0521334846     0.1193052913
   29      H      -2.0097168488    -3.1332173373     0.1723927105
   30      H      -3.4391815008    -3.5453879979    -0.7922251760
   31      H      -3.4976883135    -3.6052937397     0.9728648998
   32      H      -4.1252914235     3.2377159185     0.2431156410
   33      H      -5.7524599532     2.7094880637     0.6290796343
   34      H      -5.2180118193     2.7572842664    -1.0613455237
   35      H      -2.9415885538    -1.1320606303     2.0973835609
   36      H      -3.6902202792     1.1745660849     2.0332719725
 ----------------------------------------------------------------

   13    -621.9515731503      2.88E-09 Convergence criterion met
 Total energy in the final basis set = -621.95157315

                    Orbital Energies (a.u.)
 --------------------------------------------------------------

 Alpha MOs
 -- Occupied --
-10.179 -10.179 -10.179 -10.179 -10.167 -10.167 -10.167 -10.167
-10.167 -10.166 -10.166 -10.166 -10.166 -10.166 -10.166 -10.166
 -0.858  -0.857  -0.787  -0.786  -0.744  -0.744  -0.720  -0.720
 -0.657  -0.657  -0.611  -0.611  -0.576  -0.576  -0.495  -0.495
 -0.471  -0.471  -0.459  -0.459  -0.424  -0.424  -0.420  -0.420
 -0.416  -0.416  -0.403  -0.403  -0.396  -0.396  -0.375  -0.375
 -0.344  -0.344  -0.342  -0.342  -0.338  -0.338  -0.251  -0.251
 -0.236  -0.235

          Ground-State Mulliken Net Atomic Charges

     Atom                 Charge (a.u.)
  ----------------------------------------
      1 C                    -0.166374
      2 C                    -0.160649
      3 C                     0.697215
      4 C                    -0.647140
      5 C                    -0.676006
      6 C                     0.693877
      7 H                     0.130662
      8 H                     0.132789
      9 C                    -0.604549
     10 C                    -0.600144
     11 H                     0.156837
     12 H                     0.148633
     13 H                     0.147000
     14 H                     0.145080
     15 H                     0.153591
     16 H                     0.148013
     17 H                     0.148967
     18 H                     0.152381
     19 C                    -0.134807
     20 C                    -0.161444
     21 C                     0.711341
     22 C                    -0.706334
     23 C                    -0.684882
     24 C                     0.720895
     25 H                     0.127748
     26 H                     0.128342
     27 C                    -0.599168
     28 C                    -0.604429
     29 H                     0.152833
     30 H                     0.148772
     31 H                     0.146543
     32 H                     0.146147
     33 H                     0.156769
     34 H                     0.148349
     35 H                     0.151705
     36 H                     0.151439
  ----------------------------------------
  Sum of atomic charges =     0.000000

                    Cartesian Multipole Moments
 -----------------------------------------------------------------
    Charge (ESU x 10^10)
                 0.0000
    Dipole Moment (Debye)
         X       0.0609      Y       0.0267      Z       0.1667
       Tot       0.1795
    Quadrupole Moments (Debye-Ang)
        XX    -103.1645     XY      -4.1142     YY     -90.6797
        XZ       4.1277     YZ       1.2509     ZZ     -93.5024

 Total job time:  86.49s(wall), 344.26s(cpu)
        *  Thank you very much for using Q-Chem.  Have a nice day.  *
