 Q-Chem 5.0, Q-Chem, Inc., Pleasanton, CA (2017)
 Q-Chem 5.0.1 for Intel X86 EM64T Linux

User input:
--------------------------------------------------------------
$molecule
0  1
C        -0.54444000        -0.68370000        -0.06689000
C        -0.55709000        +0.71878000        +0.05493000
C        -1.74320000        -1.41616000        -0.12552000
C        -2.93952000        -0.70056000        -0.05285000
C        -2.95313000        +0.68255000        +0.06934000
C        -1.77161000        +1.42404000        +0.12810000
H        -3.90354000        +1.20325000        +0.11710000
H        -3.87892000        -1.24211000        -0.08988000
C        -1.83960000        +2.92746000        +0.24839000
C        -1.78103000        -2.92226000        -0.24590000
H        -1.39752000        -3.25223000        -1.21323000
H        -2.80572000        -3.28175000        -0.13627000
H        -1.16958000        -3.40777000        +0.51926000
H        -1.24214000        +3.42352000        -0.52065000
H        -1.45503000        +3.26427000        +1.21284000
H        -2.87211000        +3.26623000        +0.14638000
H        +0.35825000        -1.18166000        -0.11386000
H        +0.33551000        +1.23549000        +0.09097000
@C        -2.98251000        +0.63783000        +7.43707000
@C        -2.99516000        +2.04031000        +7.55889000
@C        -4.18127000        -0.09463000        +7.37844000
@C        -5.37759000        +0.62097000        +7.45111000
@C        -5.39120000        +2.00408000        +7.57330000
@C        -4.20968000        +2.74557000        +7.63206000
@H        -6.34161000        +2.52478000        +7.62106000
@H        -6.31699000        +0.07942000        +7.41408000
@C        -4.27767000        +4.24899000        +7.75235000
@C        -4.21910000        -1.60073000        +7.25806000
@H        -3.83559000        -1.93070000        +6.29073000
@H        -5.24379000        -1.96022000        +7.36769000
@H        -3.60765000        -2.08624000        +8.02322000
@H        -3.68021000        +4.74505000        +6.98331000
@H        -3.89310000        +4.58580000        +8.71680000
@H        -5.31018000        +4.58776000        +7.65034000
@H        -2.07982000        +0.13987000        +7.39010000
@H        -2.10256000        +2.55702000        +7.59493000
$end

$rem
JOBTYPE                   SP
METHOD                    B3LYP
DFT_D                     d3_op
BASIS                     6-311++G(d,p)
SYMMETRY                  False
THRESH                    12
SCF_CONVERGENCE           8
MAX_SUB_FILE_NUM          128
MEM_STATIC                400
MEM_TOTAL                 4000
$end
--------------------------------------------------------------

             Standard Nuclear Orientation (Angstroms)
    I     Atom           X                Y                Z
 ----------------------------------------------------------------
    1      C      -0.5444400000    -0.6837000000    -0.0668900000
    2      C      -0.5570900000     0.7187800000     0.0549300000
    3      C      -1.7432000000    -1.4161600000    -0.1255200000
    4      C      -2.9395200000    -0.7005600000    -0.0528500000
    5      C      -2.9531300000     0.6825500000     0.0693400000
    6      C      -1.7716100000     1.4240400000     0.1281000000
    7      H      -3.9035400000     1.2032500000     0.1171000000
    8      H      -3.8789200000    -1.2421100000    -0.0898800000
    9      C      -1.8396000000     2.9274600000     0.2483900000
   10      C      -1.7810300000    -2.9222600000    -0.2459000000
   11      H      -1.3975200000    -3.2522300000    -1.2132300000
   12      H      -2.8057200000    -3.2817500000    -0.1362700000
   13      H      -1.1695800000    -3.4077700000     0.5192600000
   14      H      -1.2421400000     3.4235200000    -0.5206500000
   15      H      -1.4550300000     3.2642700000     1.2128400000
   16      H      -2.8721100000     3.2662300000     0.1463800000
   17      H       0.3582500000    -1.1816600000    -0.1138600000
   18      H       0.3355100000     1.2354900000     0.0909700000
   19      GH     -2.9825100000     0.6378300000     7.4370700000
   20      GH     -2.9951600000     2.0403100000     7.5588900000
   21      GH     -4.1812700000    -0.0946300000     7.3784400000
   22      GH     -5.3775900000     0.6209700000     7.4511100000
   23      GH     -5.3912000000     2.0040800000     7.5733000000
   24      GH     -4.2096800000     2.7455700000     7.6320600000
   25      GH     -6.3416100000     2.5247800000     7.6210600000
   26      GH     -6.3169900000     0.0794200000     7.4140800000
   27      GH     -4.2776700000     4.2489900000     7.7523500000
   28      GH     -4.2191000000    -1.6007300000     7.2580600000
   29      GH     -3.8355900000    -1.9307000000     6.2907300000
   30      GH     -5.2437900000    -1.9602200000     7.3676900000
   31      GH     -3.6076500000    -2.0862400000     8.0232200000
   32      GH     -3.6802100000     4.7450500000     6.9833100000
   33      GH     -3.8931000000     4.5858000000     8.7168000000
   34      GH     -5.3101800000     4.5877600000     7.6503400000
   35      GH     -2.0798200000     0.1398700000     7.3901000000
   36      GH     -2.1025600000     2.5570200000     7.5949300000
 ----------------------------------------------------------------

   11    -310.9757894415      9.27E-09 Convergence criterion met
 Total energy in the final basis set = -310.97578944

                    Orbital Energies (a.u.)
 --------------------------------------------------------------

 Alpha MOs
 -- Occupied --
-10.180 -10.180 -10.168 -10.168 -10.168 -10.167 -10.167 -10.167
 -0.859  -0.787  -0.745  -0.721  -0.658  -0.612  -0.577  -0.496
 -0.472  -0.460  -0.425  -0.421  -0.417  -0.404  -0.397  -0.376
 -0.345  -0.343  -0.339  -0.252  -0.236

          Ground-State Mulliken Net Atomic Charges

     Atom                 Charge (a.u.)
  ----------------------------------------
      1 C                    -0.166344
      2 C                    -0.161807
      3 C                     0.697023
      4 C                    -0.648263
      5 C                    -0.676704
      6 C                     0.689722
      7 H                     0.130756
      8 H                     0.132642
      9 C                    -0.600908
     10 C                    -0.597832
     11 H                     0.157117
     12 H                     0.148515
     13 H                     0.147317
     14 H                     0.145534
     15 H                     0.153650
     16 H                     0.147705
     17 H                     0.149422
     18 H                     0.152733
     19 GH                    0.000122
     20 GH                   -0.000080
     21 GH                   -0.000001
     22 GH                   -0.000175
     23 GH                   -0.000042
     24 GH                    0.000123
     25 GH                    0.000006
     26 GH                   -0.000003
     27 GH                    0.000019
     28 GH                    0.000248
     29 GH                   -0.000356
     30 GH                    0.000032
     31 GH                    0.000010
     32 GH                    0.000044
     33 GH                    0.000000
     34 GH                   -0.000007
     35 GH                   -0.000205
     36 GH                   -0.000012
  ----------------------------------------
  Sum of atomic charges =     0.000000

                    Cartesian Multipole Moments
 -----------------------------------------------------------------
    Charge (ESU x 10^10)
                 0.0000
    Dipole Moment (Debye)
         X       0.0925      Y       0.0018      Z       0.0000
       Tot       0.0926
    Quadrupole Moments (Debye-Ang)
        XX     -46.2612     XY       0.0005     YY     -44.6823
        XZ      -0.0478     YZ       0.6803     ZZ     -52.7323

 Total job time:  71.28s(wall), 283.62s(cpu)
        *  Thank you very much for using Q-Chem.  Have a nice day.  *
