 Q-Chem 5.0, Q-Chem, Inc., Pleasanton, CA (2017)
 Q-Chem 5.0.1 for Intel X86 EM64T Linux

User input:
--------------------------------------------------------------
$molecule
0  1
--
0  1
C        -0.54444000        -0.68370000        -0.06689000
C        -0.55709000        +0.71878000        +0.05493000
C        -1.74320000        -1.41616000        -0.12552000
C        -2.93952000        -0.70056000        -0.05285000
C        -2.95313000        +0.68255000        +0.06934000
C        -1.77161000        +1.42404000        +0.12810000
H        -3.90354000        +1.20325000        +0.11710000
H        -3.87892000        -1.24211000        -0.08988000
C        -1.83960000        +2.92746000        +0.24839000
C        -1.78103000        -2.92226000        -0.24590000
H        -1.39752000        -3.25223000        -1.21323000
H        -2.80572000        -3.28175000        -0.13627000
H        -1.16958000        -3.40777000        +0.51926000
H        -1.24214000        +3.42352000        -0.52065000
H        -1.45503000        +3.26427000        +1.21284000
H        -2.87211000        +3.26623000        +0.14638000
H        +0.35825000        -1.18166000        -0.11386000
H        +0.33551000        +1.23549000        +0.09097000
--
0  1
C        -1.67205000        -0.07249000        +3.40369000
C        -1.68470000        +1.32999000        +3.52551000
C        -2.87081000        -0.80495000        +3.34506000
C        -4.06713000        -0.08935000        +3.41773000
C        -4.08074000        +1.29376000        +3.53992000
C        -2.89922000        +2.03525000        +3.59868000
H        -5.03115000        +1.81446000        +3.58768000
H        -5.00653000        -0.63090000        +3.38070000
C        -2.96721000        +3.53867000        +3.71897000
C        -2.90864000        -2.31105000        +3.22468000
H        -2.52513000        -2.64102000        +2.25735000
H        -3.93333000        -2.67054000        +3.33431000
H        -2.29719000        -2.79656000        +3.98984000
H        -2.36975000        +4.03473000        +2.94993000
H        -2.58264000        +3.87548000        +4.68342000
H        -3.99972000        +3.87744000        +3.61696000
H        -0.76936000        -0.57045000        +3.35672000
H        -0.79210000        +1.84670000        +3.56155000
$end

$rem
JOBTYPE                   SP
METHOD                    B3LYP
DFT_D                     d3_op
BASIS                     6-311++G(d,p)
SYMMETRY                  False
THRESH                    12
SCF_CONVERGENCE           8
MAX_SUB_FILE_NUM          128
MEM_STATIC                400
MEM_TOTAL                 4000
$end
--------------------------------------------------------------

             Standard Nuclear Orientation (Angstroms)
    I     Atom           X                Y                Z
 ----------------------------------------------------------------
    1      C       2.2858138100     1.1670621416     0.9284810552
    2      C       1.1582148246     2.0088644138     0.8855887717
    3      C       2.5854195006     0.3031799237    -0.1396503083
    4      C       1.7210387975     0.3102048203    -1.2357080085
    5      C       0.6074719393     1.1386214058    -1.2781781575
    6      C       0.2969375076     2.0023662619    -0.2261501833
    7      H      -0.0372911595     1.1192234064    -2.1502979541
    8      H       1.9260337287    -0.3512481911    -2.0709187456
    9      C      -0.9183594682     2.8925866492    -0.3257741926
   10      C       3.7776511668    -0.6257058123    -0.1358284139
   11      H       4.7150276837    -0.0674888065    -0.1733316126
   12      H       3.7353179565    -1.2939900318    -0.9977132637
   13      H       3.8118136800    -1.2412881607     0.7669186067
   14      H      -0.6709665869     3.9398843008    -0.1349316184
   15      H      -1.6766954263     2.6090257301     0.4063587483
   16      H      -1.3537092320     2.8237168169    -1.3242608387
   17      H       2.9017464852     1.1843036428     1.7563392851
   18      H       0.9613023824     2.6382111235     1.6794219247
   19      C      -0.5899692238    -1.1275388465     1.3217821619
   20      C      -1.7175682092    -0.2857365743     1.2788898783
   21      C      -0.2903635332    -1.9914210644     0.2536507983
   22      C      -1.1547442364    -1.9843961678    -0.8424069019
   23      C      -2.2683110945    -1.1559795823    -0.8848770509
   24      C      -2.5788455262    -0.2922347262     0.1671509233
   25      H      -2.9130741933    -1.1753775817    -1.7569968475
   26      H      -0.9497493051    -2.6458491792    -1.6776176390
   27      C      -3.7941425020     0.5979856611     0.0675269140
   28      C       0.9018681330    -2.9203068004     0.2574726927
   29      H       1.8392446499    -2.3620897946     0.2199694940
   30      H       0.8595349226    -3.5885910199    -0.6044121571
   31      H       0.9360306462    -3.5358891488     1.1602197133
   32      H      -3.5467496207     1.6452833127     0.2583694882
   33      H      -4.5524784601     0.3144247420     0.7996598550
   34      H      -4.2294922658     0.5291158288    -0.9309597321
   35      H       0.0259634514    -1.1102973453     2.1496403918
   36      H      -1.9144806515     0.3436101354     2.0727230313
 ----------------------------------------------------------------

   14    -621.9591424622      5.44E-09 Convergence criterion met
 Total energy in the final basis set = -621.95914246

                    Orbital Energies (a.u.)
 --------------------------------------------------------------

 Alpha MOs
 -- Occupied --
-10.176 -10.176 -10.176 -10.175 -10.167 -10.165 -10.164 -10.164
-10.164 -10.163 -10.163 -10.163 -10.163 -10.163 -10.162 -10.162
 -0.856  -0.852  -0.786  -0.782  -0.742  -0.740  -0.720  -0.716
 -0.657  -0.653  -0.609  -0.607  -0.574  -0.572  -0.493  -0.492
 -0.469  -0.468  -0.457  -0.455  -0.435  -0.428  -0.417  -0.416
 -0.408  -0.406  -0.402  -0.399  -0.394  -0.393  -0.374  -0.372
 -0.351  -0.340  -0.338  -0.335  -0.334  -0.331  -0.255  -0.241
 -0.237  -0.227

          Ground-State Mulliken Net Atomic Charges

     Atom                 Charge (a.u.)
  ----------------------------------------
      1 C                    -0.471535
      2 C                    -0.226865
      3 C                     0.351181
      4 C                    -0.293056
      5 C                    -0.340198
      6 C                     0.676448
      7 H                     0.145587
      8 H                     0.165313
      9 C                    -0.628318
     10 C                    -0.623039
     11 H                     0.169860
     12 H                     0.133502
     13 H                     0.163251
     14 H                     0.158163
     15 H                     0.147191
     16 H                     0.138887
     17 H                     0.157936
     18 H                     0.167256
     19 C                    -0.408228
     20 C                    -0.256507
     21 C                     0.502635
     22 C                    -0.138651
     23 C                    -0.617053
     24 C                     0.592795
     25 H                     0.143257
     26 H                     0.169780
     27 C                    -0.569593
     28 C                    -0.698030
     29 H                     0.220064
     30 H                     0.126262
     31 H                     0.154813
     32 H                     0.150826
     33 H                     0.166155
     34 H                     0.138653
     35 H                     0.154833
     36 H                     0.176425
  ----------------------------------------
  Sum of atomic charges =    -0.000000

                    Cartesian Multipole Moments
 -----------------------------------------------------------------
    Charge (ESU x 10^10)
                -0.0000
    Dipole Moment (Debye)
         X       0.0957      Y       0.0958      Z       0.1080
       Tot       0.1732
    Quadrupole Moments (Debye-Ang)
        XX     -96.2781     XY      -6.6134     YY     -99.3523
        XZ       3.1278     YZ       3.9001     ZZ     -94.7832

 Total job time:  196.86s(wall), 783.49s(cpu)
        *  Thank you very much for using Q-Chem.  Have a nice day.  *
