 Q-Chem 5.0, Q-Chem, Inc., Pleasanton, CA (2017)
 Q-Chem 5.0.1 for Intel X86 EM64T Linux

User input:
--------------------------------------------------------------
$molecule
0  1
C        -1.67205000        -0.07249000        +3.40369000
C        -1.68470000        +1.32999000        +3.52551000
C        -2.87081000        -0.80495000        +3.34506000
C        -4.06713000        -0.08935000        +3.41773000
C        -4.08074000        +1.29376000        +3.53992000
C        -2.89922000        +2.03525000        +3.59868000
H        -5.03115000        +1.81446000        +3.58768000
H        -5.00653000        -0.63090000        +3.38070000
C        -2.96721000        +3.53867000        +3.71897000
C        -2.90864000        -2.31105000        +3.22468000
H        -2.52513000        -2.64102000        +2.25735000
H        -3.93333000        -2.67054000        +3.33431000
H        -2.29719000        -2.79656000        +3.98984000
H        -2.36975000        +4.03473000        +2.94993000
H        -2.58264000        +3.87548000        +4.68342000
H        -3.99972000        +3.87744000        +3.61696000
H        -0.76936000        -0.57045000        +3.35672000
H        -0.79210000        +1.84670000        +3.56155000
@C        -0.54444000        -0.68370000        -0.06689000
@C        -0.55709000        +0.71878000        +0.05493000
@C        -1.74320000        -1.41616000        -0.12552000
@C        -2.93952000        -0.70056000        -0.05285000
@C        -2.95313000        +0.68255000        +0.06934000
@C        -1.77161000        +1.42404000        +0.12810000
@H        -3.90354000        +1.20325000        +0.11710000
@H        -3.87892000        -1.24211000        -0.08988000
@C        -1.83960000        +2.92746000        +0.24839000
@C        -1.78103000        -2.92226000        -0.24590000
@H        -1.39752000        -3.25223000        -1.21323000
@H        -2.80572000        -3.28175000        -0.13627000
@H        -1.16958000        -3.40777000        +0.51926000
@H        -1.24214000        +3.42352000        -0.52065000
@H        -1.45503000        +3.26427000        +1.21284000
@H        -2.87211000        +3.26623000        +0.14638000
@H        +0.35825000        -1.18166000        -0.11386000
@H        +0.33551000        +1.23549000        +0.09097000
$end

$rem
JOBTYPE                   SP
METHOD                    B3LYP
DFT_D                     d3_op
BASIS                     6-311++G(d,p)
SYMMETRY                  False
THRESH                    12
SCF_CONVERGENCE           8
MAX_SUB_FILE_NUM          128
MEM_STATIC                400
MEM_TOTAL                 4000
$end
--------------------------------------------------------------

             Standard Nuclear Orientation (Angstroms)
    I     Atom           X                Y                Z
 ----------------------------------------------------------------
    1      C      -1.6720500000    -0.0724900000     3.4036900000
    2      C      -1.6847000000     1.3299900000     3.5255100000
    3      C      -2.8708100000    -0.8049500000     3.3450600000
    4      C      -4.0671300000    -0.0893500000     3.4177300000
    5      C      -4.0807400000     1.2937600000     3.5399200000
    6      C      -2.8992200000     2.0352500000     3.5986800000
    7      H      -5.0311500000     1.8144600000     3.5876800000
    8      H      -5.0065300000    -0.6309000000     3.3807000000
    9      C      -2.9672100000     3.5386700000     3.7189700000
   10      C      -2.9086400000    -2.3110500000     3.2246800000
   11      H      -2.5251300000    -2.6410200000     2.2573500000
   12      H      -3.9333300000    -2.6705400000     3.3343100000
   13      H      -2.2971900000    -2.7965600000     3.9898400000
   14      H      -2.3697500000     4.0347300000     2.9499300000
   15      H      -2.5826400000     3.8754800000     4.6834200000
   16      H      -3.9997200000     3.8774400000     3.6169600000
   17      H      -0.7693600000    -0.5704500000     3.3567200000
   18      H      -0.7921000000     1.8467000000     3.5615500000
   19      GH     -0.5444400000    -0.6837000000    -0.0668900000
   20      GH     -0.5570900000     0.7187800000     0.0549300000
   21      GH     -1.7432000000    -1.4161600000    -0.1255200000
   22      GH     -2.9395200000    -0.7005600000    -0.0528500000
   23      GH     -2.9531300000     0.6825500000     0.0693400000
   24      GH     -1.7716100000     1.4240400000     0.1281000000
   25      GH     -3.9035400000     1.2032500000     0.1171000000
   26      GH     -3.8789200000    -1.2421100000    -0.0898800000
   27      GH     -1.8396000000     2.9274600000     0.2483900000
   28      GH     -1.7810300000    -2.9222600000    -0.2459000000
   29      GH     -1.3975200000    -3.2522300000    -1.2132300000
   30      GH     -2.8057200000    -3.2817500000    -0.1362700000
   31      GH     -1.1695800000    -3.4077700000     0.5192600000
   32      GH     -1.2421400000     3.4235200000    -0.5206500000
   33      GH     -1.4550300000     3.2642700000     1.2128400000
   34      GH     -2.8721100000     3.2662300000     0.1463800000
   35      GH      0.3582500000    -1.1816600000    -0.1138600000
   36      GH      0.3355100000     1.2354900000     0.0909700000
 ----------------------------------------------------------------

   13    -310.9767632722      1.10E-09 Convergence criterion met
 Total energy in the final basis set = -310.97676327

                    Orbital Energies (a.u.)
 --------------------------------------------------------------

 Alpha MOs
 -- Occupied --
-10.180 -10.180 -10.168 -10.168 -10.168 -10.167 -10.167 -10.167
 -0.859  -0.787  -0.745  -0.721  -0.658  -0.612  -0.577  -0.496
 -0.472  -0.460  -0.425  -0.421  -0.417  -0.404  -0.397  -0.376
 -0.346  -0.342  -0.339  -0.252  -0.237

          Ground-State Mulliken Net Atomic Charges

     Atom                 Charge (a.u.)
  ----------------------------------------
      1 C                    -0.369798
      2 C                    -0.229787
      3 C                     0.481162
      4 C                    -0.302306
      5 C                    -0.542600
      6 C                     0.540117
      7 H                     0.152988
      8 H                     0.164365
      9 C                    -0.614856
     10 C                    -0.629399
     11 H                     0.172980
     12 H                     0.138711
     13 H                     0.155938
     14 H                     0.163663
     15 H                     0.168534
     16 H                     0.139201
     17 H                     0.156378
     18 H                     0.165696
     19 GH                   -0.186034
     20 GH                    0.086991
     21 GH                   -0.072187
     22 GH                    0.097881
     23 GH                   -0.063909
     24 GH                    0.230900
     25 GH                   -0.009723
     26 GH                    0.014056
     27 GH                   -0.009761
     28 GH                    0.009085
     29 GH                    0.000476
     30 GH                   -0.006789
     31 GH                    0.005919
     32 GH                    0.001762
     33 GH                   -0.013569
     34 GH                    0.005065
     35 GH                   -0.007237
     36 GH                    0.006087
  ----------------------------------------
  Sum of atomic charges =     0.000000

                    Cartesian Multipole Moments
 -----------------------------------------------------------------
    Charge (ESU x 10^10)
                 0.0000
    Dipole Moment (Debye)
         X       0.0900      Y       0.0007      Z      -0.0030
       Tot       0.0900
    Quadrupole Moments (Debye-Ang)
        XX     -46.5610     XY       0.0521     YY     -44.7899
        XZ       0.2836     YZ       0.6630     ZZ     -52.6673

 Total job time:  173.99s(wall), 692.16s(cpu)
        *  Thank you very much for using Q-Chem.  Have a nice day.  *
