 Q-Chem 5.0, Q-Chem, Inc., Pleasanton, CA (2017)
 Q-Chem 5.0.1 for Intel X86 EM64T Linux

User input:
--------------------------------------------------------------
$molecule
0  1
C        -2.06824000        +0.14226000        +4.62308000
C        -2.08089000        +1.54474000        +4.74490000
C        -3.26700000        -0.59020000        +4.56445000
C        -4.46332000        +0.12540000        +4.63712000
C        -4.47693000        +1.50851000        +4.75931000
C        -3.29541000        +2.25000000        +4.81807000
H        -5.42734000        +2.02921000        +4.80707000
H        -5.40272000        -0.41615000        +4.60009000
C        -3.36340000        +3.75342000        +4.93836000
C        -3.30483000        -2.09630000        +4.44407000
H        -2.92132000        -2.42627000        +3.47674000
H        -4.32952000        -2.45579000        +4.55370000
H        -2.69338000        -2.58181000        +5.20923000
H        -2.76594000        +4.24948000        +4.16932000
H        -2.97883000        +4.09023000        +5.90281000
H        -4.39591000        +4.09219000        +4.83635000
H        -1.16555000        -0.35570000        +4.57611000
H        -1.18829000        +2.06145000        +4.78094000
@C        -0.54444000        -0.68370000        -0.06689000
@C        -0.55709000        +0.71878000        +0.05493000
@C        -1.74320000        -1.41616000        -0.12552000
@C        -2.93952000        -0.70056000        -0.05285000
@C        -2.95313000        +0.68255000        +0.06934000
@C        -1.77161000        +1.42404000        +0.12810000
@H        -3.90354000        +1.20325000        +0.11710000
@H        -3.87892000        -1.24211000        -0.08988000
@C        -1.83960000        +2.92746000        +0.24839000
@C        -1.78103000        -2.92226000        -0.24590000
@H        -1.39752000        -3.25223000        -1.21323000
@H        -2.80572000        -3.28175000        -0.13627000
@H        -1.16958000        -3.40777000        +0.51926000
@H        -1.24214000        +3.42352000        -0.52065000
@H        -1.45503000        +3.26427000        +1.21284000
@H        -2.87211000        +3.26623000        +0.14638000
@H        +0.35825000        -1.18166000        -0.11386000
@H        +0.33551000        +1.23549000        +0.09097000
$end

$rem
JOBTYPE                   SP
METHOD                    B3LYP
DFT_D                     d3_op
BASIS                     6-311++G(d,p)
SYMMETRY                  False
THRESH                    12
SCF_CONVERGENCE           8
MAX_SUB_FILE_NUM          128
MEM_STATIC                400
MEM_TOTAL                 4000
$end
--------------------------------------------------------------

             Standard Nuclear Orientation (Angstroms)
    I     Atom           X                Y                Z
 ----------------------------------------------------------------
    1      C      -2.0682400000     0.1422600000     4.6230800000
    2      C      -2.0808900000     1.5447400000     4.7449000000
    3      C      -3.2670000000    -0.5902000000     4.5644500000
    4      C      -4.4633200000     0.1254000000     4.6371200000
    5      C      -4.4769300000     1.5085100000     4.7593100000
    6      C      -3.2954100000     2.2500000000     4.8180700000
    7      H      -5.4273400000     2.0292100000     4.8070700000
    8      H      -5.4027200000    -0.4161500000     4.6000900000
    9      C      -3.3634000000     3.7534200000     4.9383600000
   10      C      -3.3048300000    -2.0963000000     4.4440700000
   11      H      -2.9213200000    -2.4262700000     3.4767400000
   12      H      -4.3295200000    -2.4557900000     4.5537000000
   13      H      -2.6933800000    -2.5818100000     5.2092300000
   14      H      -2.7659400000     4.2494800000     4.1693200000
   15      H      -2.9788300000     4.0902300000     5.9028100000
   16      H      -4.3959100000     4.0921900000     4.8363500000
   17      H      -1.1655500000    -0.3557000000     4.5761100000
   18      H      -1.1882900000     2.0614500000     4.7809400000
   19      GH     -0.5444400000    -0.6837000000    -0.0668900000
   20      GH     -0.5570900000     0.7187800000     0.0549300000
   21      GH     -1.7432000000    -1.4161600000    -0.1255200000
   22      GH     -2.9395200000    -0.7005600000    -0.0528500000
   23      GH     -2.9531300000     0.6825500000     0.0693400000
   24      GH     -1.7716100000     1.4240400000     0.1281000000
   25      GH     -3.9035400000     1.2032500000     0.1171000000
   26      GH     -3.8789200000    -1.2421100000    -0.0898800000
   27      GH     -1.8396000000     2.9274600000     0.2483900000
   28      GH     -1.7810300000    -2.9222600000    -0.2459000000
   29      GH     -1.3975200000    -3.2522300000    -1.2132300000
   30      GH     -2.8057200000    -3.2817500000    -0.1362700000
   31      GH     -1.1695800000    -3.4077700000     0.5192600000
   32      GH     -1.2421400000     3.4235200000    -0.5206500000
   33      GH     -1.4550300000     3.2642700000     1.2128400000
   34      GH     -2.8721100000     3.2662300000     0.1463800000
   35      GH      0.3582500000    -1.1816600000    -0.1138600000
   36      GH      0.3355100000     1.2354900000     0.0909700000
 ----------------------------------------------------------------

   11    -310.9759946766      9.98E-09 Convergence criterion met
 Total energy in the final basis set = -310.97599468

                    Orbital Energies (a.u.)
 --------------------------------------------------------------

 Alpha MOs
 -- Occupied --
-10.180 -10.180 -10.168 -10.168 -10.168 -10.167 -10.167 -10.167
 -0.858  -0.787  -0.745  -0.721  -0.658  -0.612  -0.577  -0.496
 -0.472  -0.460  -0.424  -0.421  -0.417  -0.404  -0.397  -0.376
 -0.345  -0.342  -0.339  -0.252  -0.236

          Ground-State Mulliken Net Atomic Charges

     Atom                 Charge (a.u.)
  ----------------------------------------
      1 C                    -0.308565
      2 C                    -0.187317
      3 C                     0.612073
      4 C                    -0.489113
      5 C                    -0.479960
      6 C                     0.585511
      7 H                     0.151616
      8 H                     0.157924
      9 C                    -0.633867
     10 C                    -0.638271
     11 H                     0.185240
     12 H                     0.138678
     13 H                     0.147729
     14 H                     0.154365
     15 H                     0.160135
     16 H                     0.142229
     17 H                     0.163548
     18 H                     0.163742
     19 GH                   -0.008839
     20 GH                   -0.028621
     21 GH                   -0.007380
     22 GH                   -0.007193
     23 GH                    0.005157
     24 GH                    0.037230
     25 GH                   -0.003400
     26 GH                   -0.001124
     27 GH                   -0.012900
     28 GH                    0.002373
     29 GH                   -0.000031
     30 GH                   -0.000937
     31 GH                    0.002722
     32 GH                   -0.001582
     33 GH                   -0.002476
     34 GH                    0.003536
     35 GH                   -0.001444
     36 GH                   -0.000788
  ----------------------------------------
  Sum of atomic charges =     0.000000

                    Cartesian Multipole Moments
 -----------------------------------------------------------------
    Charge (ESU x 10^10)
                 0.0000
    Dipole Moment (Debye)
         X       0.0937      Y       0.0043      Z      -0.0105
       Tot       0.0944
    Quadrupole Moments (Debye-Ang)
        XX     -46.5854     XY       0.0646     YY     -44.7138
        XZ       0.4313     YZ       0.6841     ZZ     -52.7924

 Total job time:  125.50s(wall), 499.03s(cpu)
        *  Thank you very much for using Q-Chem.  Have a nice day.  *
