 Q-Chem 5.0, Q-Chem, Inc., Pleasanton, CA (2017)
 Q-Chem 5.0.1 for Intel X86 EM64T Linux

User input:
--------------------------------------------------------------
$molecule
0  1
--
0  1
C        -0.54444000        -0.68370000        -0.06689000
C        -0.55709000        +0.71878000        +0.05493000
C        -1.74320000        -1.41616000        -0.12552000
C        -2.93952000        -0.70056000        -0.05285000
C        -2.95313000        +0.68255000        +0.06934000
C        -1.77161000        +1.42404000        +0.12810000
H        -3.90354000        +1.20325000        +0.11710000
H        -3.87892000        -1.24211000        -0.08988000
C        -1.83960000        +2.92746000        +0.24839000
C        -1.78103000        -2.92226000        -0.24590000
H        -1.39752000        -3.25223000        -1.21323000
H        -2.80572000        -3.28175000        -0.13627000
H        -1.16958000        -3.40777000        +0.51926000
H        -1.24214000        +3.42352000        -0.52065000
H        -1.45503000        +3.26427000        +1.21284000
H        -2.87211000        +3.26623000        +0.14638000
H        +0.35825000        -1.18166000        -0.11386000
H        +0.33551000        +1.23549000        +0.09097000
--
0  1
C        -2.06824000        +0.14226000        +4.62308000
C        -2.08089000        +1.54474000        +4.74490000
C        -3.26700000        -0.59020000        +4.56445000
C        -4.46332000        +0.12540000        +4.63712000
C        -4.47693000        +1.50851000        +4.75931000
C        -3.29541000        +2.25000000        +4.81807000
H        -5.42734000        +2.02921000        +4.80707000
H        -5.40272000        -0.41615000        +4.60009000
C        -3.36340000        +3.75342000        +4.93836000
C        -3.30483000        -2.09630000        +4.44407000
H        -2.92132000        -2.42627000        +3.47674000
H        -4.32952000        -2.45579000        +4.55370000
H        -2.69338000        -2.58181000        +5.20923000
H        -2.76594000        +4.24948000        +4.16932000
H        -2.97883000        +4.09023000        +5.90281000
H        -4.39591000        +4.09219000        +4.83635000
H        -1.16555000        -0.35570000        +4.57611000
H        -1.18829000        +2.06145000        +4.78094000
$end

$rem
JOBTYPE                   SP
METHOD                    B3LYP
DFT_D                     d3_op
BASIS                     6-311++G(d,p)
SYMMETRY                  False
THRESH                    12
SCF_CONVERGENCE           8
MAX_SUB_FILE_NUM          128
MEM_STATIC                400
MEM_TOTAL                 4000
$end
--------------------------------------------------------------

             Standard Nuclear Orientation (Angstroms)
    I     Atom           X                Y                Z
 ----------------------------------------------------------------
    1      C       3.1469649538     0.2204773873     1.0206667224
    2      C       2.4808615505     1.4601425962     0.9821088275
    3      C       3.1075212759    -0.6570531545    -0.0772153343
    4      C       2.3804988315    -0.2536418901    -1.1984840570
    5      C       1.7214675560     0.9679626621    -1.2368115442
    6      C       1.7517333827     1.8504553848    -0.1553587056
    7      H       1.1714665945     1.2481679975    -2.1288163582
    8      H       2.3290266604    -0.9147376142    -2.0572174513
    9      C       1.0292583790     3.1726657814    -0.2510329269
   10      C       3.7975124262    -2.0017335819    -0.0797498697
   11      H       4.8832663438    -1.8900293523    -0.0610938925
   12      H       3.5203433586    -2.5639297860    -0.9732565172
   13      H       3.5259664204    -2.6008074685     0.7934248742
   14      H       1.6841049027     4.0117875121    -0.0030263783
   15      H       0.1873368286     3.2137477568     0.4424937401
   16      H       0.6543890964     3.3234785195    -1.2649247319
   17      H       3.6720873233    -0.0482106185     1.8674682524
   18      H       2.5281834932     2.0899618540     1.7982651863
   19      C      -1.7030723274    -0.9665943338     1.2814234329
   20      C      -2.3691757308     0.2730708751     1.2428655380
   21      C      -1.7425160053    -1.8441248756     0.1835413761
   22      C      -2.4695384497    -1.4407136112    -0.9377273465
   23      C      -3.1285697252    -0.2191090590    -0.9760548338
   24      C      -3.0983038985     0.6633836637     0.1053980049
   25      H      -3.6785706867     0.0610962763    -1.8680596477
   26      H      -2.5210106208    -2.1018093353    -1.7964607409
   27      C      -3.8207789023     1.9855940603     0.0097237835
   28      C      -1.0525248550    -3.1888053031     0.1810068408
   29      H       0.0332290626    -3.0771010734     0.1996628180
   30      H      -1.3296939226    -3.7510015071    -0.7124998067
   31      H      -1.3240708609    -3.7878791897     1.0541815846
   32      H      -3.1659323785     2.8247157910     0.2577303321
   33      H      -4.6627004526     2.0266760357     0.7032504505
   34      H      -4.1956481848     2.1364067983    -1.0041680214
   35      H      -1.1779499579    -1.2352823396     2.1282249629
   36      H      -2.3218537880     0.9028901329     2.0590218967
 ----------------------------------------------------------------

   13    -621.9540438943      6.74E-09 Convergence criterion met
 Total energy in the final basis set = -621.95404389

                    Orbital Energies (a.u.)
 --------------------------------------------------------------

 Alpha MOs
 -- Occupied --
-10.178 -10.177 -10.177 -10.177 -10.166 -10.166 -10.165 -10.165
-10.165 -10.165 -10.165 -10.165 -10.164 -10.164 -10.164 -10.164
 -0.856  -0.855  -0.785  -0.785  -0.743  -0.742  -0.719  -0.718
 -0.656  -0.656  -0.610  -0.609  -0.574  -0.574  -0.493  -0.493
 -0.470  -0.469  -0.457  -0.457  -0.424  -0.421  -0.418  -0.418
 -0.416  -0.413  -0.402  -0.402  -0.395  -0.395  -0.374  -0.373
 -0.344  -0.341  -0.340  -0.340  -0.336  -0.336  -0.250  -0.249
 -0.234  -0.233

          Ground-State Mulliken Net Atomic Charges

     Atom                 Charge (a.u.)
  ----------------------------------------
      1 C                    -0.191171
      2 C                    -0.380901
      3 C                     0.518995
      4 C                    -0.439365
      5 C                    -0.363594
      6 C                     0.659257
      7 H                     0.149256
      8 H                     0.144489
      9 C                    -0.677120
     10 C                    -0.649979
     11 H                     0.156187
     12 H                     0.141693
     13 H                     0.149796
     14 H                     0.142929
     15 H                     0.166885
     16 H                     0.137818
     17 H                     0.163005
     18 H                     0.166848
     19 C                    -0.359292
     20 C                    -0.219206
     21 C                     0.667793
     22 C                    -0.470440
     23 C                    -0.487908
     24 C                     0.606210
     25 H                     0.148074
     26 H                     0.155463
     27 C                    -0.623267
     28 C                    -0.653814
     29 H                     0.186753
     30 H                     0.136347
     31 H                     0.145870
     32 H                     0.150904
     33 H                     0.159602
     34 H                     0.142004
     35 H                     0.156326
     36 H                     0.163555
  ----------------------------------------
  Sum of atomic charges =     0.000000

                    Cartesian Multipole Moments
 -----------------------------------------------------------------
    Charge (ESU x 10^10)
                 0.0000
    Dipole Moment (Debye)
         X       0.0739      Y       0.0410      Z       0.1448
       Tot       0.1677
    Quadrupole Moments (Debye-Ang)
        XX    -101.7773     XY      -5.8158     YY     -93.0082
        XZ       4.0748     YZ       2.0393     ZZ     -93.9853

 Total job time:  135.53s(wall), 539.39s(cpu)
        *  Thank you very much for using Q-Chem.  Have a nice day.  *
