 Q-Chem 5.0, Q-Chem, Inc., Pleasanton, CA (2017)
 Q-Chem 5.0.1 for Intel X86 EM64T Linux

User input:
--------------------------------------------------------------
$molecule
0  1
C        -0.58454000        -0.67556000        -0.07544000
C        -0.59851000        +0.70920000        +0.05808000
C        -1.77633000        -1.40990000        -0.13252000
C        -2.97828000        -0.70388000        -0.05611000
C        -2.99244000        +0.68477000        +0.07719000
C        -1.80513000        +1.41687000        +0.13452000
H        -3.94378000        +1.20441000        +0.13594000
H        -3.91864000        -1.24474000        -0.10022000
C        -1.81546000        +2.92210000        +0.24949000
C        -1.75732000        -2.91589000        -0.24640000
H        -1.03160000        -3.25185000        -0.99235000
H        -2.73712000        -3.30600000        -0.53105000
H        -1.48213000        -3.37940000        +0.70725000
H        -1.54006000        +3.39064000        -0.70147000
H        -1.10219000        +3.26991000        +1.00208000
H        -2.80465000        +3.29345000        +0.52612000
H        +0.36601000        -1.19708000        -0.13515000
H        +0.34176000        +1.25035000        +0.10232000
@C        -0.55107000        -1.02954000        +3.60744000
@C        -0.56504000        +0.35522000        +3.74096000
@C        -1.74286000        -1.76388000        +3.55036000
@C        -2.94481000        -1.05786000        +3.62677000
@C        -2.95897000        +0.33079000        +3.76007000
@C        -1.77166000        +1.06289000        +3.81740000
@H        -3.91031000        +0.85043000        +3.81882000
@H        -3.88517000        -1.59872000        +3.58266000
@C        -1.78199000        +2.56812000        +3.93237000
@C        -1.72385000        -3.26987000        +3.43648000
@H        -0.99813000        -3.60583000        +2.69053000
@H        -2.70365000        -3.65998000        +3.15183000
@H        -1.44866000        -3.73338000        +4.39013000
@H        -1.50659000        +3.03666000        +2.98141000
@H        -1.06872000        +2.91593000        +4.68496000
@H        -2.77118000        +2.93947000        +4.20900000
@H        +0.39948000        -1.55106000        +3.54773000
@H        +0.37523000        +0.89637000        +3.78520000
$end

$rem
JOBTYPE                   SP
METHOD                    B3LYP
DFT_D                     d3_op
BASIS                     6-311++G(d,p)
SYMMETRY                  False
THRESH                    12
SCF_CONVERGENCE           8
MAX_SUB_FILE_NUM          128
MEM_STATIC                400
MEM_TOTAL                 4000
$end
--------------------------------------------------------------

             Standard Nuclear Orientation (Angstroms)
    I     Atom           X                Y                Z
 ----------------------------------------------------------------
    1      C      -0.5845400000    -0.6755600000    -0.0754400000
    2      C      -0.5985100000     0.7092000000     0.0580800000
    3      C      -1.7763300000    -1.4099000000    -0.1325200000
    4      C      -2.9782800000    -0.7038800000    -0.0561100000
    5      C      -2.9924400000     0.6847700000     0.0771900000
    6      C      -1.8051300000     1.4168700000     0.1345200000
    7      H      -3.9437800000     1.2044100000     0.1359400000
    8      H      -3.9186400000    -1.2447400000    -0.1002200000
    9      C      -1.8154600000     2.9221000000     0.2494900000
   10      C      -1.7573200000    -2.9158900000    -0.2464000000
   11      H      -1.0316000000    -3.2518500000    -0.9923500000
   12      H      -2.7371200000    -3.3060000000    -0.5310500000
   13      H      -1.4821300000    -3.3794000000     0.7072500000
   14      H      -1.5400600000     3.3906400000    -0.7014700000
   15      H      -1.1021900000     3.2699100000     1.0020800000
   16      H      -2.8046500000     3.2934500000     0.5261200000
   17      H       0.3660100000    -1.1970800000    -0.1351500000
   18      H       0.3417600000     1.2503500000     0.1023200000
   19      GH     -0.5510700000    -1.0295400000     3.6074400000
   20      GH     -0.5650400000     0.3552200000     3.7409600000
   21      GH     -1.7428600000    -1.7638800000     3.5503600000
   22      GH     -2.9448100000    -1.0578600000     3.6267700000
   23      GH     -2.9589700000     0.3307900000     3.7600700000
   24      GH     -1.7716600000     1.0628900000     3.8174000000
   25      GH     -3.9103100000     0.8504300000     3.8188200000
   26      GH     -3.8851700000    -1.5987200000     3.5826600000
   27      GH     -1.7819900000     2.5681200000     3.9323700000
   28      GH     -1.7238500000    -3.2698700000     3.4364800000
   29      GH     -0.9981300000    -3.6058300000     2.6905300000
   30      GH     -2.7036500000    -3.6599800000     3.1518300000
   31      GH     -1.4486600000    -3.7333800000     4.3901300000
   32      GH     -1.5065900000     3.0366600000     2.9814100000
   33      GH     -1.0687200000     2.9159300000     4.6849600000
   34      GH     -2.7711800000     2.9394700000     4.2090000000
   35      GH      0.3994800000    -1.5510600000     3.5477300000
   36      GH      0.3752300000     0.8963700000     3.7852000000
 ----------------------------------------------------------------

   13    -310.9816465451      1.06E-09 Convergence criterion met
 Total energy in the final basis set = -310.98164655

                    Orbital Energies (a.u.)
 --------------------------------------------------------------

 Alpha MOs
 -- Occupied --
-10.180 -10.180 -10.171 -10.170 -10.170 -10.170 -10.167 -10.167
 -0.860  -0.787  -0.744  -0.721  -0.657  -0.608  -0.575  -0.494
 -0.473  -0.453  -0.425  -0.419  -0.417  -0.402  -0.398  -0.375
 -0.347  -0.342  -0.337  -0.254  -0.237

          Ground-State Mulliken Net Atomic Charges

     Atom                 Charge (a.u.)
  ----------------------------------------
      1 C                    -0.382751
      2 C                    -0.283052
      3 C                     0.486703
      4 C                    -0.400323
      5 C                    -0.372902
      6 C                     0.592671
      7 H                     0.161282
      8 H                     0.172049
      9 C                    -0.584948
     10 C                    -0.717064
     11 H                     0.143867
     12 H                     0.139132
     13 H                     0.185480
     14 H                     0.165320
     15 H                     0.142065
     16 H                     0.136538
     17 H                     0.177301
     18 H                     0.177222
     19 GH                    0.024179
     20 GH                   -0.001610
     21 GH                    0.004153
     22 GH                    0.012457
     23 GH                    0.024993
     24 GH                   -0.096585
     25 GH                    0.011242
     26 GH                    0.005567
     27 GH                   -0.010215
     28 GH                    0.056595
     29 GH                   -0.004708
     30 GH                   -0.000008
     31 GH                    0.000377
     32 GH                    0.023747
     33 GH                   -0.000095
     34 GH                   -0.002232
     35 GH                    0.007031
     36 GH                    0.006521
  ----------------------------------------
  Sum of atomic charges =    -0.000000

                    Cartesian Multipole Moments
 -----------------------------------------------------------------
    Charge (ESU x 10^10)
                -0.0000
    Dipole Moment (Debye)
         X       0.0587      Y       0.0032      Z      -0.0006
       Tot       0.0587
    Quadrupole Moments (Debye-Ang)
        XX     -46.3486     XY      -0.0055     YY     -44.8664
        XZ      -0.0619     YZ       0.6111     ZZ     -52.7114

 Total job time:  185.63s(wall), 737.05s(cpu)
        *  Thank you very much for using Q-Chem.  Have a nice day.  *
