 Q-Chem 5.0, Q-Chem, Inc., Pleasanton, CA (2017)
 Q-Chem 5.0.1 for Intel X86 EM64T Linux

User input:
--------------------------------------------------------------
$molecule
0  1
--
0  1
C        -0.58454000        -0.67556000        -0.07544000
C        -0.59851000        +0.70920000        +0.05808000
C        -1.77633000        -1.40990000        -0.13252000
C        -2.97828000        -0.70388000        -0.05611000
C        -2.99244000        +0.68477000        +0.07719000
C        -1.80513000        +1.41687000        +0.13452000
H        -3.94378000        +1.20441000        +0.13594000
H        -3.91864000        -1.24474000        -0.10022000
C        -1.81546000        +2.92210000        +0.24949000
C        -1.75732000        -2.91589000        -0.24640000
H        -1.03160000        -3.25185000        -0.99235000
H        -2.73712000        -3.30600000        -0.53105000
H        -1.48213000        -3.37940000        +0.70725000
H        -1.54006000        +3.39064000        -0.70147000
H        -1.10219000        +3.26991000        +1.00208000
H        -2.80465000        +3.29345000        +0.52612000
H        +0.36601000        -1.19708000        -0.13515000
H        +0.34176000        +1.25035000        +0.10232000
--
0  1
C        -0.55107000        -1.02954000        +3.60744000
C        -0.56504000        +0.35522000        +3.74096000
C        -1.74286000        -1.76388000        +3.55036000
C        -2.94481000        -1.05786000        +3.62677000
C        -2.95897000        +0.33079000        +3.76007000
C        -1.77166000        +1.06289000        +3.81740000
H        -3.91031000        +0.85043000        +3.81882000
H        -3.88517000        -1.59872000        +3.58266000
C        -1.78199000        +2.56812000        +3.93237000
C        -1.72385000        -3.26987000        +3.43648000
H        -0.99813000        -3.60583000        +2.69053000
H        -2.70365000        -3.65998000        +3.15183000
H        -1.44866000        -3.73338000        +4.39013000
H        -1.50659000        +3.03666000        +2.98141000
H        -1.06872000        +2.91593000        +4.68496000
H        -2.77118000        +2.93947000        +4.20900000
H        +0.39948000        -1.55106000        +3.54773000
H        +0.37523000        +0.89637000        +3.78520000
$end

$rem
JOBTYPE                   SP
METHOD                    B3LYP
DFT_D                     d3_op
BASIS                     6-311++G(d,p)
SYMMETRY                  False
THRESH                    12
SCF_CONVERGENCE           8
MAX_SUB_FILE_NUM          128
MEM_STATIC                400
MEM_TOTAL                 4000
$end
--------------------------------------------------------------

             Standard Nuclear Orientation (Angstroms)
    I     Atom           X                Y                Z
 ----------------------------------------------------------------
    1      C       0.3172529959    -1.9509190330    -1.1967471264
    2      C      -1.0467545987    -1.6769370676    -1.1963308181
    3      C       1.0283950781    -2.0909013088     0.0022352203
    4      C       0.3202628533    -1.9512332163     1.1972365204
    5      C      -1.0476388079    -1.6770746021     1.1977999346
    6      C      -1.7565779962    -1.5371033069     0.0033228780
    7      H      -1.5693333349    -1.5722429510     2.1440399851
    8      H       0.8431168455    -2.0568273603     2.1428716196
    9      C      -3.2422698804    -1.2692596914    -0.0013231590
   10      C       2.5150524362    -2.3576777749    -0.0017811415
   11      H       2.7814338978    -3.1289404308    -0.7299122252
   12      H       2.8629867115    -2.6874477035     0.9797549041
   13      H       3.0764403654    -1.4543937102    -0.2643470761
   14      H      -3.8021466197    -2.1655241269    -0.2893299500
   15      H      -3.5034522977    -0.4801715386    -0.7121263871
   16      H      -3.5946774074    -0.9630802821     0.9860900978
   17      H       0.8407108061    -2.0569029273    -2.1421851371
   18      H      -1.5698848313    -1.5711846483    -2.1418779394
   19      C       1.0451313884     1.6767827492    -1.1967282209
   20      C      -0.3188762062     1.9507647147    -1.1963119126
   21      C       1.7562734706     1.5368004734     0.0022541258
   22      C       1.0481412459     1.6764685659     1.1972554259
   23      C      -0.3197604154     1.9506271802     1.1978188401
   24      C      -1.0286996037     2.0905984754     0.0033417835
   25      H      -0.8414549424     2.0554588313     2.1440588906
   26      H       1.5709952380     1.5708744220     2.1428905251
   27      C      -2.5143914879     2.3584420909    -0.0013042535
   28      C       3.2429308287     1.2700240073    -0.0017622360
   29      H       3.5093122903     0.4987613515    -0.7298933198
   30      H       3.5908651041     0.9402540787     0.9797738096
   31      H       3.8043187579     2.1733080721    -0.2643281707
   32      H      -3.0742682272     1.4621776553    -0.2893110445
   33      H      -2.7755739052     3.1475302437    -0.7121074816
   34      H      -2.8667990149     2.6646215002     0.9861090033
   35      H       1.5685891986     1.5707988550    -2.1421662316
   36      H      -0.8420064388     2.0565171340    -2.1418590339
 ----------------------------------------------------------------

   13    -621.9661010637      6.74E-09 Convergence criterion met
 Total energy in the final basis set = -621.96610106

                    Orbital Energies (a.u.)
 --------------------------------------------------------------

 Alpha MOs
 -- Occupied --
-10.176 -10.175 -10.175 -10.175 -10.166 -10.166 -10.166 -10.166
-10.165 -10.165 -10.165 -10.165 -10.165 -10.165 -10.164 -10.164
 -0.856  -0.854  -0.785  -0.782  -0.741  -0.738  -0.721  -0.716
 -0.657  -0.652  -0.605  -0.603  -0.572  -0.570  -0.492  -0.489
 -0.470  -0.468  -0.450  -0.448  -0.436  -0.429  -0.415  -0.413
 -0.409  -0.403  -0.402  -0.396  -0.396  -0.393  -0.374  -0.371
 -0.353  -0.339  -0.337  -0.334  -0.332  -0.330  -0.259  -0.242
 -0.237  -0.222

          Ground-State Mulliken Net Atomic Charges

     Atom                 Charge (a.u.)
  ----------------------------------------
      1 C                    -0.386093
      2 C                    -0.245734
      3 C                     0.429279
      4 C                    -0.379963
      5 C                    -0.346056
      6 C                     0.565106
      7 H                     0.160351
      8 H                     0.175074
      9 C                    -0.499480
     10 C                    -0.711037
     11 H                     0.141095
     12 H                     0.136310
     13 H                     0.183624
     14 H                     0.164368
     15 H                     0.123841
     16 H                     0.135373
     17 H                     0.176234
     18 H                     0.177325
     19 C                    -0.247131
     20 C                    -0.385585
     21 C                     0.578790
     22 C                    -0.351020
     23 C                    -0.382105
     24 C                     0.419385
     25 H                     0.174602
     26 H                     0.160791
     27 C                    -0.705792
     28 C                    -0.499988
     29 H                     0.123993
     30 H                     0.135476
     31 H                     0.164579
     32 H                     0.183025
     33 H                     0.142030
     34 H                     0.135890
     35 H                     0.176878
     36 H                     0.176565
  ----------------------------------------
  Sum of atomic charges =     0.000000

                    Cartesian Multipole Moments
 -----------------------------------------------------------------
    Charge (ESU x 10^10)
                 0.0000
    Dipole Moment (Debye)
         X       0.0016      Y       0.0064      Z      -0.0673
       Tot       0.0676
    Quadrupole Moments (Debye-Ang)
        XX     -91.5003     XY      -2.6590     YY    -106.6560
        XZ       0.0055     YZ      -0.0018     ZZ     -92.5708

 Total job time:  195.11s(wall), 776.37s(cpu)
        *  Thank you very much for using Q-Chem.  Have a nice day.  *
