 Q-Chem 5.0, Q-Chem, Inc., Pleasanton, CA (2017)
 Q-Chem 5.0.1 for Intel X86 EM64T Linux

User input:
--------------------------------------------------------------
$molecule
0  1
--
0  1
C        +0.22270000        +1.04488000        +0.58595000
C        +0.62626000        -0.41353000        +0.99871000
C        -1.18200000        +1.23223000        +0.04377000
C        -0.37457000        -1.51643000        +0.72333000
O        -2.09172000        +0.78832000        +0.93966000
O        -1.47336000        +1.75939000        -0.99882000
O        -0.91364000        -1.42792000        -0.50620000
O        -0.62208000        -2.40877000        +1.49911000
C        -1.86134000        -2.44741000        -0.86560000
C        -3.47068000        +0.87492000        +0.53920000
C        +1.33008000        +1.39974000        -0.43491000
C        +2.63070000        +1.71700000        +0.32855000
C        +3.04336000        +0.29351000        +0.80300000
C        +1.94423000        -0.59299000        +0.15262000
O        +1.62840000        +0.13663000        -1.04376000
H        +0.27811000        +1.68786000        +1.46900000
H        +0.83923000        -0.48042000        +2.06408000
H        -2.68749000        -2.46677000        -0.15296000
H        -3.76076000        +1.91522000        +0.38406000
H        +3.37234000        +2.13782000        -0.35195000
H        +2.48236000        +2.42488000        +1.14651000
H        +4.02182000        +0.00994000        +0.41161000
H        +3.07359000        +0.18738000        +1.88928000
H        -2.21148000        -2.17765000        -1.85937000
H        -1.38062000        -3.42697000        -0.88096000
H        -4.03855000        +0.43623000        +1.35671000
H        -3.63120000        +0.31700000        -0.38495000
H        +1.03270000        +2.19943000        -1.08064000
H        +2.24339000        -1.61496000        +0.04786000
--
0  1
C        +0.24357000        +2.22684000        +4.40728000
C        +0.64713000        +0.76843000        +4.82004000
C        -1.16113000        +2.41419000        +3.86510000
C        -0.35370000        -0.33447000        +4.54466000
O        -2.07085000        +1.97028000        +4.76099000
O        -1.45249000        +2.94135000        +2.82251000
O        -0.89277000        -0.24596000        +3.31513000
O        -0.60121000        -1.22681000        +5.32044000
C        -1.84047000        -1.26545000        +2.95573000
C        -3.44981000        +2.05688000        +4.36053000
C        +1.35095000        +2.58170000        +3.38642000
C        +2.65157000        +2.89896000        +4.14988000
C        +3.06423000        +1.47547000        +4.62433000
C        +1.96510000        +0.58897000        +3.97395000
O        +1.64927000        +1.31859000        +2.77757000
H        +0.29898000        +2.86982000        +5.29033000
H        +0.86010000        +0.70154000        +5.88541000
H        -2.66662000        -1.28481000        +3.66837000
H        -3.73989000        +3.09718000        +4.20539000
H        +3.39321000        +3.31978000        +3.46938000
H        +2.50323000        +3.60684000        +4.96784000
H        +4.04269000        +1.19190000        +4.23294000
H        +3.09446000        +1.36934000        +5.71061000
H        -2.19061000        -0.99569000        +1.96196000
H        -1.35975000        -2.24501000        +2.94037000
H        -4.01768000        +1.61819000        +5.17804000
H        -3.61033000        +1.49896000        +3.43638000
H        +1.05357000        +3.38139000        +2.74069000
H        +2.26426000        -0.43300000        +3.86919000
$end

$rem
JOBTYPE                   SP
METHOD                    B3LYP
DFT_D                     d3_op
BASIS                     6-311++G(d,p)
SYMMETRY                  False
THRESH                    12
SCF_CONVERGENCE           8
MAX_SUB_FILE_NUM          128
MEM_STATIC                400
MEM_TOTAL                 4000
$end
--------------------------------------------------------------

             Standard Nuclear Orientation (Angstroms)
    I     Atom           X                Y                Z
 ----------------------------------------------------------------
    1      C      -1.0601420645     0.7816790528     0.9026807209
    2      C      -1.2101855602     0.9157982357    -0.6528546254
    3      C      -1.7949496720    -0.3728356990     1.5579628987
    4      C      -2.1526648137    -0.0459271260    -1.3461802549
    5      O      -1.4140559229    -1.5447558999     1.0022755286
    6      O      -2.5585742106    -0.2901762977     2.4852315818
    7      O      -3.3228059038    -0.1796598808    -0.6957497164
    8      O      -1.9049168307    -0.5911197042    -2.3953477695
    9      C      -4.2913092864    -1.0584721310    -1.2927034307
   10      C      -2.0605436877    -2.7261607416     1.5079776377
   11      C      -1.5401690488     2.1713624548     1.3850968899
   12      C      -0.4258454836     3.2034822440     1.1240428794
   13      C      -0.5050648230     3.3306333915    -0.4249153964
   14      C      -1.7094588397     2.4070993006    -0.7617877559
   15      O      -2.5292152772     2.5301897127     0.4113563833
   16      H      -0.0046014187     0.6230928319     1.1413336209
   17      H      -0.2533161016     0.7911840589    -1.1565567954
   18      H      -3.8736602596    -2.0594919479    -1.4122150125
   19      H      -1.8319956063    -2.8659199106     2.5656505858
   20      H      -0.6680702535     4.1488855691     1.6116280779
   21      H       0.5507364689     2.8765754843     1.4867784196
   22      H      -0.7310284831     4.3535558415    -0.7307783299
   23      H       0.4097865452     3.0228229168    -0.9352891359
   24      H      -5.1337464450    -1.0683575113    -0.6048450127
   25      H      -4.5980460591    -0.6810843533    -2.2696151253
   26      H      -1.6639175382    -3.5493719334     0.9178430053
   27      H      -3.1418762731    -2.6477297788     1.3828255576
   28      H      -1.8437136495     2.1519793610     2.4109580718
   29      H      -2.1559154088     2.6353917089    -1.7070142644
   30      C       2.7868388008    -0.2493263799     0.5314745962
   31      C       2.6367953051    -0.1152071971    -1.0240607500
   32      C       2.0520311933    -1.4038411318     1.1867567740
   33      C       1.6943160516    -1.0769325588    -1.7173863796
   34      O       2.4329249424    -2.5757613327     0.6310694039
   35      O       1.2884066547    -1.3211817305     2.1140254572
   36      O       0.5241749615    -1.2106653136    -1.0669558410
   37      O       1.9420640346    -1.6221251370    -2.7665538942
   38      C      -0.4443284211    -2.0894775638    -1.6639095553
   39      C       1.7864371776    -3.7571661744     1.1367715130
   40      C       2.3068118165     1.1403570220     1.0138907653
   41      C       3.4211353817     2.1724768112     0.7528367548
   42      C       3.3419160423     2.2996279587    -0.7961215210
   43      C       2.1375220256     1.3760938678    -1.1329938806
   44      O       1.3177655881     1.4991842799     0.0401502586
   45      H       3.8423794466    -0.4079126009     0.7701274963
   46      H       3.5936647637    -0.2398213739    -1.5277629200
   47      H      -0.0266793943    -3.0904973807    -1.7834211372
   48      H       2.0149852590    -3.8969253433     2.1944444611
   49      H       3.1789106118     3.1178801363     1.2404219532
   50      H       4.3977173342     1.8455700515     1.1155722950
   51      H       3.1159523822     3.3225504087    -1.1019844546
   52      H       4.2567674105     1.9918174840    -1.3064952605
   53      H      -1.2867655797    -2.0993629441    -0.9760511374
   54      H      -0.7510651938    -1.7120897860    -2.6408212499
   55      H       2.1830633271    -4.5803773662     0.5466368807
   56      H       0.7051045922    -3.6787352116     1.0116194329
   57      H       2.0032672158     1.1209739282     2.0397519471
   58      H       1.6910654565     1.6043862762    -2.0782203890
 ----------------------------------------------------------------

   15   -1531.6518105331      5.36E-09 Convergence criterion met
 Total energy in the final basis set = -1531.65181053

                    Orbital Energies (a.u.)
 --------------------------------------------------------------

 Alpha MOs
 -- Occupied --
-19.182 -19.170 -19.168 -19.163 -19.153 -19.128 -19.119 -19.114
-19.113 -19.104 -10.318 -10.306 -10.299 -10.293 -10.257 -10.249
-10.236 -10.229 -10.227 -10.226 -10.218 -10.215 -10.213 -10.195
-10.194 -10.194 -10.185 -10.179 -10.163 -10.161  -1.125  -1.118
 -1.111  -1.104  -1.090  -1.048  -1.039  -1.034  -1.023  -1.018
 -0.847  -0.815  -0.797  -0.792  -0.770  -0.762  -0.745  -0.731
 -0.726  -0.721  -0.666  -0.646  -0.623  -0.615  -0.598  -0.592
 -0.580  -0.576  -0.569  -0.564  -0.554  -0.542  -0.532  -0.523
 -0.518  -0.505  -0.501  -0.498  -0.493  -0.487  -0.481  -0.478
 -0.475  -0.472  -0.468  -0.464  -0.462  -0.452  -0.448  -0.435
 -0.433  -0.427  -0.424  -0.412  -0.412  -0.408  -0.402  -0.395
 -0.383  -0.380  -0.380  -0.374  -0.371  -0.369  -0.367  -0.363
 -0.356  -0.354  -0.347  -0.346  -0.344  -0.335  -0.326  -0.322
 -0.319  -0.311  -0.302  -0.300  -0.295  -0.289  -0.281  -0.275
 -0.270  -0.256

          Ground-State Mulliken Net Atomic Charges

     Atom                 Charge (a.u.)
  ----------------------------------------
      1 C                     0.393634
      2 C                    -0.000790
      3 C                    -0.576004
      4 C                    -0.257666
      5 O                    -0.000174
      6 O                    -0.144092
      7 O                     0.095098
      8 O                     0.054667
      9 C                    -0.126451
     10 C                    -0.269558
     11 C                    -0.541684
     12 C                    -0.168780
     13 C                    -0.273348
     14 C                    -0.760894
     15 O                    -0.097483
     16 H                     0.347587
     17 H                     0.253786
     18 H                     0.187215
     19 H                     0.213484
     20 H                     0.206469
     21 H                     0.133709
     22 H                     0.193427
     23 H                     0.117253
     24 H                     0.184509
     25 H                     0.169640
     26 H                     0.134516
     27 H                     0.198416
     28 H                     0.258978
     29 H                     0.245648
     30 C                    -0.021071
     31 C                     0.057106
     32 C                    -0.662401
     33 C                    -0.472270
     34 O                     0.100368
     35 O                    -0.081198
     36 O                     0.014439
     37 O                    -0.117572
     38 C                    -0.419788
     39 C                    -0.145192
     40 C                    -0.146536
     41 C                    -0.728180
     42 C                    -0.472805
     43 C                    -0.010462
     44 O                     0.152141
     45 H                     0.252855
     46 H                     0.301830
     47 H                     0.204424
     48 H                     0.167995
     49 H                     0.175244
     50 H                     0.144481
     51 H                     0.181859
     52 H                     0.135885
     53 H                     0.014849
     54 H                     0.273139
     55 H                     0.178339
     56 H                     0.178641
     57 H                     0.294157
     58 H                     0.278611
  ----------------------------------------
  Sum of atomic charges =     0.000000

                    Cartesian Multipole Moments
 -----------------------------------------------------------------
    Charge (ESU x 10^10)
                 0.0000
    Dipole Moment (Debye)
         X       3.7709      Y      -0.6972      Z       0.2788
       Tot       3.8449
    Quadrupole Moments (Debye-Ang)
        XX    -168.6095     XY      17.9266     YY    -163.4147
        XZ      15.3304     YZ     -10.4707     ZZ    -195.2594

 Total job time:  8673.97s(wall), 8653.30s(cpu)
        *  Thank you very much for using Q-Chem.  Have a nice day.  *
