 Q-Chem 5.0, Q-Chem, Inc., Pleasanton, CA (2017)
 Q-Chem 5.0.1 for Intel X86 EM64T Linux

User input:
--------------------------------------------------------------
$molecule
0  1
C        +0.22270000        +1.04488000        +0.58595000
C        +0.62626000        -0.41353000        +0.99871000
C        -1.18200000        +1.23223000        +0.04377000
C        -0.37457000        -1.51643000        +0.72333000
O        -2.09172000        +0.78832000        +0.93966000
O        -1.47336000        +1.75939000        -0.99882000
O        -0.91364000        -1.42792000        -0.50620000
O        -0.62208000        -2.40877000        +1.49911000
C        -1.86134000        -2.44741000        -0.86560000
C        -3.47068000        +0.87492000        +0.53920000
C        +1.33008000        +1.39974000        -0.43491000
C        +2.63070000        +1.71700000        +0.32855000
C        +3.04336000        +0.29351000        +0.80300000
C        +1.94423000        -0.59299000        +0.15262000
O        +1.62840000        +0.13663000        -1.04376000
H        +0.27811000        +1.68786000        +1.46900000
H        +0.83923000        -0.48042000        +2.06408000
H        -2.68749000        -2.46677000        -0.15296000
H        -3.76076000        +1.91522000        +0.38406000
H        +3.37234000        +2.13782000        -0.35195000
H        +2.48236000        +2.42488000        +1.14651000
H        +4.02182000        +0.00994000        +0.41161000
H        +3.07359000        +0.18738000        +1.88928000
H        -2.21148000        -2.17765000        -1.85937000
H        -1.38062000        -3.42697000        -0.88096000
H        -4.03855000        +0.43623000        +1.35671000
H        -3.63120000        +0.31700000        -0.38495000
H        +1.03270000        +2.19943000        -1.08064000
H        +2.24339000        -1.61496000        +0.04786000
@C        +0.24357000        +2.22684000        +4.40728000
@C        +0.64713000        +0.76843000        +4.82004000
@C        -1.16113000        +2.41419000        +3.86510000
@C        -0.35370000        -0.33447000        +4.54466000
@O        -2.07085000        +1.97028000        +4.76099000
@O        -1.45249000        +2.94135000        +2.82251000
@O        -0.89277000        -0.24596000        +3.31513000
@O        -0.60121000        -1.22681000        +5.32044000
@C        -1.84047000        -1.26545000        +2.95573000
@C        -3.44981000        +2.05688000        +4.36053000
@C        +1.35095000        +2.58170000        +3.38642000
@C        +2.65157000        +2.89896000        +4.14988000
@C        +3.06423000        +1.47547000        +4.62433000
@C        +1.96510000        +0.58897000        +3.97395000
@O        +1.64927000        +1.31859000        +2.77757000
@H        +0.29898000        +2.86982000        +5.29033000
@H        +0.86010000        +0.70154000        +5.88541000
@H        -2.66662000        -1.28481000        +3.66837000
@H        -3.73989000        +3.09718000        +4.20539000
@H        +3.39321000        +3.31978000        +3.46938000
@H        +2.50323000        +3.60684000        +4.96784000
@H        +4.04269000        +1.19190000        +4.23294000
@H        +3.09446000        +1.36934000        +5.71061000
@H        -2.19061000        -0.99569000        +1.96196000
@H        -1.35975000        -2.24501000        +2.94037000
@H        -4.01768000        +1.61819000        +5.17804000
@H        -3.61033000        +1.49896000        +3.43638000
@H        +1.05357000        +3.38139000        +2.74069000
@H        +2.26426000        -0.43300000        +3.86919000
$end

$rem
JOBTYPE                   SP
METHOD                    B3LYP
DFT_D                     d3_op
BASIS                     6-311++G(d,p)
SYMMETRY                  False
THRESH                    12
SCF_CONVERGENCE           8
MAX_SUB_FILE_NUM          128
MEM_STATIC                400
MEM_TOTAL                 4000
$end
--------------------------------------------------------------

             Standard Nuclear Orientation (Angstroms)
    I     Atom           X                Y                Z
 ----------------------------------------------------------------
    1      C       0.2227000000     1.0448800000     0.5859500000
    2      C       0.6262600000    -0.4135300000     0.9987100000
    3      C      -1.1820000000     1.2322300000     0.0437700000
    4      C      -0.3745700000    -1.5164300000     0.7233300000
    5      O      -2.0917200000     0.7883200000     0.9396600000
    6      O      -1.4733600000     1.7593900000    -0.9988200000
    7      O      -0.9136400000    -1.4279200000    -0.5062000000
    8      O      -0.6220800000    -2.4087700000     1.4991100000
    9      C      -1.8613400000    -2.4474100000    -0.8656000000
   10      C      -3.4706800000     0.8749200000     0.5392000000
   11      C       1.3300800000     1.3997400000    -0.4349100000
   12      C       2.6307000000     1.7170000000     0.3285500000
   13      C       3.0433600000     0.2935100000     0.8030000000
   14      C       1.9442300000    -0.5929900000     0.1526200000
   15      O       1.6284000000     0.1366300000    -1.0437600000
   16      H       0.2781100000     1.6878600000     1.4690000000
   17      H       0.8392300000    -0.4804200000     2.0640800000
   18      H      -2.6874900000    -2.4667700000    -0.1529600000
   19      H      -3.7607600000     1.9152200000     0.3840600000
   20      H       3.3723400000     2.1378200000    -0.3519500000
   21      H       2.4823600000     2.4248800000     1.1465100000
   22      H       4.0218200000     0.0099400000     0.4116100000
   23      H       3.0735900000     0.1873800000     1.8892800000
   24      H      -2.2114800000    -2.1776500000    -1.8593700000
   25      H      -1.3806200000    -3.4269700000    -0.8809600000
   26      H      -4.0385500000     0.4362300000     1.3567100000
   27      H      -3.6312000000     0.3170000000    -0.3849500000
   28      H       1.0327000000     2.1994300000    -1.0806400000
   29      H       2.2433900000    -1.6149600000     0.0478600000
   30      GH      0.2435700000     2.2268400000     4.4072800000
   31      GH      0.6471300000     0.7684300000     4.8200400000
   32      GH     -1.1611300000     2.4141900000     3.8651000000
   33      GH     -0.3537000000    -0.3344700000     4.5446600000
   34      GH     -2.0708500000     1.9702800000     4.7609900000
   35      GH     -1.4524900000     2.9413500000     2.8225100000
   36      GH     -0.8927700000    -0.2459600000     3.3151300000
   37      GH     -0.6012100000    -1.2268100000     5.3204400000
   38      GH     -1.8404700000    -1.2654500000     2.9557300000
   39      GH     -3.4498100000     2.0568800000     4.3605300000
   40      GH      1.3509500000     2.5817000000     3.3864200000
   41      GH      2.6515700000     2.8989600000     4.1498800000
   42      GH      3.0642300000     1.4754700000     4.6243300000
   43      GH      1.9651000000     0.5889700000     3.9739500000
   44      GH      1.6492700000     1.3185900000     2.7775700000
   45      GH      0.2989800000     2.8698200000     5.2903300000
   46      GH      0.8601000000     0.7015400000     5.8854100000
   47      GH     -2.6666200000    -1.2848100000     3.6683700000
   48      GH     -3.7398900000     3.0971800000     4.2053900000
   49      GH      3.3932100000     3.3197800000     3.4693800000
   50      GH      2.5032300000     3.6068400000     4.9678400000
   51      GH      4.0426900000     1.1919000000     4.2329400000
   52      GH      3.0944600000     1.3693400000     5.7106100000
   53      GH     -2.1906100000    -0.9956900000     1.9619600000
   54      GH     -1.3597500000    -2.2450100000     2.9403700000
   55      GH     -4.0176800000     1.6181900000     5.1780400000
   56      GH     -3.6103300000     1.4989600000     3.4363800000
   57      GH      1.0535700000     3.3813900000     2.7406900000
   58      GH      2.2642600000    -0.4330000000     3.8691900000
 ----------------------------------------------------------------

   14    -765.8603103446      6.77E-09 Convergence criterion met
 Total energy in the final basis set = -765.86031034

                    Orbital Energies (a.u.)
 --------------------------------------------------------------

 Alpha MOs
 -- Occupied --
-19.176 -19.174 -19.136 -19.120 -19.116 -10.310 -10.306 -10.242
-10.232 -10.232 -10.230 -10.207 -10.206 -10.182 -10.180  -1.120
 -1.113  -1.065  -1.031  -1.027  -0.833  -0.785  -0.778  -0.739
 -0.729  -0.659  -0.610  -0.596  -0.580  -0.567  -0.551  -0.520
 -0.506  -0.496  -0.488  -0.484  -0.475  -0.473  -0.462  -0.439
 -0.427  -0.424  -0.418  -0.399  -0.385  -0.376  -0.371  -0.368
 -0.362  -0.356  -0.337  -0.334  -0.320  -0.313  -0.290  -0.282
 -0.276

          Ground-State Mulliken Net Atomic Charges

     Atom                 Charge (a.u.)
  ----------------------------------------
      1 C                     0.014089
      2 C                     0.148619
      3 C                    -0.393184
      4 C                    -0.130596
      5 O                    -0.005042
      6 O                    -0.132330
      7 O                     0.077649
      8 O                    -0.038098
      9 C                    -0.127824
     10 C                    -0.293039
     11 C                    -0.524741
     12 C                    -0.241345
     13 C                    -0.388422
     14 C                    -0.654309
     15 O                    -0.085589
     16 H                     0.312784
     17 H                     0.324720
     18 H                     0.186794
     19 H                     0.202134
     20 H                     0.218609
     21 H                     0.157957
     22 H                     0.206436
     23 H                     0.159778
     24 H                     0.182632
     25 H                     0.168918
     26 H                     0.152250
     27 H                     0.199759
     28 H                     0.270068
     29 H                     0.262537
     30 GH                    0.020446
     31 GH                   -0.049649
     32 GH                   -0.033071
     33 GH                    0.008252
     34 GH                   -0.003093
     35 GH                   -0.015678
     36 GH                    0.083862
     37 GH                    0.004953
     38 GH                   -0.088974
     39 GH                    0.011260
     40 GH                   -0.072940
     41 GH                   -0.012707
     42 GH                    0.030472
     43 GH                   -0.010567
     44 GH                   -0.046787
     45 GH                    0.000807
     46 GH                   -0.001270
     47 GH                   -0.009538
     48 GH                    0.001418
     49 GH                   -0.000449
     50 GH                   -0.000761
     51 GH                    0.002859
     52 GH                   -0.000464
     53 GH                   -0.037988
     54 GH                    0.017983
     55 GH                    0.000130
     56 GH                   -0.021132
     57 GH                   -0.002434
     58 GH                   -0.006154
  ----------------------------------------
  Sum of atomic charges =     0.000000

                    Cartesian Multipole Moments
 -----------------------------------------------------------------
    Charge (ESU x 10^10)
                 0.0000
    Dipole Moment (Debye)
         X      -0.0032      Y       0.7244      Z       1.2331
       Tot       1.4301
    Quadrupole Moments (Debye-Ang)
        XX     -75.2900     XY       2.9667     YY     -89.7114
        XZ       3.3002     YZ      10.6550     ZZ     -95.7194

 Total job time:  8115.65s(wall), 8096.22s(cpu)
        *  Thank you very much for using Q-Chem.  Have a nice day.  *
