 Q-Chem 5.0, Q-Chem, Inc., Pleasanton, CA (2017)
 Q-Chem 5.0.1 for Intel X86 EM64T Linux

User input:
--------------------------------------------------------------
$molecule
0  1
--
0  1
C        -0.54444000        -0.68370000        -0.06689000
C        -0.55709000        +0.71878000        +0.05493000
C        +0.74969000        -1.43776000        -0.09374000
C        +0.72843000        +1.48436000        +0.06598000
O        +1.53645000        -1.09176000        +0.94813000
O        +1.04702000        -2.28405000        -0.90088000
O        +1.53784000        +1.08301000        -0.93877000
O        +1.01035000        +2.37097000        +0.83478000
C        +2.83449000        +1.70121000        -0.99358000
C        +2.82316000        -1.73208000        +1.00475000
C        -1.74320000        -1.41616000        -0.12552000
C        -2.93952000        -0.70056000        -0.05285000
C        -2.95313000        +0.68255000        +0.06934000
C        -1.77161000        +1.42404000        +0.12810000
H        +2.73835000        +2.77989000        -1.12464000
H        +2.70778000        -2.81319000        +1.09555000
H        -3.90354000        +1.20325000        +0.11710000
H        +3.38998000        +1.50093000        -0.07544000
H        +3.33184000        +1.25269000        -1.85067000
H        +3.31095000        -1.32281000        +1.88650000
H        +3.39889000        -1.50934000        +0.10459000
H        -3.87892000        -1.24211000        -0.08988000
H        -1.78886000        +2.45164000        +0.22176000
H        -1.73878000        -2.44393000        -0.21875000
--
0  1
C        -0.51691000        -1.03247000        +3.91778000
C        -0.52956000        +0.37001000        +4.03960000
C        +0.77722000        -1.78653000        +3.89093000
C        +0.75596000        +1.13559000        +4.05065000
O        +1.56398000        -1.44053000        +4.93280000
O        +1.07455000        -2.63282000        +3.08379000
O        +1.56537000        +0.73424000        +3.04590000
O        +1.03788000        +2.02220000        +4.81945000
C        +2.86202000        +1.35244000        +2.99109000
C        +2.85069000        -2.08085000        +4.98942000
C        -1.71567000        -1.76493000        +3.85915000
C        -2.91199000        -1.04933000        +3.93182000
C        -2.92560000        +0.33378000        +4.05401000
C        -1.74408000        +1.07527000        +4.11277000
H        +2.76588000        +2.43112000        +2.86003000
H        +2.73531000        -3.16196000        +5.08022000
H        -3.87601000        +0.85448000        +4.10177000
H        +3.41751000        +1.15216000        +3.90923000
H        +3.35937000        +0.90392000        +2.13400000
H        +3.33848000        -1.67158000        +5.87117000
H        +3.42642000        -1.85811000        +4.08926000
H        -3.85139000        -1.59088000        +3.89479000
H        -1.76133000        +2.10287000        +4.20643000
H        -1.71125000        -2.79270000        +3.76592000
$end

$rem
JOBTYPE                   SP
METHOD                    B3LYP
DFT_D                     d3_op
BASIS                     6-311++G(d,p)
SYMMETRY                  False
THRESH                    12
SCF_CONVERGENCE           8
MAX_SUB_FILE_NUM          128
MEM_STATIC                400
MEM_TOTAL                 4000
$end
--------------------------------------------------------------

             Standard Nuclear Orientation (Angstroms)
    I     Atom           X                Y                Z
 ----------------------------------------------------------------
    1      C      -1.9298055613     0.7747339033     0.9297722402
    2      C      -2.0969977124     0.7913980188    -0.4679828804
    3      C      -1.7646278169    -0.5198318830     1.6652418864
    4      C      -2.2049087713    -0.4930088726    -1.2278846175
    5      O      -0.7927745154    -1.2751125425     1.1091369678
    6      O      -2.3732028686    -0.8413078773     2.6563909489
    7      O      -3.0826955115    -1.3320996614    -0.6352919918
    8      O      -1.6252161348    -0.7516566041    -2.2543676503
    9      C      -3.2246722728    -2.6296344583    -1.2375565920
   10      C      -0.5693300803    -2.5597436175     1.7162891205
   11      C      -1.8726835550     1.9710112875     1.6663984429
   12      C      -1.9823337589     3.1691645716     0.9586192599
   13      C      -2.1452413428     3.1867938802    -0.4202423092
   14      C      -2.2045795214     2.0077552362    -1.1656257841
   15      H      -3.5757119715    -2.5371401187    -2.2662383177
   16      H      -0.2633471919    -2.4420117048     2.7568993670
   17      H      -2.2323611619     4.1383499507    -0.9337010295
   18      H      -2.2692137945    -3.1575855851    -1.2321730801
   19      H      -3.9574283466    -3.1524185985    -0.6269046779
   20      H       0.2242330887    -3.0209387247     1.1327819232
   21      H      -1.4788522495    -3.1619686782     1.6780717684
   22      H      -1.9354621885     4.1068936802     1.5022985388
   23      H      -2.3230060393     2.0280739725    -2.1906105776
   24      H      -1.7541749899     1.9635296186     2.6915434506
   25      C       2.0413222710     0.8658084381     0.4587705507
   26      C       1.8741301199     0.8824725536    -0.9389845699
   27      C       2.2065000154    -0.4287573483     1.1942401970
   28      C       1.7662190610    -0.4019343378    -1.6988863069
   29      O       3.1783533168    -1.1840380077     0.6381352784
   30      O       1.5979249637    -0.7502333425     2.1853892595
   31      O       0.8884323208    -1.2410251267    -1.1062936813
   32      O       2.3459116975    -0.6605820693    -2.7253693398
   33      C       0.7464555595    -2.5385599236    -1.7085582815
   34      C       3.4017977520    -2.4686690827     1.2452874310
   35      C       2.0984442773     2.0620858223     1.1953967534
   36      C       1.9887940733     3.2602391064     0.4876175705
   37      C       1.8258864895     3.2778684149    -0.8912439987
   38      C       1.7665483109     2.0988297709    -1.6366274736
   39      H       0.3954158608    -2.4460655840    -2.7372400071
   40      H       3.7077806404    -2.3509371700     2.2858976776
   41      H       1.7387666704     4.2294244855    -1.4047027190
   42      H       1.7019140378    -3.0665110503    -1.7031747696
   43      H       0.0136994857    -3.0613440637    -1.0979063674
   44      H       4.1953609210    -2.9298641899     0.6617802338
   45      H       2.4922755827    -3.0708941435     1.2070700790
   46      H       2.0356656438     4.1979682149     1.0312968494
   47      H       1.6481217930     2.1191485073    -2.6616122671
   48      H       2.2169528424     2.0546041534     2.2205417611
 ----------------------------------------------------------------

   15   -1376.4264521861      7.57E-09 Convergence criterion met
 Total energy in the final basis set = -1376.42645219

                    Orbital Energies (a.u.)
 --------------------------------------------------------------

 Alpha MOs
 -- Occupied --
-19.178 -19.177 -19.166 -19.164 -19.121 -19.120 -19.113 -19.111
-10.313 -10.313 -10.305 -10.304 -10.235 -10.234 -10.224 -10.222
-10.211 -10.210 -10.210 -10.209 -10.195 -10.195 -10.194 -10.194
-10.194 -10.193 -10.193 -10.193  -1.121  -1.120  -1.108  -1.107
 -1.033  -1.032  -1.023  -1.021  -0.884  -0.882  -0.796  -0.795
 -0.783  -0.782  -0.741  -0.740  -0.729  -0.725  -0.652  -0.652
 -0.643  -0.641  -0.593  -0.591  -0.575  -0.574  -0.553  -0.547
 -0.522  -0.519  -0.516  -0.508  -0.494  -0.492  -0.487  -0.486
 -0.485  -0.478  -0.477  -0.468  -0.467  -0.466  -0.464  -0.461
 -0.440  -0.435  -0.430  -0.421  -0.413  -0.413  -0.404  -0.401
 -0.386  -0.386  -0.385  -0.383  -0.379  -0.375  -0.366  -0.365
 -0.364  -0.351  -0.323  -0.320  -0.309  -0.306  -0.299  -0.294
 -0.293  -0.287  -0.275  -0.272  -0.266  -0.263

          Ground-State Mulliken Net Atomic Charges

     Atom                 Charge (a.u.)
  ----------------------------------------
      1 C                     0.616891
      2 C                     0.646170
      3 C                    -0.599483
      4 C                    -0.812073
      5 O                     0.138421
      6 O                    -0.156574
      7 O                     0.148768
      8 O                    -0.114745
      9 C                    -0.137099
     10 C                    -0.388268
     11 C                    -0.090597
     12 C                    -0.323641
     13 C                    -0.308755
     14 C                    -0.416134
     15 H                     0.170651
     16 H                     0.246923
     17 H                     0.181612
     18 H                     0.187920
     19 H                     0.173421
     20 H                     0.055677
     21 H                     0.190798
     22 H                     0.178809
     23 H                     0.203014
     24 H                     0.215154
     25 C                     0.589770
     26 C                     0.678446
     27 C                    -0.821127
     28 C                    -0.621783
     29 O                     0.155032
     30 O                    -0.107586
     31 O                     0.125286
     32 O                    -0.154510
     33 C                    -0.407579
     34 C                    -0.120383
     35 C                    -0.405995
     36 C                    -0.305263
     37 C                    -0.327857
     38 C                    -0.087633
     39 H                     0.250375
     40 H                     0.170032
     41 H                     0.178847
     42 H                     0.194548
     43 H                     0.052607
     44 H                     0.174532
     45 H                     0.185272
     46 H                     0.181701
     47 H                     0.215742
     48 H                     0.200666
  ----------------------------------------
  Sum of atomic charges =    -0.000000

                    Cartesian Multipole Moments
 -----------------------------------------------------------------
    Charge (ESU x 10^10)
                -0.0000
    Dipole Moment (Debye)
         X       0.2047      Y       0.3012      Z       0.1946
       Tot       0.4129
    Quadrupole Moments (Debye-Ang)
        XX    -167.9054     XY      -1.5246     YY    -126.5923
        XZ      18.4301     YZ       0.8562     ZZ    -176.5361

 Total job time:  1421.72s(wall), 2831.34s(cpu)
        *  Thank you very much for using Q-Chem.  Have a nice day.  *
