 Q-Chem 5.0, Q-Chem, Inc., Pleasanton, CA (2017)
 Q-Chem 5.0.1 for Intel X86 EM64T Linux

User input:
--------------------------------------------------------------
$molecule
0  1
C        -0.54444000        -0.68370000        -0.06689000
C        -0.55709000        +0.71878000        +0.05493000
C        +0.74969000        -1.43776000        -0.09374000
C        +0.72843000        +1.48436000        +0.06598000
O        +1.53645000        -1.09176000        +0.94813000
O        +1.04702000        -2.28405000        -0.90088000
O        +1.53784000        +1.08301000        -0.93877000
O        +1.01035000        +2.37097000        +0.83478000
C        +2.83449000        +1.70121000        -0.99358000
C        +2.82316000        -1.73208000        +1.00475000
C        -1.74320000        -1.41616000        -0.12552000
C        -2.93952000        -0.70056000        -0.05285000
C        -2.95313000        +0.68255000        +0.06934000
C        -1.77161000        +1.42404000        +0.12810000
H        +2.73835000        +2.77989000        -1.12464000
H        +2.70778000        -2.81319000        +1.09555000
H        -3.90354000        +1.20325000        +0.11710000
H        +3.38998000        +1.50093000        -0.07544000
H        +3.33184000        +1.25269000        -1.85067000
H        +3.31095000        -1.32281000        +1.88650000
H        +3.39889000        -1.50934000        +0.10459000
H        -3.87892000        -1.24211000        -0.08988000
H        -1.78886000        +2.45164000        +0.22176000
H        -1.73878000        -2.44393000        -0.21875000
@C        -0.51691000        -1.03247000        +3.91778000
@C        -0.52956000        +0.37001000        +4.03960000
@C        +0.77722000        -1.78653000        +3.89093000
@C        +0.75596000        +1.13559000        +4.05065000
@O        +1.56398000        -1.44053000        +4.93280000
@O        +1.07455000        -2.63282000        +3.08379000
@O        +1.56537000        +0.73424000        +3.04590000
@O        +1.03788000        +2.02220000        +4.81945000
@C        +2.86202000        +1.35244000        +2.99109000
@C        +2.85069000        -2.08085000        +4.98942000
@C        -1.71567000        -1.76493000        +3.85915000
@C        -2.91199000        -1.04933000        +3.93182000
@C        -2.92560000        +0.33378000        +4.05401000
@C        -1.74408000        +1.07527000        +4.11277000
@H        +2.76588000        +2.43112000        +2.86003000
@H        +2.73531000        -3.16196000        +5.08022000
@H        -3.87601000        +0.85448000        +4.10177000
@H        +3.41751000        +1.15216000        +3.90923000
@H        +3.35937000        +0.90392000        +2.13400000
@H        +3.33848000        -1.67158000        +5.87117000
@H        +3.42642000        -1.85811000        +4.08926000
@H        -3.85139000        -1.59088000        +3.89479000
@H        -1.76133000        +2.10287000        +4.20643000
@H        -1.71125000        -2.79270000        +3.76592000
$end

$rem
JOBTYPE                   SP
METHOD                    B3LYP
DFT_D                     d3_op
BASIS                     6-311++G(d,p)
SYMMETRY                  False
THRESH                    12
SCF_CONVERGENCE           8
MAX_SUB_FILE_NUM          128
MEM_STATIC                400
MEM_TOTAL                 4000
$end
--------------------------------------------------------------

             Standard Nuclear Orientation (Angstroms)
    I     Atom           X                Y                Z
 ----------------------------------------------------------------
    1      C      -0.5444400000    -0.6837000000    -0.0668900000
    2      C      -0.5570900000     0.7187800000     0.0549300000
    3      C       0.7496900000    -1.4377600000    -0.0937400000
    4      C       0.7284300000     1.4843600000     0.0659800000
    5      O       1.5364500000    -1.0917600000     0.9481300000
    6      O       1.0470200000    -2.2840500000    -0.9008800000
    7      O       1.5378400000     1.0830100000    -0.9387700000
    8      O       1.0103500000     2.3709700000     0.8347800000
    9      C       2.8344900000     1.7012100000    -0.9935800000
   10      C       2.8231600000    -1.7320800000     1.0047500000
   11      C      -1.7432000000    -1.4161600000    -0.1255200000
   12      C      -2.9395200000    -0.7005600000    -0.0528500000
   13      C      -2.9531300000     0.6825500000     0.0693400000
   14      C      -1.7716100000     1.4240400000     0.1281000000
   15      H       2.7383500000     2.7798900000    -1.1246400000
   16      H       2.7077800000    -2.8131900000     1.0955500000
   17      H      -3.9035400000     1.2032500000     0.1171000000
   18      H       3.3899800000     1.5009300000    -0.0754400000
   19      H       3.3318400000     1.2526900000    -1.8506700000
   20      H       3.3109500000    -1.3228100000     1.8865000000
   21      H       3.3988900000    -1.5093400000     0.1045900000
   22      H      -3.8789200000    -1.2421100000    -0.0898800000
   23      H      -1.7888600000     2.4516400000     0.2217600000
   24      H      -1.7387800000    -2.4439300000    -0.2187500000
   25      GH     -0.5169100000    -1.0324700000     3.9177800000
   26      GH     -0.5295600000     0.3700100000     4.0396000000
   27      GH      0.7772200000    -1.7865300000     3.8909300000
   28      GH      0.7559600000     1.1355900000     4.0506500000
   29      GH      1.5639800000    -1.4405300000     4.9328000000
   30      GH      1.0745500000    -2.6328200000     3.0837900000
   31      GH      1.5653700000     0.7342400000     3.0459000000
   32      GH      1.0378800000     2.0222000000     4.8194500000
   33      GH      2.8620200000     1.3524400000     2.9910900000
   34      GH      2.8506900000    -2.0808500000     4.9894200000
   35      GH     -1.7156700000    -1.7649300000     3.8591500000
   36      GH     -2.9119900000    -1.0493300000     3.9318200000
   37      GH     -2.9256000000     0.3337800000     4.0540100000
   38      GH     -1.7440800000     1.0752700000     4.1127700000
   39      GH      2.7658800000     2.4311200000     2.8600300000
   40      GH      2.7353100000    -3.1619600000     5.0802200000
   41      GH     -3.8760100000     0.8544800000     4.1017700000
   42      GH      3.4175100000     1.1521600000     3.9092300000
   43      GH      3.3593700000     0.9039200000     2.1340000000
   44      GH      3.3384800000    -1.6715800000     5.8711700000
   45      GH      3.4264200000    -1.8581100000     4.0892600000
   46      GH     -3.8513900000    -1.5908800000     3.8947900000
   47      GH     -1.7613300000     2.1028700000     4.2064300000
   48      GH     -1.7112500000    -2.7927000000     3.7659200000
 ----------------------------------------------------------------

   14    -688.2118339439      5.78E-09 Convergence criterion met
 Total energy in the final basis set = -688.21183394

                    Orbital Energies (a.u.)
 --------------------------------------------------------------

 Alpha MOs
 -- Occupied --
-19.179 -19.178 -19.122 -19.122 -10.314 -10.314 -10.233 -10.233
-10.215 -10.214 -10.198 -10.198 -10.197 -10.197  -1.123  -1.116
 -1.033  -1.032  -0.887  -0.800  -0.787  -0.744  -0.733  -0.656
 -0.646  -0.596  -0.579  -0.555  -0.524  -0.516  -0.493  -0.492
 -0.485  -0.479  -0.472  -0.468  -0.440  -0.431  -0.416  -0.408
 -0.389  -0.386  -0.384  -0.369  -0.366  -0.324  -0.315  -0.301
 -0.297  -0.275  -0.272

          Ground-State Mulliken Net Atomic Charges

     Atom                 Charge (a.u.)
  ----------------------------------------
      1 C                     0.721121
      2 C                     0.726741
      3 C                    -0.653603
      4 C                    -0.822309
      5 O                     0.095060
      6 O                    -0.148629
      7 O                     0.140776
      8 O                    -0.101698
      9 C                    -0.148239
     10 C                    -0.411854
     11 C                    -0.172104
     12 C                    -0.309916
     13 C                    -0.335395
     14 C                    -0.416186
     15 H                     0.169486
     16 H                     0.216941
     17 H                     0.184573
     18 H                     0.198331
     19 H                     0.171884
     20 H                     0.116841
     21 H                     0.200404
     22 H                     0.183795
     23 H                     0.203296
     24 H                     0.211051
     25 GH                   -0.114058
     26 GH                   -0.128938
     27 GH                    0.073642
     28 GH                    0.041844
     29 GH                   -0.002527
     30 GH                    0.002487
     31 GH                    0.034643
     32 GH                    0.001305
     33 GH                   -0.012710
     34 GH                   -0.019932
     35 GH                    0.003703
     36 GH                    0.026309
     37 GH                   -0.020865
     38 GH                    0.090306
     39 GH                    0.010450
     40 GH                    0.001335
     41 GH                    0.000643
     42 GH                    0.000430
     43 GH                   -0.026163
     44 GH                   -0.001764
     45 GH                    0.006049
     46 GH                    0.003598
     47 GH                    0.005545
     48 GH                    0.004299
  ----------------------------------------
  Sum of atomic charges =     0.000000

                    Cartesian Multipole Moments
 -----------------------------------------------------------------
    Charge (ESU x 10^10)
                 0.0000
    Dipole Moment (Debye)
         X      -0.0501      Y      -0.1145      Z       0.0988
       Tot       0.1593
    Quadrupole Moments (Debye-Ang)
        XX     -61.4442     XY      -0.0399     YY     -84.3923
        XZ       0.0712     YZ      -9.6918     ZZ     -86.9522

 Total job time:  1403.40s(wall), 2789.61s(cpu)
        *  Thank you very much for using Q-Chem.  Have a nice day.  *
