 Q-Chem 5.0, Q-Chem, Inc., Pleasanton, CA (2017)
 Q-Chem 5.0.1 for Intel X86 EM64T Linux

User input:
--------------------------------------------------------------
$molecule
0  1
--
0  1
C        +0.22270000        +1.04488000        +0.58595000
C        +0.62626000        -0.41353000        +0.99871000
C        -1.18200000        +1.23223000        +0.04377000
C        -0.37457000        -1.51643000        +0.72333000
O        -2.09172000        +0.78832000        +0.93966000
O        -1.47336000        +1.75939000        -0.99882000
O        -0.91364000        -1.42792000        -0.50620000
O        -0.62208000        -2.40877000        +1.49911000
C        -1.86134000        -2.44741000        -0.86560000
C        -3.47068000        +0.87492000        +0.53920000
C        +1.33008000        +1.39974000        -0.43491000
C        +2.63070000        +1.71700000        +0.32855000
C        +3.04336000        +0.29351000        +0.80300000
C        +1.94423000        -0.59299000        +0.15262000
O        +1.62840000        +0.13663000        -1.04376000
H        +0.27811000        +1.68786000        +1.46900000
H        +0.83923000        -0.48042000        +2.06408000
H        -2.68749000        -2.46677000        -0.15296000
H        -3.76076000        +1.91522000        +0.38406000
H        +3.37234000        +2.13782000        -0.35195000
H        +2.48236000        +2.42488000        +1.14651000
H        +4.02182000        +0.00994000        +0.41161000
H        +3.07359000        +0.18738000        +1.88928000
H        -2.21148000        -2.17765000        -1.85937000
H        -1.38062000        -3.42697000        -0.88096000
H        -4.03855000        +0.43623000        +1.35671000
H        -3.63120000        +0.31700000        -0.38495000
C        +2.35450000        -2.01267000        -0.16812000
H        +3.26311000        -2.00678000        -0.77366000
H        +2.54990000        -2.57059000        +0.75079000
H        +1.57335000        -2.52896000        -0.72872000
H        +1.03270000        +2.19943000        -1.08064000
--
0  1
C        +0.24357000        +2.22684000        +4.40728000
C        +0.64713000        +0.76843000        +4.82004000
C        -1.16113000        +2.41419000        +3.86510000
C        -0.35370000        -0.33447000        +4.54466000
O        -2.07085000        +1.97028000        +4.76099000
O        -1.45249000        +2.94135000        +2.82251000
O        -0.89277000        -0.24596000        +3.31513000
O        -0.60121000        -1.22681000        +5.32044000
C        -1.84047000        -1.26545000        +2.95573000
C        -3.44981000        +2.05688000        +4.36053000
C        +1.35095000        +2.58170000        +3.38642000
C        +2.65157000        +2.89896000        +4.14988000
C        +3.06423000        +1.47547000        +4.62433000
C        +1.96510000        +0.58897000        +3.97395000
O        +1.64927000        +1.31859000        +2.77757000
H        +0.29898000        +2.86982000        +5.29033000
H        +0.86010000        +0.70154000        +5.88541000
H        -2.66662000        -1.28481000        +3.66837000
H        -3.73989000        +3.09718000        +4.20539000
H        +3.39321000        +3.31978000        +3.46938000
H        +2.50323000        +3.60684000        +4.96784000
H        +4.04269000        +1.19190000        +4.23294000
H        +3.09446000        +1.36934000        +5.71061000
H        -2.19061000        -0.99569000        +1.96196000
H        -1.35975000        -2.24501000        +2.94037000
H        -4.01768000        +1.61819000        +5.17804000
H        -3.61033000        +1.49896000        +3.43638000
C        +2.37537000        -0.83071000        +3.65321000
H        +3.28398000        -0.82482000        +3.04767000
H        +2.57077000        -1.38863000        +4.57212000
H        +1.59422000        -1.34700000        +3.09261000
H        +1.05357000        +3.38139000        +2.74069000
$end

$rem
JOBTYPE                   SP
METHOD                    B3LYP
DFT_D                     d3_op
BASIS                     6-311++G(d,p)
SYMMETRY                  False
THRESH                    12
SCF_CONVERGENCE           8
MAX_SUB_FILE_NUM          128
MEM_STATIC                400
MEM_TOTAL                 4000
$end
--------------------------------------------------------------

             Standard Nuclear Orientation (Angstroms)
    I     Atom           X                Y                Z
 ----------------------------------------------------------------
    1      C       1.0579724691    -0.2509252451     1.1676731223
    2      C       1.2969387478    -0.6308619557    -0.3352355352
    3      C       1.5625802922     1.1093114737     1.6119346203
    4      C       2.0977867953     0.3390145856    -1.1789565452
    5      O       1.0187250421     2.0821199197     0.8469962876
    6      O       2.2874807652     1.3233328911     2.5492159871
    7      O       3.1998423677     0.7829544966    -0.5476362012
    8      O       1.8103417148     0.6395609622    -2.3131583285
    9      C       4.0357261553     1.6939516245    -1.2811524155
   10      C       1.4385129287     3.4269057441     1.1380764658
   11      C       1.7386576874    -1.4309329745     1.9015808929
   12      C       0.8224367587    -2.6672947050     1.8174004629
   13      C       0.9901781454    -3.0513642654     0.3187116166
   14      C       2.0395771493    -2.0108175811    -0.1639761498
   15      O       2.8155422922    -1.7828966690     1.0231839878
   16      H      -0.0188041016    -0.2345563312     1.3588670724
   17      H       0.3559214251    -0.7620918417    -0.8663747311
   18      H       3.4644789056     2.5720783230    -1.5866429764
   19      H       1.1433534502     3.7107878332     2.1493779825
   20      H       1.1953358924    -3.4561808512     2.4722321179
   21      H      -0.2097956301    -2.4523511339     2.1010427877
   22      H       1.3950378859    -4.0586683107     0.2073150304
   23      H       0.0606554422    -2.9990398109    -0.2517543017
   24      H       4.8336466566     1.9686996308    -0.5950156239
   25      H       4.4435197273     1.2073255833    -2.1687136473
   26      H       0.9381742918     4.0529079204     0.4025287945
   27      H       2.5224523298     3.5127251993     1.0442414227
   28      C       2.9186575346    -2.4533350679    -1.3120540535
   29      H       3.3938873118    -3.4055666652    -1.0677240311
   30      H       2.3249480720    -2.5813379710    -2.2203358409
   31      H       3.7029035458    -1.7206346107    -1.5098703333
   32      H       1.9890357574    -1.1788271983     2.9108676178
   33      C      -2.8860333735     0.0281279947     0.5618883667
   34      C      -2.6470670948    -0.3518087159    -0.9410202908
   35      C      -2.3814255504     1.3883647135     1.0061498647
   36      C      -1.8462190473     0.6180678254    -1.7847413008
   37      O      -2.9252808005     2.3611731596     0.2412115320
   38      O      -1.6565250775     1.6023861309     1.9434312315
   39      O      -0.7441634749     1.0620077364    -1.1534209568
   40      O      -2.1336641279     0.9186142021    -2.9189430841
   41      C       0.0917203127     1.9730048643    -1.8869371711
   42      C      -2.5054929139     3.7059589839     0.5322917101
   43      C      -2.2053481552    -1.1518797346     1.2957961373
   44      C      -3.1215690839    -2.3882414651     1.2116157073
   45      C      -2.9538276973    -2.7723110255    -0.2870731390
   46      C      -1.9044286934    -1.7317643413    -0.7697609054
   47      O      -1.1284635504    -1.5038434291     0.4173992322
   48      H      -3.9628099442     0.0444969086     0.7530823168
   49      H      -3.5880844175    -0.4830386019    -1.4721594867
   50      H      -0.4795269370     2.8511315629    -2.1924277320
   51      H      -2.8006523924     3.9898410731     1.5435932269
   52      H      -2.7486699502    -3.1771276113     1.8664473623
   53      H      -4.1538014727    -2.1732978940     1.4952580321
   54      H      -2.5489679567    -3.7796150709    -0.3984697252
   55      H      -3.8833504005    -2.7199865710    -0.8575390573
   56      H       0.8896408139     2.2477528706    -1.2008003795
   57      H       0.4995138847     1.4863788232    -2.7744984029
   58      H      -3.0058315508     4.3319611603    -0.2032559611
   59      H      -1.4215535129     3.7917784391     0.4384566671
   60      C      -1.0253483080    -2.1742818281    -1.9178388091
   61      H      -0.5501185308    -3.1265134254    -1.6735087867
   62      H      -1.6190577706    -2.3022847312    -2.8261205965
   63      H      -0.2411022968    -1.4415813709    -2.1156550890
   64      H      -1.9549700852    -0.8997739584     2.3050828622
 ----------------------------------------------------------------

   15   -1610.3126998223      5.58E-09 Convergence criterion met
 Total energy in the final basis set = -1610.31269982

                    Orbital Energies (a.u.)
 --------------------------------------------------------------

 Alpha MOs
 -- Occupied --
-19.180 -19.170 -19.168 -19.162 -19.146 -19.127 -19.115 -19.114
-19.114 -19.103 -10.317 -10.305 -10.299 -10.292 -10.260 -10.245
-10.235 -10.230 -10.229 -10.227 -10.216 -10.212 -10.210 -10.194
-10.192 -10.192 -10.180 -10.180 -10.177 -10.162 -10.158 -10.156
 -1.124  -1.119  -1.111  -1.103  -1.087  -1.046  -1.038  -1.035
 -1.023  -1.016  -0.845  -0.817  -0.811  -0.795  -0.780  -0.768
 -0.749  -0.739  -0.728  -0.720  -0.710  -0.685  -0.664  -0.643
 -0.619  -0.607  -0.594  -0.580  -0.574  -0.570  -0.564  -0.554
 -0.543  -0.533  -0.529  -0.518  -0.515  -0.507  -0.502  -0.498
 -0.494  -0.485  -0.482  -0.480  -0.475  -0.471  -0.467  -0.466
 -0.463  -0.456  -0.447  -0.445  -0.430  -0.430  -0.428  -0.422
 -0.415  -0.411  -0.407  -0.404  -0.401  -0.394  -0.391  -0.380
 -0.379  -0.377  -0.373  -0.369  -0.368  -0.366  -0.361  -0.358
 -0.349  -0.345  -0.342  -0.339  -0.337  -0.328  -0.325  -0.320
 -0.316  -0.309  -0.302  -0.297  -0.292  -0.289  -0.280  -0.276
 -0.269  -0.253

          Ground-State Mulliken Net Atomic Charges

     Atom                 Charge (a.u.)
  ----------------------------------------
      1 C                     0.379063
      2 C                     0.327977
      3 C                    -0.569069
      4 C                    -0.334940
      5 O                     0.004715
      6 O                    -0.137324
      7 O                     0.174881
      8 O                     0.072957
      9 C                    -0.145716
     10 C                    -0.297020
     11 C                    -0.640398
     12 C                    -0.209167
     13 C                     0.078434
     14 C                    -0.950449
     15 O                     0.068910
     16 H                     0.309666
     17 H                    -0.460586
     18 H                     0.196528
     19 H                     0.216022
     20 H                     0.199579
     21 H                     0.136763
     22 H                     0.191061
     23 H                     0.034076
     24 H                     0.185369
     25 H                     0.173637
     26 H                     0.123191
     27 H                     0.201111
     28 C                    -0.297211
     29 H                     0.201056
     30 H                     0.147226
     31 H                     0.192869
     32 H                     0.271301
     33 C                    -0.050583
     34 C                     0.193417
     35 C                    -0.782715
     36 C                    -0.608866
     37 O                     0.107744
     38 O                    -0.073821
     39 O                     0.031238
     40 O                    -0.063554
     41 C                    -0.323953
     42 C                    -0.155002
     43 C                    -0.110169
     44 C                    -0.589794
     45 C                    -0.249059
     46 C                    -0.251667
     47 O                     0.135669
     48 H                     0.255783
     49 H                     0.290911
     50 H                     0.205896
     51 H                     0.168177
     52 H                     0.179709
     53 H                     0.148401
     54 H                     0.179168
     55 H                     0.153049
     56 H                     0.078346
     57 H                     0.268872
     58 H                     0.174972
     59 H                     0.181103
     60 C                    -0.427021
     61 H                     0.250391
     62 H                     0.204110
     63 H                     0.329442
     64 H                     0.305296
  ----------------------------------------
  Sum of atomic charges =     0.000000

                    Cartesian Multipole Moments
 -----------------------------------------------------------------
    Charge (ESU x 10^10)
                 0.0000
    Dipole Moment (Debye)
         X      -3.5423      Y      -0.0602      Z      -0.3453
       Tot       3.5596
    Quadrupole Moments (Debye-Ang)
        XX    -185.3987     XY      11.5009     YY    -168.9776
        XZ     -18.8162     YZ       1.8942     ZZ    -211.5935

 Total job time:  8313.98s(wall), 8294.66s(cpu)
        *  Thank you very much for using Q-Chem.  Have a nice day.  *
