 Q-Chem 5.0, Q-Chem, Inc., Pleasanton, CA (2017)
 Q-Chem 5.0.1 for Intel X86 EM64T Linux

User input:
--------------------------------------------------------------
$molecule
0  1
C        +0.24357000        +2.22684000        +4.40728000
C        +0.64713000        +0.76843000        +4.82004000
C        -1.16113000        +2.41419000        +3.86510000
C        -0.35370000        -0.33447000        +4.54466000
O        -2.07085000        +1.97028000        +4.76099000
O        -1.45249000        +2.94135000        +2.82251000
O        -0.89277000        -0.24596000        +3.31513000
O        -0.60121000        -1.22681000        +5.32044000
C        -1.84047000        -1.26545000        +2.95573000
C        -3.44981000        +2.05688000        +4.36053000
C        +1.35095000        +2.58170000        +3.38642000
C        +2.65157000        +2.89896000        +4.14988000
C        +3.06423000        +1.47547000        +4.62433000
C        +1.96510000        +0.58897000        +3.97395000
O        +1.64927000        +1.31859000        +2.77757000
H        +0.29898000        +2.86982000        +5.29033000
H        +0.86010000        +0.70154000        +5.88541000
H        -2.66662000        -1.28481000        +3.66837000
H        -3.73989000        +3.09718000        +4.20539000
H        +3.39321000        +3.31978000        +3.46938000
H        +2.50323000        +3.60684000        +4.96784000
H        +4.04269000        +1.19190000        +4.23294000
H        +3.09446000        +1.36934000        +5.71061000
H        -2.19061000        -0.99569000        +1.96196000
H        -1.35975000        -2.24501000        +2.94037000
H        -4.01768000        +1.61819000        +5.17804000
H        -3.61033000        +1.49896000        +3.43638000
C        +0.92115000        +3.57273000        +2.32703000
C        +2.37537000        -0.83071000        +3.65321000
H        +3.28398000        -0.82482000        +3.04767000
H        +2.57077000        -1.38863000        +4.57212000
H        +1.59422000        -1.34700000        +3.09261000
H        +1.73932000        +3.76382000        +1.66447000
H        +0.62006000        +4.48674000        +2.79483000
H        +0.10012000        +3.16849000        +1.77259000
@C        +0.22270000        +1.04488000        +0.58595000
@C        +0.62626000        -0.41353000        +0.99871000
@C        -1.18200000        +1.23223000        +0.04377000
@C        -0.37457000        -1.51643000        +0.72333000
@O        -2.09172000        +0.78832000        +0.93966000
@O        -1.47336000        +1.75939000        -0.99882000
@O        -0.91364000        -1.42792000        -0.50620000
@O        -0.62208000        -2.40877000        +1.49911000
@C        -1.86134000        -2.44741000        -0.86560000
@C        -3.47068000        +0.87492000        +0.53920000
@C        +1.33008000        +1.39974000        -0.43491000
@C        +2.63070000        +1.71700000        +0.32855000
@C        +3.04336000        +0.29351000        +0.80300000
@C        +1.94423000        -0.59299000        +0.15262000
@O        +1.62840000        +0.13663000        -1.04376000
@H        +0.27811000        +1.68786000        +1.46900000
@H        +0.83923000        -0.48042000        +2.06408000
@H        -2.68749000        -2.46677000        -0.15296000
@H        -3.76076000        +1.91522000        +0.38406000
@H        +3.37234000        +2.13782000        -0.35195000
@H        +2.48236000        +2.42488000        +1.14651000
@H        +4.02182000        +0.00994000        +0.41161000
@H        +3.07359000        +0.18738000        +1.88928000
@H        -2.21148000        -2.17765000        -1.85937000
@H        -1.38062000        -3.42697000        -0.88096000
@H        -4.03855000        +0.43623000        +1.35671000
@H        -3.63120000        +0.31700000        -0.38495000
@C        +0.90028000        +2.39077000        -1.49430000
@C        +2.35450000        -2.01267000        -0.16812000
@H        +3.26311000        -2.00678000        -0.77366000
@H        +2.54990000        -2.57059000        +0.75079000
@H        +1.57335000        -2.52896000        -0.72872000
@H        +1.71845000        +2.58186000        -2.15686000
@H        +0.59919000        +3.30478000        -1.02650000
@H        +0.07925000        +1.98653000        -2.04874000
$end

$rem
JOBTYPE                   SP
METHOD                    B3LYP
DFT_D                     d3_op
BASIS                     6-311++G(d,p)
SYMMETRY                  False
THRESH                    12
SCF_CONVERGENCE           8
MAX_SUB_FILE_NUM          128
MEM_STATIC                400
MEM_TOTAL                 4000
$end
--------------------------------------------------------------

             Standard Nuclear Orientation (Angstroms)
    I     Atom           X                Y                Z
 ----------------------------------------------------------------
    1      C       0.2435700000     2.2268400000     4.4072800000
    2      C       0.6471300000     0.7684300000     4.8200400000
    3      C      -1.1611300000     2.4141900000     3.8651000000
    4      C      -0.3537000000    -0.3344700000     4.5446600000
    5      O      -2.0708500000     1.9702800000     4.7609900000
    6      O      -1.4524900000     2.9413500000     2.8225100000
    7      O      -0.8927700000    -0.2459600000     3.3151300000
    8      O      -0.6012100000    -1.2268100000     5.3204400000
    9      C      -1.8404700000    -1.2654500000     2.9557300000
   10      C      -3.4498100000     2.0568800000     4.3605300000
   11      C       1.3509500000     2.5817000000     3.3864200000
   12      C       2.6515700000     2.8989600000     4.1498800000
   13      C       3.0642300000     1.4754700000     4.6243300000
   14      C       1.9651000000     0.5889700000     3.9739500000
   15      O       1.6492700000     1.3185900000     2.7775700000
   16      H       0.2989800000     2.8698200000     5.2903300000
   17      H       0.8601000000     0.7015400000     5.8854100000
   18      H      -2.6666200000    -1.2848100000     3.6683700000
   19      H      -3.7398900000     3.0971800000     4.2053900000
   20      H       3.3932100000     3.3197800000     3.4693800000
   21      H       2.5032300000     3.6068400000     4.9678400000
   22      H       4.0426900000     1.1919000000     4.2329400000
   23      H       3.0944600000     1.3693400000     5.7106100000
   24      H      -2.1906100000    -0.9956900000     1.9619600000
   25      H      -1.3597500000    -2.2450100000     2.9403700000
   26      H      -4.0176800000     1.6181900000     5.1780400000
   27      H      -3.6103300000     1.4989600000     3.4363800000
   28      C       0.9211500000     3.5727300000     2.3270300000
   29      C       2.3753700000    -0.8307100000     3.6532100000
   30      H       3.2839800000    -0.8248200000     3.0476700000
   31      H       2.5707700000    -1.3886300000     4.5721200000
   32      H       1.5942200000    -1.3470000000     3.0926100000
   33      H       1.7393200000     3.7638200000     1.6644700000
   34      H       0.6200600000     4.4867400000     2.7948300000
   35      H       0.1001200000     3.1684900000     1.7725900000
   36      GH      0.2227000000     1.0448800000     0.5859500000
   37      GH      0.6262600000    -0.4135300000     0.9987100000
   38      GH     -1.1820000000     1.2322300000     0.0437700000
   39      GH     -0.3745700000    -1.5164300000     0.7233300000
   40      GH     -2.0917200000     0.7883200000     0.9396600000
   41      GH     -1.4733600000     1.7593900000    -0.9988200000
   42      GH     -0.9136400000    -1.4279200000    -0.5062000000
   43      GH     -0.6220800000    -2.4087700000     1.4991100000
   44      GH     -1.8613400000    -2.4474100000    -0.8656000000
   45      GH     -3.4706800000     0.8749200000     0.5392000000
   46      GH      1.3300800000     1.3997400000    -0.4349100000
   47      GH      2.6307000000     1.7170000000     0.3285500000
   48      GH      3.0433600000     0.2935100000     0.8030000000
   49      GH      1.9442300000    -0.5929900000     0.1526200000
   50      GH      1.6284000000     0.1366300000    -1.0437600000
   51      GH      0.2781100000     1.6878600000     1.4690000000
   52      GH      0.8392300000    -0.4804200000     2.0640800000
   53      GH     -2.6874900000    -2.4667700000    -0.1529600000
   54      GH     -3.7607600000     1.9152200000     0.3840600000
   55      GH      3.3723400000     2.1378200000    -0.3519500000
   56      GH      2.4823600000     2.4248800000     1.1465100000
   57      GH      4.0218200000     0.0099400000     0.4116100000
   58      GH      3.0735900000     0.1873800000     1.8892800000
   59      GH     -2.2114800000    -2.1776500000    -1.8593700000
   60      GH     -1.3806200000    -3.4269700000    -0.8809600000
   61      GH     -4.0385500000     0.4362300000     1.3567100000
   62      GH     -3.6312000000     0.3170000000    -0.3849500000
   63      GH      0.9002800000     2.3907700000    -1.4943000000
   64      GH      2.3545000000    -2.0126700000    -0.1681200000
   65      GH      3.2631100000    -2.0067800000    -0.7736600000
   66      GH      2.5499000000    -2.5705900000     0.7507900000
   67      GH      1.5733500000    -2.5289600000    -0.7287200000
   68      GH      1.7184500000     2.5818600000    -2.1568600000
   69      GH      0.5991900000     3.3047800000    -1.0265000000
   70      GH      0.0792500000     1.9865300000    -2.0487400000
 ----------------------------------------------------------------

   14    -844.5198751564      5.84E-09 Convergence criterion met
 Total energy in the final basis set = -844.51987516

                    Orbital Energies (a.u.)
 --------------------------------------------------------------

 Alpha MOs
 -- Occupied --
-19.176 -19.174 -19.125 -19.117 -19.116 -10.311 -10.306 -10.243
-10.232 -10.231 -10.231 -10.204 -10.203 -10.177 -10.175 -10.169
-10.136  -1.121  -1.113  -1.061  -1.034  -1.027  -0.832  -0.804
 -0.783  -0.748  -0.730  -0.720  -0.674  -0.644  -0.603  -0.579
 -0.570  -0.561  -0.525  -0.514  -0.507  -0.493  -0.489  -0.479
 -0.476  -0.471  -0.459  -0.442  -0.435  -0.433  -0.414  -0.411
 -0.403  -0.399  -0.395  -0.374  -0.372  -0.364  -0.358  -0.355
 -0.349  -0.345  -0.333  -0.328  -0.321  -0.313  -0.284  -0.272
 -0.270

          Ground-State Mulliken Net Atomic Charges

     Atom                 Charge (a.u.)
  ----------------------------------------
      1 C                    -0.160547
      2 C                     0.212137
      3 C                    -0.822056
      4 C                    -0.706560
      5 O                     0.130527
      6 O                    -0.062341
      7 O                    -0.127446
      8 O                    -0.069849
      9 C                    -0.352725
     10 C                    -0.151054
     11 C                     0.027544
     12 C                    -0.175694
     13 C                    -0.124345
     14 C                    -0.173202
     15 O                     0.163933
     16 H                     0.243184
     17 H                     0.278812
     18 H                     0.247935
     19 H                     0.168443
     20 H                     0.181117
     21 H                     0.152302
     22 H                     0.176919
     23 H                     0.151849
     24 H                     0.127866
     25 H                     0.225929
     26 H                     0.176259
     27 H                     0.179729
     28 C                    -0.715848
     29 C                    -0.416841
     30 H                     0.221848
     31 H                     0.204036
     32 H                     0.191645
     33 H                     0.132570
     34 H                     0.171888
     35 H                     0.181667
     36 GH                    0.371327
     37 GH                    0.238818
     38 GH                    0.000151
     39 GH                    0.022093
     40 GH                   -0.052475
     41 GH                    0.003988
     42 GH                   -0.010815
     43 GH                   -0.056831
     44 GH                    0.000793
     45 GH                    0.022800
     46 GH                   -0.094504
     47 GH                    0.078266
     48 GH                   -0.103325
     49 GH                   -0.167820
     50 GH                   -0.003776
     51 GH                   -0.002663
     52 GH                    0.004781
     53 GH                    0.001860
     54 GH                    0.004090
     55 GH                   -0.004554
     56 GH                   -0.025970
     57 GH                    0.001458
     58 GH                   -0.117323
     59 GH                   -0.000343
     60 GH                    0.000279
     61 GH                    0.005054
     62 GH                   -0.000646
     63 GH                    0.041401
     64 GH                   -0.041170
     65 GH                   -0.000404
     66 GH                   -0.003445
     67 GH                   -0.000201
     68 GH                    0.000364
     69 GH                   -0.000714
     70 GH                   -0.000178
  ----------------------------------------
  Sum of atomic charges =     0.000000

                    Cartesian Multipole Moments
 -----------------------------------------------------------------
    Charge (ESU x 10^10)
                 0.0000
    Dipole Moment (Debye)
         X      -0.3261      Y       0.5079      Z       0.8831
       Tot       1.0697
    Quadrupole Moments (Debye-Ang)
        XX     -89.1080     XY       1.4111     YY    -102.4407
        XZ       2.2349     YZ      13.8002     ZZ    -101.5292

 Total job time:  4354.00s(wall), 8671.52s(cpu)
        *  Thank you very much for using Q-Chem.  Have a nice day.  *
