 Q-Chem 5.0, Q-Chem, Inc., Pleasanton, CA (2017)
 Q-Chem 5.0.1 for Intel X86 EM64T Linux

User input:
--------------------------------------------------------------
$molecule
0  1
--
0  1
C        +0.22270000        +1.04488000        +0.58595000
C        +0.62626000        -0.41353000        +0.99871000
C        -1.18200000        +1.23223000        +0.04377000
C        -0.37457000        -1.51643000        +0.72333000
O        -2.09172000        +0.78832000        +0.93966000
O        -1.47336000        +1.75939000        -0.99882000
O        -0.91364000        -1.42792000        -0.50620000
O        -0.62208000        -2.40877000        +1.49911000
C        -1.86134000        -2.44741000        -0.86560000
C        -3.47068000        +0.87492000        +0.53920000
C        +1.33008000        +1.39974000        -0.43491000
C        +2.63070000        +1.71700000        +0.32855000
C        +3.04336000        +0.29351000        +0.80300000
C        +1.94423000        -0.59299000        +0.15262000
O        +1.62840000        +0.13663000        -1.04376000
H        +0.27811000        +1.68786000        +1.46900000
H        +0.83923000        -0.48042000        +2.06408000
H        -2.68749000        -2.46677000        -0.15296000
H        -3.76076000        +1.91522000        +0.38406000
H        +3.37234000        +2.13782000        -0.35195000
H        +2.48236000        +2.42488000        +1.14651000
H        +4.02182000        +0.00994000        +0.41161000
H        +3.07359000        +0.18738000        +1.88928000
H        -2.21148000        -2.17765000        -1.85937000
H        -1.38062000        -3.42697000        -0.88096000
H        -4.03855000        +0.43623000        +1.35671000
H        -3.63120000        +0.31700000        -0.38495000
C        +0.90028000        +2.39077000        -1.49430000
C        +2.35450000        -2.01267000        -0.16812000
H        +3.26311000        -2.00678000        -0.77366000
H        +2.54990000        -2.57059000        +0.75079000
H        +1.57335000        -2.52896000        -0.72872000
H        +1.71845000        +2.58186000        -2.15686000
H        +0.59919000        +3.30478000        -1.02650000
H        +0.07925000        +1.98653000        -2.04874000
--
0  1
C        +0.24357000        +2.22684000        +4.40728000
C        +0.64713000        +0.76843000        +4.82004000
C        -1.16113000        +2.41419000        +3.86510000
C        -0.35370000        -0.33447000        +4.54466000
O        -2.07085000        +1.97028000        +4.76099000
O        -1.45249000        +2.94135000        +2.82251000
O        -0.89277000        -0.24596000        +3.31513000
O        -0.60121000        -1.22681000        +5.32044000
C        -1.84047000        -1.26545000        +2.95573000
C        -3.44981000        +2.05688000        +4.36053000
C        +1.35095000        +2.58170000        +3.38642000
C        +2.65157000        +2.89896000        +4.14988000
C        +3.06423000        +1.47547000        +4.62433000
C        +1.96510000        +0.58897000        +3.97395000
O        +1.64927000        +1.31859000        +2.77757000
H        +0.29898000        +2.86982000        +5.29033000
H        +0.86010000        +0.70154000        +5.88541000
H        -2.66662000        -1.28481000        +3.66837000
H        -3.73989000        +3.09718000        +4.20539000
H        +3.39321000        +3.31978000        +3.46938000
H        +2.50323000        +3.60684000        +4.96784000
H        +4.04269000        +1.19190000        +4.23294000
H        +3.09446000        +1.36934000        +5.71061000
H        -2.19061000        -0.99569000        +1.96196000
H        -1.35975000        -2.24501000        +2.94037000
H        -4.01768000        +1.61819000        +5.17804000
H        -3.61033000        +1.49896000        +3.43638000
C        +0.92115000        +3.57273000        +2.32703000
C        +2.37537000        -0.83071000        +3.65321000
H        +3.28398000        -0.82482000        +3.04767000
H        +2.57077000        -1.38863000        +4.57212000
H        +1.59422000        -1.34700000        +3.09261000
H        +1.73932000        +3.76382000        +1.66447000
H        +0.62006000        +4.48674000        +2.79483000
H        +0.10012000        +3.16849000        +1.77259000
$end

$rem
JOBTYPE                   SP
METHOD                    B3LYP
DFT_D                     d3_op
BASIS                     6-311++G(d,p)
SYMMETRY                  False
THRESH                    12
SCF_CONVERGENCE           8
MAX_SUB_FILE_NUM          128
MEM_STATIC                400
MEM_TOTAL                 4000
$end
--------------------------------------------------------------

             Standard Nuclear Orientation (Angstroms)
    I     Atom           X                Y                Z
 ----------------------------------------------------------------
    1      C      -1.0865368442     0.2794159567     0.8935805175
    2      C      -1.2677071317     0.4372888597    -0.6564016413
    3      C      -1.5562926793    -1.0289636823     1.5016211745
    4      C      -1.9866245854    -0.6760258585    -1.3895941646
    5      O      -0.9368954633    -2.0711114963     0.9036742862
    6      O      -2.3164201297    -1.1458318213     2.4280823559
    7      O      -3.0989789892    -1.0802008244    -0.7496841841
    8      O      -1.6326001198    -1.1159207245    -2.4575481284
    9      C      -3.8605948452    -2.1217458519    -1.3835522727
   10      C      -1.3152121216    -3.3812929142     1.3616039875
   11      C      -1.8494193550     1.5158576667     1.4261153953
   12      C      -0.9812706725     2.7705774569     1.2090127086
   13      C      -1.0917312337     2.9364688845    -0.3343580689
   14      C      -2.0733091693     1.7912239309    -0.7110302123
   15      O      -2.8959338792     1.6925845442     0.4624168021
   16      H      -0.0205091062     0.3401578001     1.1305744864
   17      H      -0.3081940231     0.5382894677    -1.1603631492
   18      H      -3.2399625373    -3.0057134021    -1.5390235248
   19      H      -1.0580638252    -3.5091315696     2.4142059768
   20      H      -1.4172374112     3.6236460795     1.7309385079
   21      H       0.0439062581     2.6454808531     1.5633014500
   22      H      -1.5313781784     3.8987036515    -0.6023074405
   23      H      -0.1343155396     2.8499143782    -0.8520888622
   24      H      -4.6789630297    -2.3366843193    -0.7001620035
   25      H      -4.2443945530    -1.7815882060    -2.3468050961
   26      H      -0.7547809641    -4.0783224488     0.7424799299
   27      H      -2.3889444235    -3.5300779744     1.2348894700
   28      C      -2.4470483333     1.3281164922     2.8033475938
   29      C      -2.9130412667     2.0297367030    -1.9457968239
   30      H      -3.4379023670     2.9831210380    -1.8571139561
   31      H      -2.2817458892     2.0593220804    -2.8371117662
   32      H      -3.6563200748     1.2407300155    -2.0723989842
   33      H      -2.9543957841     2.2232404535     3.0970395222
   34      H      -1.6674975095     1.1136589258     3.5042147520
   35      H      -3.1418928051     0.5146844730     2.7827693965
   36      C       2.8902623841     0.1054231170     0.5001057956
   37      C       2.7090920966     0.2632960200    -1.0498763632
   38      C       2.4205065490    -1.2029565220     1.1081464526
   39      C       1.9901746429    -0.8500186982    -1.7830688865
   40      O       3.0399037650    -2.2451043360     0.5101995643
   41      O       1.6603790986    -1.3198246610     2.0346076340
   42      O       0.8778202391    -1.2541936641    -1.1431589060
   43      O       2.3441991085    -1.2899135642    -2.8510228503
   44      C       0.1162043831    -2.2957386916    -1.7770269946
   45      C       2.6615871067    -3.5552857539     0.9681292656
   46      C       2.1273798733     1.3418648270     1.0326406733
   47      C       2.9955285559     2.5965846172     0.8155379867
   48      C       2.8850679946     2.7624760448    -0.7278327908
   49      C       1.9034900590     1.6172310912    -1.1045049342
   50      O       1.0808653491     1.5185917045     0.0689420802
   51      H       3.9562901221     0.1661649604     0.7370997645
   52      H       3.6686052052     0.3642966280    -1.5538378711
   53      H       0.7368366910    -3.1797062418    -1.9324982467
   54      H       2.9187354031    -3.6831244093     2.0207312549
   55      H       2.5595618171     3.4496532398     1.3374637860
   56      H       4.0207054865     2.4714880134     1.1698267281
   57      H       2.4454210499     3.7247108118    -0.9957821624
   58      H       3.8424836887     2.6759215385    -1.2455635841
   59      H      -0.7021638013    -2.5106771590    -1.0936367254
   60      H      -0.2675953247    -1.9555810457    -2.7402798180
   61      H       3.2220182642    -4.2523152885     0.3490052080
   62      H       1.5878548048    -3.7040708140     0.8414147481
   63      C       1.5297508950     1.1541236526     2.4098728719
   64      C       1.0637579617     1.8557438633    -2.3392715458
   65      H       0.5388968614     2.8091281983    -2.2505886780
   66      H       1.6950533391     1.8853292408    -3.2305864881
   67      H       0.3204791535     1.0667371758    -2.4658737061
   68      H       1.0224034442     2.0492476138     2.7035648003
   69      H       2.3093017188     0.9396660861     3.1107400301
   70      H       0.8349064233     0.3406916333     2.3892946746
 ----------------------------------------------------------------

   15   -1688.9400216514      5.71E-09 Convergence criterion met
 Total energy in the final basis set = -1688.94002165

                    Orbital Energies (a.u.)
 --------------------------------------------------------------

 Alpha MOs
 -- Occupied --
-19.181 -19.170 -19.168 -19.164 -19.140 -19.125 -19.114 -19.113
-19.108 -19.103 -10.319 -10.304 -10.299 -10.296 -10.256 -10.248
-10.236 -10.230 -10.229 -10.227 -10.214 -10.213 -10.211 -10.194
-10.190 -10.188 -10.179 -10.177 -10.175 -10.160 -10.153 -10.152
-10.150 -10.123  -1.126  -1.119  -1.110  -1.106  -1.085  -1.044
 -1.042  -1.035  -1.023  -1.021  -0.845  -0.823  -0.815  -0.795
 -0.789  -0.768  -0.751  -0.742  -0.740  -0.726  -0.721  -0.709
 -0.686  -0.664  -0.655  -0.630  -0.613  -0.596  -0.593  -0.575
 -0.575  -0.569  -0.562  -0.551  -0.538  -0.530  -0.524  -0.512
 -0.508  -0.506  -0.504  -0.498  -0.489  -0.486  -0.483  -0.479
 -0.476  -0.469  -0.467  -0.467  -0.464  -0.453  -0.450  -0.447
 -0.444  -0.431  -0.430  -0.427  -0.417  -0.416  -0.414  -0.408
 -0.404  -0.400  -0.397  -0.389  -0.386  -0.384  -0.378  -0.374
 -0.370  -0.369  -0.367  -0.364  -0.362  -0.361  -0.354  -0.349
 -0.348  -0.341  -0.334  -0.331  -0.328  -0.326  -0.323  -0.319
 -0.312  -0.309  -0.304  -0.290  -0.288  -0.284  -0.277  -0.275
 -0.256  -0.251

          Ground-State Mulliken Net Atomic Charges

     Atom                 Charge (a.u.)
  ----------------------------------------
      1 C                     0.645079
      2 C                    -0.230248
      3 C                    -0.333670
      4 C                    -0.372379
      5 O                     0.034359
      6 O                    -0.068270
      7 O                     0.162799
      8 O                     0.091828
      9 C                    -0.153406
     10 C                    -0.233279
     11 C                    -0.560096
     12 C                     0.185872
     13 C                    -0.138766
     14 C                    -1.339658
     15 O                     0.161633
     16 H                     0.001936
     17 H                    -0.099425
     18 H                     0.197271
     19 H                     0.213778
     20 H                     0.198988
     21 H                     0.074790
     22 H                     0.199898
     23 H                    -0.060852
     24 H                     0.178506
     25 H                     0.176504
     26 H                     0.139731
     27 H                     0.204075
     28 C                    -0.185593
     29 C                    -0.146605
     30 H                     0.197585
     31 H                     0.146158
     32 H                     0.188097
     33 H                     0.147919
     34 H                     0.132538
     35 H                     0.203192
     36 C                    -0.106397
     37 C                     0.242671
     38 C                    -0.904555
     39 C                    -0.676014
     40 O                     0.133664
     41 O                    -0.068441
     42 O                    -0.007008
     43 O                    -0.057830
     44 C                    -0.314236
     45 C                    -0.135903
     46 C                     0.102887
     47 C                    -0.182931
     48 C                    -0.145254
     49 C                    -0.183954
     50 O                     0.085771
     51 H                     0.248856
     52 H                     0.286399
     53 H                     0.209971
     54 H                     0.168030
     55 H                     0.189149
     56 H                     0.159029
     57 H                     0.183324
     58 H                     0.158484
     59 H                     0.054565
     60 H                     0.261536
     61 H                     0.178350
     62 H                     0.158706
     63 C                    -0.871523
     64 C                    -0.525520
     65 H                     0.268301
     66 H                     0.200714
     67 H                     0.305123
     68 H                     0.182570
     69 H                     0.167027
     70 H                     0.274152
  ----------------------------------------
  Sum of atomic charges =     0.000000

                    Cartesian Multipole Moments
 -----------------------------------------------------------------
    Charge (ESU x 10^10)
                 0.0000
    Dipole Moment (Debye)
         X       3.3441      Y      -0.4533      Z       0.1849
       Tot       3.3797
    Quadrupole Moments (Debye-Ang)
        XX    -200.8230     XY      13.6261     YY    -183.8663
        XZ      17.2309     YZ      -7.5904     ZZ    -221.9807

 Total job time:  4366.81s(wall), 8697.21s(cpu)
        *  Thank you very much for using Q-Chem.  Have a nice day.  *
