 Q-Chem 5.0, Q-Chem, Inc., Pleasanton, CA (2017)
 Q-Chem 5.0.1 for Intel X86 EM64T Linux

User input:
--------------------------------------------------------------
$molecule
0  1
C        -0.54444000        -0.68370000        -0.06689000
C        -0.55709000        +0.71878000        +0.05493000
C        +0.74969000        -1.43776000        -0.09374000
C        +0.72843000        +1.48436000        +0.06598000
O        +1.53645000        -1.09176000        +0.94813000
O        +1.04702000        -2.28405000        -0.90088000
O        +1.53784000        +1.08301000        -0.93877000
O        +1.01035000        +2.37097000        +0.83478000
C        +2.83449000        +1.70121000        -0.99358000
C        +2.82316000        -1.73208000        +1.00475000
C        -1.74320000        -1.41616000        -0.12552000
C        -2.93952000        -0.70056000        -0.05285000
C        -2.95313000        +0.68255000        +0.06934000
C        -1.77161000        +1.42404000        +0.12810000
H        +2.73835000        +2.77989000        -1.12464000
H        +2.70778000        -2.81319000        +1.09555000
H        -3.90354000        +1.20325000        +0.11710000
H        +3.38998000        +1.50093000        -0.07544000
H        +3.33184000        +1.25269000        -1.85067000
H        +3.31095000        -1.32281000        +1.88650000
H        +3.39889000        -1.50934000        +0.10459000
H        -3.87892000        -1.24211000        -0.08988000
C        -1.83960000        +2.92746000        +0.24839000
H        -1.24214000        +3.42352000        -0.52065000
H        -1.45503000        +3.26427000        +1.21284000
H        -2.87211000        +3.26623000        +0.14638000
H        -1.73878000        -2.44393000        -0.21875000
@C        -0.51691000        -1.03247000        +3.91778000
@C        -0.52956000        +0.37001000        +4.03960000
@C        +0.77722000        -1.78653000        +3.89093000
@C        +0.75596000        +1.13559000        +4.05065000
@O        +1.56398000        -1.44053000        +4.93280000
@O        +1.07455000        -2.63282000        +3.08379000
@O        +1.56537000        +0.73424000        +3.04590000
@O        +1.03788000        +2.02220000        +4.81945000
@C        +2.86202000        +1.35244000        +2.99109000
@C        +2.85069000        -2.08085000        +4.98942000
@C        -1.71567000        -1.76493000        +3.85915000
@C        -2.91199000        -1.04933000        +3.93182000
@C        -2.92560000        +0.33378000        +4.05401000
@C        -1.74408000        +1.07527000        +4.11277000
@H        +2.76588000        +2.43112000        +2.86003000
@H        +2.73531000        -3.16196000        +5.08022000
@H        -3.87601000        +0.85448000        +4.10177000
@H        +3.41751000        +1.15216000        +3.90923000
@H        +3.35937000        +0.90392000        +2.13400000
@H        +3.33848000        -1.67158000        +5.87117000
@H        +3.42642000        -1.85811000        +4.08926000
@H        -3.85139000        -1.59088000        +3.89479000
@C        -1.81207000        +2.57869000        +4.23306000
@H        -1.21461000        +3.07475000        +3.46402000
@H        -1.42750000        +2.91550000        +5.19751000
@H        -2.84458000        +2.91746000        +4.13105000
@H        -1.71125000        -2.79270000        +3.76592000
$end

$rem
JOBTYPE                   SP
METHOD                    B3LYP
DFT_D                     d3_op
BASIS                     6-311++G(d,p)
SYMMETRY                  False
THRESH                    12
SCF_CONVERGENCE           8
MAX_SUB_FILE_NUM          128
MEM_STATIC                400
MEM_TOTAL                 4000
$end
--------------------------------------------------------------

             Standard Nuclear Orientation (Angstroms)
    I     Atom           X                Y                Z
 ----------------------------------------------------------------
    1      C      -0.5444400000    -0.6837000000    -0.0668900000
    2      C      -0.5570900000     0.7187800000     0.0549300000
    3      C       0.7496900000    -1.4377600000    -0.0937400000
    4      C       0.7284300000     1.4843600000     0.0659800000
    5      O       1.5364500000    -1.0917600000     0.9481300000
    6      O       1.0470200000    -2.2840500000    -0.9008800000
    7      O       1.5378400000     1.0830100000    -0.9387700000
    8      O       1.0103500000     2.3709700000     0.8347800000
    9      C       2.8344900000     1.7012100000    -0.9935800000
   10      C       2.8231600000    -1.7320800000     1.0047500000
   11      C      -1.7432000000    -1.4161600000    -0.1255200000
   12      C      -2.9395200000    -0.7005600000    -0.0528500000
   13      C      -2.9531300000     0.6825500000     0.0693400000
   14      C      -1.7716100000     1.4240400000     0.1281000000
   15      H       2.7383500000     2.7798900000    -1.1246400000
   16      H       2.7077800000    -2.8131900000     1.0955500000
   17      H      -3.9035400000     1.2032500000     0.1171000000
   18      H       3.3899800000     1.5009300000    -0.0754400000
   19      H       3.3318400000     1.2526900000    -1.8506700000
   20      H       3.3109500000    -1.3228100000     1.8865000000
   21      H       3.3988900000    -1.5093400000     0.1045900000
   22      H      -3.8789200000    -1.2421100000    -0.0898800000
   23      C      -1.8396000000     2.9274600000     0.2483900000
   24      H      -1.2421400000     3.4235200000    -0.5206500000
   25      H      -1.4550300000     3.2642700000     1.2128400000
   26      H      -2.8721100000     3.2662300000     0.1463800000
   27      H      -1.7387800000    -2.4439300000    -0.2187500000
   28      GH     -0.5169100000    -1.0324700000     3.9177800000
   29      GH     -0.5295600000     0.3700100000     4.0396000000
   30      GH      0.7772200000    -1.7865300000     3.8909300000
   31      GH      0.7559600000     1.1355900000     4.0506500000
   32      GH      1.5639800000    -1.4405300000     4.9328000000
   33      GH      1.0745500000    -2.6328200000     3.0837900000
   34      GH      1.5653700000     0.7342400000     3.0459000000
   35      GH      1.0378800000     2.0222000000     4.8194500000
   36      GH      2.8620200000     1.3524400000     2.9910900000
   37      GH      2.8506900000    -2.0808500000     4.9894200000
   38      GH     -1.7156700000    -1.7649300000     3.8591500000
   39      GH     -2.9119900000    -1.0493300000     3.9318200000
   40      GH     -2.9256000000     0.3337800000     4.0540100000
   41      GH     -1.7440800000     1.0752700000     4.1127700000
   42      GH      2.7658800000     2.4311200000     2.8600300000
   43      GH      2.7353100000    -3.1619600000     5.0802200000
   44      GH     -3.8760100000     0.8544800000     4.1017700000
   45      GH      3.4175100000     1.1521600000     3.9092300000
   46      GH      3.3593700000     0.9039200000     2.1340000000
   47      GH      3.3384800000    -1.6715800000     5.8711700000
   48      GH      3.4264200000    -1.8581100000     4.0892600000
   49      GH     -3.8513900000    -1.5908800000     3.8947900000
   50      GH     -1.8120700000     2.5786900000     4.2330600000
   51      GH     -1.2146100000     3.0747500000     3.4640200000
   52      GH     -1.4275000000     2.9155000000     5.1975100000
   53      GH     -2.8445800000     2.9174600000     4.1310500000
   54      GH     -1.7112500000    -2.7927000000     3.7659200000
 ----------------------------------------------------------------

   14    -727.5451557619      5.63E-09 Convergence criterion met
 Total energy in the final basis set = -727.54515576

                    Orbital Energies (a.u.)
 --------------------------------------------------------------

 Alpha MOs
 -- Occupied --
-19.178 -19.177 -19.121 -19.119 -10.313 -10.312 -10.233 -10.232
-10.211 -10.208 -10.207 -10.193 -10.191 -10.190 -10.174  -1.122
 -1.115  -1.033  -1.030  -0.886  -0.801  -0.795  -0.747  -0.731
 -0.704  -0.655  -0.627  -0.581  -0.575  -0.550  -0.521  -0.514
 -0.492  -0.490  -0.482  -0.478  -0.472  -0.447  -0.435  -0.431
 -0.429  -0.412  -0.406  -0.396  -0.384  -0.378  -0.370  -0.364
 -0.364  -0.322  -0.314  -0.296  -0.294  -0.269  -0.264

          Ground-State Mulliken Net Atomic Charges

     Atom                 Charge (a.u.)
  ----------------------------------------
      1 C                     0.560825
      2 C                     0.106866
      3 C                    -0.503422
      4 C                    -0.749721
      5 O                     0.095689
      6 O                    -0.147290
      7 O                     0.153759
      8 O                    -0.082959
      9 C                    -0.123384
     10 C                    -0.394095
     11 C                    -0.292290
     12 C                    -0.275905
     13 C                    -0.258788
     14 C                     0.276234
     15 H                     0.163106
     16 H                     0.214138
     17 H                     0.158249
     18 H                     0.198537
     19 H                     0.172976
     20 H                     0.115806
     21 H                     0.200370
     22 H                     0.186461
     23 C                    -0.500419
     24 H                     0.178670
     25 H                     0.216919
     26 H                     0.144534
     27 H                     0.202575
     28 GH                   -0.169076
     29 GH                   -0.006183
     30 GH                    0.073783
     31 GH                   -0.069340
     32 GH                   -0.002552
     33 GH                    0.004514
     34 GH                    0.030344
     35 GH                    0.002309
     36 GH                    0.016465
     37 GH                   -0.016774
     38 GH                    0.058211
     39 GH                    0.035774
     40 GH                   -0.035705
     41 GH                    0.019672
     42 GH                    0.007259
     43 GH                    0.001186
     44 GH                    0.001166
     45 GH                    0.002576
     46 GH                   -0.018657
     47 GH                   -0.001632
     48 GH                    0.006369
     49 GH                    0.002641
     50 GH                    0.035774
     51 GH                   -0.001464
     52 GH                   -0.002268
     53 GH                    0.003273
     54 GH                    0.004893
  ----------------------------------------
  Sum of atomic charges =     0.000000

                    Cartesian Multipole Moments
 -----------------------------------------------------------------
    Charge (ESU x 10^10)
                 0.0000
    Dipole Moment (Debye)
         X       0.0000      Y       0.4783      Z       0.2278
       Tot       0.5298
    Quadrupole Moments (Debye-Ang)
        XX     -68.8841     XY      -0.6748     YY     -89.7638
        XZ      -0.0919     YZ      -9.2949     ZZ     -93.1725

 Total job time:  1878.69s(wall), 3710.85s(cpu)
        *  Thank you very much for using Q-Chem.  Have a nice day.  *
