 Q-Chem 5.0, Q-Chem, Inc., Pleasanton, CA (2017)
 Q-Chem 5.0.1 for Intel X86 EM64T Linux

User input:
--------------------------------------------------------------
$molecule
0  1
--
0  1
C        -0.54444000        -0.68370000        -0.06689000
C        -0.55709000        +0.71878000        +0.05493000
C        +0.74969000        -1.43776000        -0.09374000
C        +0.72843000        +1.48436000        +0.06598000
O        +1.53645000        -1.09176000        +0.94813000
O        +1.04702000        -2.28405000        -0.90088000
O        +1.53784000        +1.08301000        -0.93877000
O        +1.01035000        +2.37097000        +0.83478000
C        +2.83449000        +1.70121000        -0.99358000
C        +2.82316000        -1.73208000        +1.00475000
C        -1.74320000        -1.41616000        -0.12552000
C        -2.93952000        -0.70056000        -0.05285000
C        -2.95313000        +0.68255000        +0.06934000
C        -1.77161000        +1.42404000        +0.12810000
H        +2.73835000        +2.77989000        -1.12464000
H        +2.70778000        -2.81319000        +1.09555000
H        -3.90354000        +1.20325000        +0.11710000
H        +3.38998000        +1.50093000        -0.07544000
H        +3.33184000        +1.25269000        -1.85067000
H        +3.31095000        -1.32281000        +1.88650000
H        +3.39889000        -1.50934000        +0.10459000
H        -3.87892000        -1.24211000        -0.08988000
C        -1.83960000        +2.92746000        +0.24839000
H        -1.24214000        +3.42352000        -0.52065000
H        -1.45503000        +3.26427000        +1.21284000
H        -2.87211000        +3.26623000        +0.14638000
H        -1.73878000        -2.44393000        -0.21875000
--
0  1
C        -0.51691000        -1.03247000        +3.91778000
C        -0.52956000        +0.37001000        +4.03960000
C        +0.77722000        -1.78653000        +3.89093000
C        +0.75596000        +1.13559000        +4.05065000
O        +1.56398000        -1.44053000        +4.93280000
O        +1.07455000        -2.63282000        +3.08379000
O        +1.56537000        +0.73424000        +3.04590000
O        +1.03788000        +2.02220000        +4.81945000
C        +2.86202000        +1.35244000        +2.99109000
C        +2.85069000        -2.08085000        +4.98942000
C        -1.71567000        -1.76493000        +3.85915000
C        -2.91199000        -1.04933000        +3.93182000
C        -2.92560000        +0.33378000        +4.05401000
C        -1.74408000        +1.07527000        +4.11277000
H        +2.76588000        +2.43112000        +2.86003000
H        +2.73531000        -3.16196000        +5.08022000
H        -3.87601000        +0.85448000        +4.10177000
H        +3.41751000        +1.15216000        +3.90923000
H        +3.35937000        +0.90392000        +2.13400000
H        +3.33848000        -1.67158000        +5.87117000
H        +3.42642000        -1.85811000        +4.08926000
H        -3.85139000        -1.59088000        +3.89479000
C        -1.81207000        +2.57869000        +4.23306000
H        -1.21461000        +3.07475000        +3.46402000
H        -1.42750000        +2.91550000        +5.19751000
H        -2.84458000        +2.91746000        +4.13105000
H        -1.71125000        -2.79270000        +3.76592000
$end

$rem
JOBTYPE                   SP
METHOD                    B3LYP
DFT_D                     d3_op
BASIS                     6-311++G(d,p)
SYMMETRY                  False
THRESH                    12
SCF_CONVERGENCE           8
MAX_SUB_FILE_NUM          128
MEM_STATIC                400
MEM_TOTAL                 4000
$end
--------------------------------------------------------------

             Standard Nuclear Orientation (Angstroms)
    I     Atom           X                Y                Z
 ----------------------------------------------------------------
    1      C      -1.8834637470    -0.0756330180     1.3294443574
    2      C      -2.1413559604     0.3770576123     0.0215785062
    3      C      -1.5051537346    -1.5024738622     1.5846043132
    4      C      -2.1311886311    -0.5861479326    -1.1233792280
    5      O      -0.4817923509    -1.8843309542     0.7901755662
    6      O      -2.0017496962    -2.2167036760     2.4208788474
    7      O      -2.8530052895    -1.6904702702    -0.8314857209
    8      O      -1.5904605705    -0.4056909090    -2.1871734024
    9      C      -2.8646649408    -2.7228161178    -1.8317870265
   10      C      -0.0554014563    -3.2512122376     0.9267936951
   11      C      -1.9339979412     0.8057365714     2.4237910156
   12      C      -2.2431109139     2.1414488870     2.1613646235
   13      C      -2.4956677064     2.5894216204     0.8715412259
   14      C      -2.4501206722     1.7267078759    -0.2252268129
   15      H      -3.2904337737    -2.3475007943    -2.7633606814
   16      H       0.2993777177    -3.4407731897     1.9409704053
   17      H      -2.7380546374     3.6341702000     0.7089446184
   18      H      -1.8506391693    -3.0801508495    -2.0207999954
   19      H      -3.4826964565    -3.5171623033    -1.4192562226
   20      H       0.7517539433    -3.3752049568     0.2084274612
   21      H      -0.8799936503    -3.9309719650     0.7046662707
   22      H      -2.2828299557     2.8437624579     2.9873779584
   23      C      -2.7449480524     2.2599776489    -1.6065537784
   24      H      -3.5138405888     1.6713033712    -2.1132325315
   25      H      -1.8561832331     2.2297712920    -2.2395494619
   26      H      -3.0945164782     3.2920420036    -1.5441587741
   27      H      -1.7495374995     0.4775558373     3.3846730548
   28      C       2.0037744271     0.7343364926     0.8464099980
   29      C       1.7458822137     1.1870271229    -0.4614558533
   30      C       2.3820844395    -0.6925043515     1.1015699537
   31      C       1.7560495430     0.2238215781    -1.6064135875
   32      O       3.4054458232    -1.0743614436     0.3071412067
   33      O       1.8854884779    -1.4067341654     1.9378444880
   34      O       1.0342328846    -0.8805007595    -1.3145200804
   35      O       2.2967776036     0.4042786016    -2.6702077619
   36      C       1.0225732333    -1.9128466072    -2.3148213860
   37      C       3.8318367178    -2.4412427269     0.4437593356
   38      C       1.9532402329     1.6157060820     1.9407566561
   39      C       1.6441272602     2.9514183977     1.6783302641
   40      C       1.3915704677     3.3993911310     0.3885068664
   41      C       1.4371175019     2.5366773865    -0.7082611723
   42      H       0.5968044004    -1.5375312837    -3.2463950409
   43      H       4.1866158918    -2.6308036790     1.4579360458
   44      H       1.1491835367     4.4441397106     0.2259102589
   45      H       2.0365990048    -2.2701813388    -2.5038343549
   46      H       0.4045417176    -2.7071927927    -1.9022905820
   47      H       4.6389921174    -2.5652354462    -0.2746068983
   48      H       3.0072445238    -3.1210024544     0.2216319112
   49      H       1.6044082184     3.6537319685     2.5043435989
   50      C       1.1422901217     3.0699471596    -2.0895881379
   51      H       0.3733975852     2.4812728818    -2.5962668910
   52      H       2.0310549410     3.0397408026    -2.7225838214
   53      H       0.7927216959     4.1020115143    -2.0271931335
   54      H       2.1377006746     1.2875253479     2.9016386954
 ----------------------------------------------------------------

   15   -1455.0944339457      8.34E-09 Convergence criterion met
 Total energy in the final basis set = -1455.09443395

                    Orbital Energies (a.u.)
 --------------------------------------------------------------

 Alpha MOs
 -- Occupied --
-19.177 -19.176 -19.165 -19.162 -19.120 -19.118 -19.113 -19.109
-10.312 -10.310 -10.304 -10.301 -10.234 -10.234 -10.224 -10.221
-10.208 -10.206 -10.204 -10.204 -10.204 -10.203 -10.190 -10.189
-10.188 -10.186 -10.186 -10.186 -10.173 -10.169  -1.120  -1.118
 -1.108  -1.105  -1.033  -1.030  -1.023  -1.018  -0.883  -0.881
 -0.798  -0.796  -0.792  -0.790  -0.744  -0.743  -0.729  -0.724
 -0.703  -0.700  -0.652  -0.650  -0.624  -0.622  -0.580  -0.575
 -0.574  -0.567  -0.547  -0.543  -0.521  -0.517  -0.511  -0.508
 -0.492  -0.491  -0.486  -0.484  -0.483  -0.477  -0.475  -0.468
 -0.466  -0.464  -0.445  -0.443  -0.437  -0.431  -0.430  -0.429
 -0.423  -0.419  -0.411  -0.408  -0.403  -0.400  -0.392  -0.392
 -0.383  -0.379  -0.376  -0.373  -0.370  -0.363  -0.361  -0.361
 -0.360  -0.349  -0.322  -0.318  -0.308  -0.304  -0.294  -0.292
 -0.289  -0.284  -0.269  -0.265  -0.260  -0.254

          Ground-State Mulliken Net Atomic Charges

     Atom                 Charge (a.u.)
  ----------------------------------------
      1 C                     0.400324
      2 C                     0.046304
      3 C                    -0.432712
      4 C                    -0.796052
      5 O                     0.141247
      6 O                    -0.155335
      7 O                     0.162502
      8 O                    -0.091455
      9 C                    -0.109206
     10 C                    -0.370305
     11 C                    -0.223579
     12 C                    -0.258539
     13 C                    -0.275806
     14 C                     0.265169
     15 H                     0.164440
     16 H                     0.244381
     17 H                     0.153984
     18 H                     0.189077
     19 H                     0.174813
     20 H                     0.060065
     21 H                     0.190008
     22 H                     0.181554
     23 C                    -0.386935
     24 H                     0.176808
     25 H                     0.186916
     26 H                     0.147846
     27 H                     0.204473
     28 C                     0.341816
     29 C                     0.689828
     30 C                    -0.813741
     31 C                    -0.907085
     32 O                     0.151550
     33 O                    -0.097608
     34 O                     0.156853
     35 O                    -0.109689
     36 C                    -0.328370
     37 C                    -0.112729
     38 C                    -0.456711
     39 C                    -0.325918
     40 C                    -0.370060
     41 C                     0.435231
     42 H                     0.235389
     43 H                     0.170555
     44 H                     0.160804
     45 H                     0.195942
     46 H                     0.062366
     47 H                     0.175644
     48 H                     0.181705
     49 H                     0.184766
     50 C                    -0.363952
     51 H                     0.220939
     52 H                     0.214368
     53 H                     0.127944
     54 H                     0.190172
  ----------------------------------------
  Sum of atomic charges =     0.000000

                    Cartesian Multipole Moments
 -----------------------------------------------------------------
    Charge (ESU x 10^10)
                 0.0000
    Dipole Moment (Debye)
         X       0.1301      Y       0.4718      Z      -0.7177
       Tot       0.8686
    Quadrupole Moments (Debye-Ang)
        XX    -177.2525     XY     -11.6712     YY    -149.3176
        XZ      14.2573     YZ      16.7976     ZZ    -183.3775

 Total job time:  1898.64s(wall), 3781.11s(cpu)
        *  Thank you very much for using Q-Chem.  Have a nice day.  *
