 Q-Chem 5.0, Q-Chem, Inc., Pleasanton, CA (2017)
 Q-Chem 5.0.1 for Intel X86 EM64T Linux

User input:
--------------------------------------------------------------
$molecule
0  1
--
0  1
C        -0.54444000        -0.68370000        -0.06689000
C        -0.55709000        +0.71878000        +0.05493000
C        +0.74969000        -1.43776000        -0.09374000
C        +0.72843000        +1.48436000        +0.06598000
O        +1.53645000        -1.09176000        +0.94813000
O        +1.04702000        -2.28405000        -0.90088000
O        +1.53784000        +1.08301000        -0.93877000
O        +1.01035000        +2.37097000        +0.83478000
C        +2.83449000        +1.70121000        -0.99358000
C        +2.82316000        -1.73208000        +1.00475000
C        -1.74320000        -1.41616000        -0.12552000
C        -2.93952000        -0.70056000        -0.05285000
C        -2.95313000        +0.68255000        +0.06934000
C        -1.77161000        +1.42404000        +0.12810000
H        +2.73835000        +2.77989000        -1.12464000
H        +2.70778000        -2.81319000        +1.09555000
H        -3.90354000        +1.20325000        +0.11710000
H        +3.38998000        +1.50093000        -0.07544000
H        +3.33184000        +1.25269000        -1.85067000
H        +3.31095000        -1.32281000        +1.88650000
H        +3.39889000        -1.50934000        +0.10459000
H        -3.87892000        -1.24211000        -0.08988000
C        -1.83960000        +2.92746000        +0.24839000
C        -1.78103000        -2.92226000        -0.24590000
H        -1.39752000        -3.25223000        -1.21323000
H        -2.80572000        -3.28175000        -0.13627000
H        -1.16958000        -3.40777000        +0.51926000
H        -1.24214000        +3.42352000        -0.52065000
H        -1.45503000        +3.26427000        +1.21284000
H        -2.87211000        +3.26623000        +0.14638000
--
0  1
C        -0.51691000        -1.03247000        +3.91778000
C        -0.52956000        +0.37001000        +4.03960000
C        +0.77722000        -1.78653000        +3.89093000
C        +0.75596000        +1.13559000        +4.05065000
O        +1.56398000        -1.44053000        +4.93280000
O        +1.07455000        -2.63282000        +3.08379000
O        +1.56537000        +0.73424000        +3.04590000
O        +1.03788000        +2.02220000        +4.81945000
C        +2.86202000        +1.35244000        +2.99109000
C        +2.85069000        -2.08085000        +4.98942000
C        -1.71567000        -1.76493000        +3.85915000
C        -2.91199000        -1.04933000        +3.93182000
C        -2.92560000        +0.33378000        +4.05401000
C        -1.74408000        +1.07527000        +4.11277000
H        +2.76588000        +2.43112000        +2.86003000
H        +2.73531000        -3.16196000        +5.08022000
H        -3.87601000        +0.85448000        +4.10177000
H        +3.41751000        +1.15216000        +3.90923000
H        +3.35937000        +0.90392000        +2.13400000
H        +3.33848000        -1.67158000        +5.87117000
H        +3.42642000        -1.85811000        +4.08926000
H        -3.85139000        -1.59088000        +3.89479000
C        -1.81207000        +2.57869000        +4.23306000
C        -1.75350000        -3.27103000        +3.73877000
H        -1.36999000        -3.60100000        +2.77144000
H        -2.77819000        -3.63052000        +3.84840000
H        -1.14205000        -3.75654000        +4.50393000
H        -1.21461000        +3.07475000        +3.46402000
H        -1.42750000        +2.91550000        +5.19751000
H        -2.84458000        +2.91746000        +4.13105000
$end

$rem
JOBTYPE                   SP
METHOD                    B3LYP
DFT_D                     d3_op
BASIS                     6-311++G(d,p)
SYMMETRY                  False
THRESH                    12
SCF_CONVERGENCE           8
MAX_SUB_FILE_NUM          128
MEM_STATIC                400
MEM_TOTAL                 4000
$end
--------------------------------------------------------------

             Standard Nuclear Orientation (Angstroms)
    I     Atom           X                Y                Z
 ----------------------------------------------------------------
    1      C      -1.8460927772     0.4515832286     1.0881730147
    2      C      -2.1235435093     0.5002363713    -0.2911761972
    3      C      -1.6147295178    -0.8587479173     1.7763613561
    4      C      -2.2828798127    -0.7665075311    -1.0714122751
    5      O      -0.6850402135    -1.5922710302     1.1268830772
    6      O      -2.1407951094    -1.2089599939     2.8043172731
    7      O      -3.1054777180    -1.6269195190    -0.4320588281
    8      O      -1.7846070390    -0.9956324963    -2.1465102297
    9      C      -3.2862039836    -2.9108431584    -1.0528282730
   10      C      -0.4058200065    -2.8891106390     1.6828338449
   11      C      -1.7386512955     1.6303525643     1.8470668462
   12      C      -1.9118390597     2.8441101638     1.1797256147
   13      C      -2.1835290422     2.8933128490    -0.1811096250
   14      C      -2.2939859193     1.7319672759    -0.9481333574
   15      H      -3.7181930162    -2.7967612399    -2.0479870328
   16      H      -0.0191764587    -2.7937002281     2.6985895424
   17      H      -2.3172571725     3.8560985170    -0.6626168632
   18      H      -2.3298850421    -3.4306691718    -1.1358781132
   19      H      -3.9648695348    -3.4542547472    -0.3991866313
   20      H       0.3420486222    -3.3294962788     1.0273362615
   21      H      -1.3115522492    -3.4979240127     1.7018482251
   22      H      -1.8282018250     3.7689394131     1.7408099720
   23      C      -2.6031899359     1.8380462823    -2.4220750595
   24      C      -1.4324899623     1.6299077842     3.3271089752
   25      H      -2.2541703818     1.1980738222     3.9016071627
   26      H      -1.2623040971     2.6502204807     3.6753045607
   27      H      -0.5408368862     1.0413580369     3.5586794287
   28      H      -3.4591550621     1.2191571223    -2.7027107792
   29      H      -1.7592715833     1.5027201020    -3.0277622977
   30      H      -2.8323530453     2.8724131611    -2.6844059239
   31      C       2.0745897195     0.5874856981     0.3072935734
   32      C       1.7971389874     0.6361388408    -1.0720556385
   33      C       2.3059529789    -0.7228454478     0.9954819148
   34      C       1.6378026840    -0.6306050617    -1.8522917165
   35      O       3.2356422832    -1.4563685608     0.3460036359
   36      O       1.7798873872    -1.0730575245     2.0234378317
   37      O       0.8152047787    -1.4910170496    -1.2129382694
   38      O       2.1360754577    -0.8597300268    -2.9273896710
   39      C       0.6344785130    -2.7749406889    -1.8337077144
   40      C       3.5148624902    -2.7532081695     0.9019544036
   41      C       2.1820312012     1.7662550337     1.0661874048
   42      C       2.0088434370     2.9800126332     0.3988461733
   43      C       1.7371534545     3.0292153185    -0.9619890663
   44      C       1.6266965773     1.8678697453    -1.7290127988
   45      H       0.2024894804    -2.6608587704    -2.8288664742
   46      H       3.9015060380    -2.6577977587     1.9177101011
   47      H       1.6034253241     3.9920009864    -1.4434963045
   48      H       1.5907974545    -3.2947667024    -1.9167575545
   49      H      -0.0441870382    -3.3183522778    -1.1800660727
   50      H       4.2627311189    -3.1935938094     0.2464568202
   51      H       2.6091302475    -3.3620215432     0.9209687838
   52      H       2.0924806717     3.9048418825     0.9599305307
   53      C       1.3174925608     1.9739487517    -3.2029545009
   54      C       2.4881925343     1.7658102536     2.5462295338
   55      H       1.6665121149     1.3339762917     3.1207277214
   56      H       2.6583783996     2.7861229501     2.8944251193
   57      H       3.3798456105     1.1772605063     2.7777999873
   58      H       0.4615274346     1.3550595917    -3.4835902205
   59      H       2.1614109134     1.6386225714    -3.8086417390
   60      H       1.0883294514     3.0083156305    -3.4652853653
 ----------------------------------------------------------------

   15   -1533.7613392861      8.19E-09 Convergence criterion met
 Total energy in the final basis set = -1533.76133929

                    Orbital Energies (a.u.)
 --------------------------------------------------------------

 Alpha MOs
 -- Occupied --
-19.176 -19.175 -19.163 -19.162 -19.118 -19.118 -19.110 -19.109
-10.310 -10.310 -10.302 -10.301 -10.234 -10.233 -10.223 -10.221
-10.202 -10.201 -10.200 -10.200 -10.198 -10.198 -10.197 -10.196
-10.183 -10.183 -10.183 -10.182 -10.171 -10.170 -10.166 -10.165
 -1.119  -1.118  -1.106  -1.105  -1.031  -1.031  -1.021  -1.019
 -0.882  -0.880  -0.804  -0.803  -0.792  -0.790  -0.744  -0.742
 -0.732  -0.729  -0.723  -0.719  -0.672  -0.671  -0.646  -0.645
 -0.617  -0.616  -0.574  -0.574  -0.563  -0.557  -0.534  -0.533
 -0.516  -0.515  -0.509  -0.508  -0.491  -0.490  -0.486  -0.485
 -0.480  -0.475  -0.471  -0.467  -0.464  -0.462  -0.442  -0.438
 -0.437  -0.428  -0.428  -0.425  -0.420  -0.413  -0.412  -0.409
 -0.408  -0.408  -0.403  -0.401  -0.392  -0.391  -0.385  -0.383
 -0.379  -0.376  -0.371  -0.367  -0.360  -0.359  -0.357  -0.355
 -0.347  -0.347  -0.320  -0.317  -0.306  -0.302  -0.292  -0.290
 -0.287  -0.281  -0.266  -0.257  -0.255  -0.243

          Ground-State Mulliken Net Atomic Charges

     Atom                 Charge (a.u.)
  ----------------------------------------
      1 C                     0.079121
      2 C                     0.088669
      3 C                    -0.582962
      4 C                    -0.830321
      5 O                     0.184902
      6 O                    -0.114354
      7 O                     0.154018
      8 O                    -0.085684
      9 C                    -0.109614
     10 C                    -0.316049
     11 C                     0.374916
     12 C                    -0.202249
     13 C                    -0.220272
     14 C                     0.248914
     15 H                     0.165237
     16 H                     0.230544
     17 H                     0.163141
     18 H                     0.184822
     19 H                     0.174928
     20 H                     0.060498
     21 H                     0.193872
     22 H                     0.167721
     23 C                    -0.516112
     24 C                    -0.547144
     25 H                     0.212467
     26 H                     0.121072
     27 H                     0.220232
     28 H                     0.174152
     29 H                     0.185879
     30 H                     0.143480
     31 C                     0.082368
     32 C                     0.128674
     33 C                    -0.884989
     34 C                    -0.594753
     35 O                     0.167835
     36 O                    -0.077517
     37 O                     0.161624
     38 O                    -0.110799
     39 C                    -0.324310
     40 C                    -0.094812
     41 C                     0.237139
     42 C                    -0.221739
     43 C                    -0.204712
     44 C                     0.386917
     45 H                     0.234523
     46 H                     0.163916
     47 H                     0.168073
     48 H                     0.196505
     49 H                     0.061431
     50 H                     0.175634
     51 H                     0.183416
     52 H                     0.162966
     53 C                    -0.548389
     54 C                    -0.509772
     55 H                     0.187327
     56 H                     0.145397
     57 H                     0.173319
     58 H                     0.219426
     59 H                     0.211824
     60 H                     0.119651
  ----------------------------------------
  Sum of atomic charges =     0.000000

                    Cartesian Multipole Moments
 -----------------------------------------------------------------
    Charge (ESU x 10^10)
                 0.0000
    Dipole Moment (Debye)
         X       0.2178      Y       0.0314      Z       0.1575
       Tot       0.2706
    Quadrupole Moments (Debye-Ang)
        XX    -190.5469     XY      -2.0544     YY    -156.4090
        XZ      16.9061     YZ       2.0330     ZZ    -201.7098

 Total job time:  2662.99s(wall), 5302.04s(cpu)
        *  Thank you very much for using Q-Chem.  Have a nice day.  *
