 Q-Chem 5.0, Q-Chem, Inc., Pleasanton, CA (2017)
 Q-Chem 5.0.1 for Intel X86 EM64T Linux

User input:
--------------------------------------------------------------
$molecule
0 1
C 0.22583790 -0.71157700 -0.06512586
C -0.99865671 -0.02144766 -0.00622228
C 1.48903205 0.05157072 -0.33738476
C -1.02637166 1.47051255 -0.11527332
O 2.39857731 -0.12232144 0.63858974
O 1.68350310 0.71752418 -1.32576486
O -0.07630877 2.03938004 0.65710304
O -1.80564195 2.10210040 -0.78663386
C 0.08603078 3.46137184 0.50903634
C 3.65486322 0.55536861 0.45003611
C 0.26982996 -2.11313854 0.00865777
C -0.94050451 -2.79092097 0.16332170
C -2.14889615 -2.11053392 0.23845720
C -2.21179496 -0.71914613 0.14462295
H 0.40649224 3.69360016 -0.50790568
H 4.14505902 0.20561887 -0.45991676
H -3.06895401 -2.67138704 0.36481502
H -0.84991266 3.97877465 0.72270148
H 0.85318686 3.74112304 1.22761442
H 4.25010629 0.31138092 1.32695252
H 3.49523282 1.63218930 0.37966618
H -0.93549687 -3.87457326 0.21828139
C -3.55422717 -0.03088193 0.21479645
C 1.56046980 -2.89079872 -0.09792115
H 2.17574879 -2.54052895 -0.93072208
H 1.35400705 -3.95048831 -0.25831384
H 2.15816927 -2.79104820 0.81147506
H -3.83065204 0.38876588 -0.75465493
H -3.55285731 0.79828875 0.92610269
H -4.32475669 -0.74105159 0.52064116
$end

$rem
sym_ignore      true
jobtype         opt
method          b3lyp
basis           6-311++G(d,p)
dft_d           d3_op
mem_total       62000
MEM_STATIC      4000
ao2mo_disk      350000
max_scf_cycles  200
geom_opt_max_cycles 1000
geom_opt_tol_displacement 1
GEOM_OPT_TOL_GRADIENT       1
GEOM_OPT_TOL_ENERGY         1
$end

--------------------------------------------------------------

   15    -766.8750755536      8.86E-09 Convergence criterion met
 Total energy in the final basis set = -766.87507555
    8    -766.8750758794      8.32E-09 Convergence criterion met
 Total energy in the final basis set = -766.87507588
   10    -766.8750762234      6.10E-09 Convergence criterion met
 Total energy in the final basis set = -766.87507622
   10    -766.8750768647      4.82E-09 Convergence criterion met
 Total energy in the final basis set = -766.87507686
    9    -766.8750776679      9.34E-09 Convergence criterion met
 Total energy in the final basis set = -766.87507767
    9    -766.8750770346      9.22E-09 Convergence criterion met
 Total energy in the final basis set = -766.87507703
    9    -766.8750778360      7.81E-09 Convergence criterion met
 Total energy in the final basis set = -766.87507784
    9    -766.8750776775      4.65E-09 Convergence criterion met
    5    -766.8750779799      7.82E-09 Convergence criterion met
 Total energy in the final basis set = -766.87507798
    5    -766.8750779995      6.94E-09 Convergence criterion met
 Total energy in the final basis set = -766.87507800
    4    -766.8750780160      8.77E-09 Convergence criterion met
 Total energy in the final basis set = -766.87507802
    4    -766.8750780325      6.99E-09 Convergence criterion met
 Total energy in the final basis set = -766.87507803
    4    -766.8750780462      5.68E-09 Convergence criterion met
 Total energy in the final basis set = -766.87507805
    4    -766.8750780554      4.56E-09 Convergence criterion met
 Total energy in the final basis set = -766.87507806
 Final energy is   -766.875078055423
 **  OPTIMIZATION CONVERGED  **
 Total job time:  930.39s(wall), 14320.04s(cpu)
        *  Thank you very much for using Q-Chem.  Have a nice day.  *

User input: 2 of 2

r0103.ten.osc.edu 10.25.153
Q-Chem Developer Version! Running on 10.25.153.*
                  Welcome to Q-Chem
     A Quantum Leap Into The Future Of Chemistry

 Q-Chem 5.0, Q-Chem, Inc., Pleasanton, CA (2017)

 Yihan Shao,  Zhengting Gan,  E. Epifanovsky,  A. T. B. Gilbert,  M. Wormit,
 J. Kussmann,  A. W. Lange,  A. Behn,  Jia Deng,  Xintian Feng,  D. Ghosh,
 M. Goldey,  P. R. Horn,  L. D. Jacobson,  I. Kaliman,  T. Kus,  A. Landau,
 Jie Liu,  E. I. Proynov,  R. M. Richard,  R. P. Steele,  E. J. Sundstrom,
 H. L. Woodcock III,  P. M. Zimmerman,  D. Zuev,  B. Albrecht,  E. Alguire,
 S. A. Baeppler,  Z. Benda,  Y. A. Bernard,  E. J. Berquist,  K. B. Bravaya,
 D. Casanova,  Chun-Min Chang,  Yunqing Chen,  A. Chien,  K. D. Closser,
 M. P. Coons,  S. Dasgupta,  M. Diedenhofen,  Hainam Do,  R. G. Edgar,
 Po-Tung Fang,  S. Fatehi,  Qingguo Feng,  Qinghui Ge,  A. Ghysels,
 J. Gomes,  J. Gonthier,  A. Gunina,  M. W. D. Hanson-Heine,
 P. H. P. Harbach,  A. W. Hauser,  J. E. Herr,  E. G. Hohenstein,
 Z. C. Holden,  Kerwin Hui,  T.-C. Jagau,  Hyunjun Ji,  B. Kaduk,
 K. Khistyaev,  Jaehoon Kim,  P. Klunzinger,  K. Koh,  D. Kosenkov,
 T. Kowalczyk,  C. M. Krauter,  A. Kunitsa,  Ka Un Lao,  A. Laurent,
 K. V. Lawler,  Joonho Lee,  D. Lefrancois,  S. Lehtola,  D. S. Levine,
 Yi-Pei Li,  You-Sheng Lin,  Fenglai Liu,  E. Livshits,  A. Luenser,
 P. Manohar,  E. Mansoor,  S. F. Manzer,  Shan-Ping Mao,  Yuezhi Mao,
 N. Mardirossian,  A. V. Marenich,  L. A. Martinez-Martinez,  S. A. Maurer,
 N. J. Mayhall,  S. C. McKenzie,  J.-M. Mewes,  A. F. Morrison,  K. Nanda,
 T. S. Nguyen-Beck,  R. Olivares-Amaya,  J. A. Parkhill,  T. M. Perrine,
 F. Plasser,  S. Prager,  A. Prociuk,  D. R. Rehn,  F. Rob,  M. Schneider,
 N. Sergueev,  S. M. Sharada,  S. Sharma,  D. W. Small,  T. Stauch,
 T. Stein,  Yu-Chuan Su,  A. J. W. Thom,  T. Tsuchimochi,  L. Vogt,
 O. Vydrov,  M. A. Watson,  J. Wenzel,  M. de Wergifosse,  T. A. Wesolowski,
 A. White,  J. Witte,  A. Yamada,  Jun Yang,  K. Yao,  S. Yeganeh,
 S. R. Yost,  Zhi-Qiang You,  A. Zech,  Igor Ying Zhang,  Xing Zhang,
 Yan Zhao,  Ying Zhu,  B. R. Brooks,  G. K. L. Chan,  C. J. Cramer,
 M. S. Gordon,  W. J. Hehre,  A. Klamt,  M. W. Schmidt,  C. D. Sherrill,
 D. G. Truhlar,  A. Aspuru-Guzik,  R. Baer,  A. T. Bell,  N. A. Besley,
 Jeng-Da Chai,  A. Dreuw,  B. D. Dunietz,  T. R. Furlani,  Chao-Ping Hsu,
 Yousung Jung,  Jing Kong,  D. S. Lambrecht,  WanZhen Liang,  C. Ochsenfeld,
 V. A. Rassolov,  L. V. Slipchenko,  J. E. Subotnik,  T. Van Voorhis,
 J. M. Herbert,  A. I. Krylov,  P. M. W. Gill,  M. Head-Gordon

 Contributors to earlier versions of Q-Chem not listed above:
 R. D. Adamson,  B. Austin,  J. Baker,  G. J. O. Beran,  K. Brandhorst,
 S. T. Brown,  E. F. C. Byrd,  A. K. Chakraborty,  C.-L. Cheng,
 Siu Hung Chien,  D. M. Chipman,  D. L. Crittenden,  H. Dachsel,
 R. A. DiStasio Jr.,  R. J. Doerksen,  A. D. Dutoi,  L. Fusti-Molnar,
 W. A. Goddard III,  A. Golubeva-Zadorozhnaya,  S. R. Gwaltney,  G. Hawkins,
 A. Heyden,  S. Hirata,  G. Kedziora,  F. J. Keil,  C. Kelley,  Jihan Kim,
 R. A. King,  R. Z. Khaliullin,  P. P. Korambath,  W. Kurlancheek,
 A. M. Lee,  M. S. Lee,  S. V. Levchenko,  Ching Yeh Lin,  D. Liotard,
 R. C. Lochan,  I. Lotan,  P. E. Maslen,  N. Nair,  D. P. O'Neill,
 D. Neuhauser,  E. Neuscamman,  C. M. Oana,  R. Olson,  B. Peters,
 R. Peverati,  P. A. Pieniazek,  Y. M. Rhee,  J. Ritchie,  M. A. Rohrdanz,
 E. Rosta,  N. J. Russ,  H. F. Schaefer III,  N. E. Schultz,  N. Shenvi,
 A. C. Simmonett,  A. Sodt,  D. Stuck,  K. S. Thanthiriwatte,  V. Vanovschi,
 Tao Wang,  A. Warshel,  C. F. Williams,  Q. Wu,  X. Xu,  W. Zhang

 Please cite Q-Chem as follows:
 Y. Shao et al., Mol. Phys. 113, 184-215 (2015)
 DOI: 10.1080/00268976.2014.952696

 Q-Chem 5.0.1 for Intel X86 EM64T Linux

 Parts of Q-Chem use Armadillo 5.200.1 (Boston Tea Smuggler).
 http://arma.sourceforge.net/

 Q-Chem begins on Sat Oct 14 21:43:24 2017

Host: r0103.ten.osc.edu
0

     Scratch files written to /tmp/pbstmp.1310497/00//
Processing $rem in /users/PAS0291/osu6415/.qchemrc.
molden_format             true
The previous job contains 0 fragments, simply inherited here

Checking the input file for inconsistencies... 	...done.

--------------------------------------------------------------
User input:
--------------------------------------------------------------

$molecule
read
$end

$rem
sym_ignore      true
scf_guess       read
jobtype         freq
method          b3lyp
basis           6-311++G(d,p)
dft_d           d3_op
mem_total       62000
MEM_STATIC      4000
ao2mo_disk      350000
max_scf_cycles  200
$end
--------------------------------------------------------------

             Standard Nuclear Orientation (Angstroms)
    I     Atom           X                Y                Z
 ----------------------------------------------------------------
    1      C       0.2257106362    -0.7116770704    -0.0640464778
    2      C      -0.9988032982    -0.0215525696    -0.0055160806
    3      C       1.4889031132     0.0513874195    -0.3364545080
    4      C      -1.0262078943     1.4704206425    -0.1143107910
    5      O       2.3981465360    -0.1204758083     0.6401190502
    6      O       1.6837042202     0.7155254181    -1.3260249589
    7      O      -0.0761301834     2.0390393891     0.6582431697
    8      O      -1.8049933416     2.1024853182    -0.7858071633
    9      C       0.0867831700     3.4608903308     0.5095231769
   10      C       3.6546030310     0.5564769248     0.4503274053
   11      C       0.2696831065    -2.1133088591     0.0098359988
   12      C      -0.9407194377    -2.7911082453     0.1631444294
   13      C      -2.1492671887    -2.1107465344     0.2371739096
   14      C      -2.2121131500    -0.7194238214     0.1437369559
   15      H       0.3977126445     3.6937513637    -0.5101690826
   16      H       4.1452180492     0.2039938312    -0.4583300187
   17      H      -3.0693918166    -2.6716761112     0.3625890136
   18      H      -0.8463392860     3.9792982078     0.7329771525
   19      H       0.8611916692     3.7390231671     1.2209478997
   20      H       4.2493996283     0.3146999141     1.3281946588
   21      H       3.4952918170     1.6331315922     0.3771233869
   22      H      -0.9357574999    -3.8747445937     0.2180626792
   23      C      -3.5545344303    -0.0310006207     0.2130986105
   24      C       1.5604771672    -2.8906575175    -0.0973648209
   25      H       2.1666074384    -2.5518550795    -0.9417428177
   26      H       1.3540605073    -3.9528485733    -0.2402849358
   27      H       2.1670425118    -2.7768263296     0.8043488207
   28      H      -3.8248229549     0.3998250598    -0.7530335812
   29      H      -3.5570134755     0.7897106714     0.9343055461
   30      H      -4.3273262891    -0.7440312663     0.5063652128
 ----------------------------------------------------------------

    2    -766.8750780554      4.10E-09 Convergence criterion met
 Total energy in the final basis set = -766.87507806

                    Orbital Energies (a.u.)
 --------------------------------------------------------------

 Alpha MOs
 -- Occupied --
-19.178 -19.173 -19.120 -19.116 -10.312 -10.308 -10.233 -10.227
-10.205 -10.204 -10.201 -10.200 -10.187 -10.185 -10.176 -10.168
 -1.121  -1.114  -1.032  -1.028  -0.885  -0.808  -0.792  -0.748
 -0.732  -0.726  -0.674  -0.648  -0.620  -0.576  -0.568  -0.531
 -0.519  -0.513  -0.489  -0.488  -0.480  -0.477  -0.469  -0.441
 -0.436  -0.428  -0.423  -0.415  -0.412  -0.406  -0.396  -0.387
 -0.381  -0.372  -0.360  -0.358  -0.357  -0.320  -0.312  -0.298
 -0.287  -0.265  -0.253

          Ground-State Mulliken Net Atomic Charges

     Atom                 Charge (a.u.)
  ----------------------------------------
      1 C                     0.450304
      2 C                     0.556447
      3 C                    -0.915803
      4 C                    -0.457075
      5 O                     0.040195
      6 O                    -0.126795
      7 O                    -0.007959
      8 O                    -0.195002
      9 C                    -0.224243
     10 C                    -0.211704
     11 C                     0.615711
     12 C                    -0.551478
     13 C                    -0.662205
     14 C                     0.512481
     15 H                     0.195210
     16 H                     0.185051
     17 H                     0.125573
     18 H                     0.174797
     19 H                     0.150230
     20 H                     0.158838
     21 H                     0.158213
     22 H                     0.131609
     23 C                    -0.564423
     24 C                    -0.576169
     25 H                     0.176178
     26 H                     0.151494
     27 H                     0.192566
     28 H                     0.203875
     29 H                     0.174651
     30 H                     0.139432
  ----------------------------------------
  Sum of atomic charges =     0.000000

                    Cartesian Multipole Moments
 -----------------------------------------------------------------
    Charge (ESU x 10^10)
                 0.0000
    Dipole Moment (Debye)
         X       1.6639      Y      -1.3152      Z       2.4842
       Tot       3.2664
    Quadrupole Moments (Debye-Ang)
        XX     -83.5433     XY       5.5271     YY     -83.4233
        XZ      -0.1446     YZ       5.8092     ZZ    -101.8906

 Frequency:        28.33                  55.21                  72.57
 Force Cnst:      0.0025                 0.0074                 0.0125
 Red. Mass:       5.2333                 4.1264                 4.0437
 IR Intens:        0.472                  0.058                  2.474
 Frequency:        80.62                 109.05                 116.24
 Force Cnst:      0.0114                 0.0086                 0.0120
 Red. Mass:       2.9800                 1.2249                 1.5034
 IR Intens:        4.231                  0.324                  0.868
 Frequency:       124.18                 134.00                 139.72
 Force Cnst:      0.0242                 0.0237                 0.0197
 Red. Mass:       2.6682                 2.2381                 1.7085
 IR Intens:        0.507                  4.416                  0.518
 Frequency:       151.16                 162.15                 220.10
 Force Cnst:      0.0157                 0.0204                 0.1417
 Red. Mass:       1.1672                 1.3144                 4.9634
 IR Intens:        0.300                  0.356                  0.256
 Frequency:       241.79                 252.04                 291.09
 Force Cnst:      0.1894                 0.1762                 0.1570
 Red. Mass:       5.4987                 4.7066                 3.1454
 IR Intens:        1.267                  3.176                  1.261
 Frequency:       304.05                 317.05                 324.01
 Force Cnst:      0.2626                 0.2332                 0.2277
 Red. Mass:       4.8208                 3.9372                 3.6819
 IR Intens:        4.586                 11.249                  7.684
 Frequency:       368.98                 403.23                 423.93
 Force Cnst:      0.4602                 0.3726                 0.5255
 Red. Mass:       5.7371                 3.8895                 4.9632
 IR Intens:        4.767                  6.713                  1.162
 Frequency:       487.42                 494.31                 556.01
 Force Cnst:      0.6097                 0.5330                 0.7896
 Red. Mass:       4.3559                 3.7025                 4.3351
 IR Intens:        1.082                 10.112                  1.955
 Frequency:       617.93                 713.91                 725.97
 Force Cnst:      1.0663                 1.8391                 1.9726
 Red. Mass:       4.7398                 6.1246                 6.3526
 IR Intens:        7.126                  1.066                  0.299
 Frequency:       736.26                 799.07                 806.24
 Force Cnst:      1.9946                 2.1728                 2.3337
 Red. Mass:       6.2453                 5.7755                 6.0937
 IR Intens:       23.773                  6.165                 10.875
 Frequency:       815.46                 831.97                 890.63
 Force Cnst:      2.6134                 0.5301                 2.6333
 Red. Mass:       6.6703                 1.2998                 5.6345
 IR Intens:       10.264                 19.116                  4.965
 Frequency:       922.40                 970.41                 988.23
 Force Cnst:      2.1784                 0.7377                 1.4413
 Red. Mass:       4.3456                 1.3297                 2.5048
 IR Intens:        9.532                  0.106                  5.383
 Frequency:       997.30                1045.18                1054.85
 Force Cnst:      2.9055                 0.9829                 1.6296
 Red. Mass:       4.9582                 1.5271                 2.4857
 IR Intens:       11.361                  2.325                 61.949
 Frequency:      1060.88                1064.67                1134.57
 Force Cnst:      1.0679                 1.0109                 4.0417
 Red. Mass:       1.6105                 1.5137                 5.3291
 IR Intens:        6.020                  3.388                 87.452
 Frequency:      1169.45                1170.68                1185.55
 Force Cnst:      1.0373                 1.0411                 1.2727
 Red. Mass:       1.2873                 1.2893                 1.5368
 IR Intens:        0.125                  2.304                 95.875
 Frequency:      1203.13                1212.20                1223.12
 Force Cnst:      1.5807                 1.3760                 2.7067
 Red. Mass:       1.8535                 1.5894                 3.0708
 IR Intens:       25.540                  9.841                293.576
 Frequency:      1274.18                1288.47                1293.27
 Force Cnst:      1.8996                 6.1290                 3.8725
 Red. Mass:       1.9858                 6.2660                 3.9298
 IR Intens:       21.854                173.284                191.801
 Frequency:      1317.13                1421.69                1422.34
 Force Cnst:      6.0943                 1.4818                 1.4771
 Red. Mass:       5.9624                 1.2443                 1.2392
 IR Intens:       59.062                  1.101                  4.925
 Frequency:      1432.73                1466.99                1470.23
 Force Cnst:      3.5435                 1.5347                 1.5818
 Red. Mass:       2.9299                 1.2104                 1.2420
 IR Intens:       51.986                 16.339                 36.996
 Frequency:      1480.43                1481.67                1485.92
 Force Cnst:      1.4074                 1.3578                 1.4633
 Red. Mass:       1.0899                 1.0498                 1.1249
 IR Intens:        6.176                  7.432                  1.198
 Frequency:      1486.49                1490.09                1495.59
 Force Cnst:      1.3684                 1.4349                 1.3797
 Red. Mass:       1.0511                 1.0969                 1.0469
 IR Intens:       12.527                 11.317                 14.329
 Frequency:      1496.81                1502.61                1503.93
 Force Cnst:      1.3895                 1.5634                 3.0093
 Red. Mass:       1.0526                 1.1753                 2.2582
 IR Intens:        3.238                  9.851                 18.008
 Frequency:      1609.42                1633.10                1771.74
 Force Cnst:      8.1660                11.1267                21.8385
 Red. Mass:       5.3508                 7.0809                11.8079
 IR Intens:       13.502                  2.028                139.305
 Frequency:      1779.98                3035.79                3041.43
 Force Cnst:     21.8195                 5.6264                 5.6445
 Red. Mass:      11.6887                 1.0362                 1.0357
 IR Intens:      378.960                 24.563                 22.963
 Frequency:      3049.63                3051.05                3091.66
 Force Cnst:      5.6422                 5.6447                 6.1959
 Red. Mass:       1.0297                 1.0292                 1.1002
 IR Intens:       31.164                 36.723                 11.071
 Frequency:      3099.19                3109.11                3111.90
 Force Cnst:      6.2249                 6.2773                 6.2921
 Red. Mass:       1.1000                 1.1022                 1.1028
 IR Intens:       11.832                 17.098                 14.261
 Frequency:      3122.36                3126.50                3157.14
 Force Cnst:      6.3578                 6.3767                 6.4983
 Red. Mass:       1.1069                 1.1072                 1.1065
 IR Intens:       17.650                 13.961                 13.109
 Frequency:      3158.43                3160.47                3177.90
 Force Cnst:      6.5020                 6.3987                 6.5122
 Red. Mass:       1.1062                 1.0873                 1.0944
 IR Intens:       12.664                  8.421                 20.159

 STANDARD THERMODYNAMIC QUANTITIES AT   298.15 K  AND     1.00 ATM

   This Molecule has  0 Imaginary Frequencies
   Zero point vibrational energy:      150.526 kcal/mol

   Atom    1 Element C  Has Mass   12.00000
   Atom    2 Element C  Has Mass   12.00000
   Atom    3 Element C  Has Mass   12.00000
   Atom    4 Element C  Has Mass   12.00000
   Atom    5 Element O  Has Mass   15.99491
   Atom    6 Element O  Has Mass   15.99491
   Atom    7 Element O  Has Mass   15.99491
   Atom    8 Element O  Has Mass   15.99491
   Atom    9 Element C  Has Mass   12.00000
   Atom   10 Element C  Has Mass   12.00000
   Atom   11 Element C  Has Mass   12.00000
   Atom   12 Element C  Has Mass   12.00000
   Atom   13 Element C  Has Mass   12.00000
   Atom   14 Element C  Has Mass   12.00000
   Atom   15 Element H  Has Mass    1.00783
   Atom   16 Element H  Has Mass    1.00783
   Atom   17 Element H  Has Mass    1.00783
   Atom   18 Element H  Has Mass    1.00783
   Atom   19 Element H  Has Mass    1.00783
   Atom   20 Element H  Has Mass    1.00783
   Atom   21 Element H  Has Mass    1.00783
   Atom   22 Element H  Has Mass    1.00783
   Atom   23 Element C  Has Mass   12.00000
   Atom   24 Element C  Has Mass   12.00000
   Atom   25 Element H  Has Mass    1.00783
   Atom   26 Element H  Has Mass    1.00783
   Atom   27 Element H  Has Mass    1.00783
   Atom   28 Element H  Has Mass    1.00783
   Atom   29 Element H  Has Mass    1.00783
   Atom   30 Element H  Has Mass    1.00783
   Molecular Mass:   222.089260 amu
   Principal axes and moments of inertia in amu*Bohr^2:
                             1           2           3
    Eigenvalues --     2856.64427  3195.45498  5564.08740
          X               0.99529    -0.09673    -0.00594
          Y               0.09675     0.99530     0.00408
          Z               0.00552    -0.00464     0.99997
   Rotational Symmetry Number is   1
   The Molecule is an Asymmetric Top
   Translational Enthalpy:        0.889 kcal/mol
   Rotational Enthalpy:           0.889 kcal/mol
   Vibrational Enthalpy:        159.349 kcal/mol
   gas constant (RT):             0.592 kcal/mol
   Translational Entropy:        42.096  cal/mol.K
   Rotational Entropy:           32.296  cal/mol.K
   Vibrational Entropy:          58.169  cal/mol.K

   Total Enthalpy:              161.719 kcal/mol
   Total Entropy:               132.561  cal/mol.K

 Total job time:  6506.38s(wall), 23147.28s(cpu)
        *  Thank you very much for using Q-Chem.  Have a nice day.  *
