 Q-Chem 5.0, Q-Chem, Inc., Pleasanton, CA (2017)
 Q-Chem 5.0.1 for Intel X86 EM64T Linux

User input:
--------------------------------------------------------------
$molecule
0 1
C -0.07850091 -0.74686341 -0.10333393
C -0.91540690 0.38511052 0.01563641
C 1.41943681 -0.66733658 -0.24706507
C -0.35941400 1.77158101 -0.04377370
O 2.01475683 -0.64270901 0.96089822
O 2.01412027 -0.74948031 -1.29232729
O 0.98545618 1.78388162 -0.14587185
O -1.00950865 2.79269427 -0.02396326
C 1.60910247 3.07079114 -0.27553595
C 3.45247606 -0.60767769 0.94793197
C -0.60364226 -2.04841694 -0.10001189
C -1.98215460 -2.19699601 0.04209662
C -2.81255444 -1.09379090 0.17055051
C -2.31586320 0.21073304 0.15399557
H 1.19818009 3.60807522 -1.13093418
H 3.85390788 -1.47848384 0.42719668
H -3.88078014 -1.24310661 0.28264969
H 1.45506725 3.66091156 0.62938801
H 2.66641649 2.86377733 -0.42533118
H 3.75271442 -0.61145579 1.99335049
H 3.80217959 0.29893343 0.45110355
H -2.40982498 -3.19425579 0.05268932
C -3.31128787 1.33901100 0.28488598
C 0.28072207 -3.26428967 -0.24888981
H 0.78971385 -3.26635827 -1.21596420
H -0.30999910 -4.17853127 -0.17270798
H 1.05104870 -3.29698229 0.52713832
H -3.30067262 1.98941235 -0.59100443
H -3.09177314 1.97920196 1.14104386
H -4.31515270 0.92596045 0.40440843
$end

$rem
sym_ignore      true
jobtype         ts
method          b3lyp
basis           6-311++G(d,p)
dft_d           d3_op
mem_total       62000
MEM_STATIC      4000
ao2mo_disk      350000
max_scf_cycles  200
geom_opt_max_cycles 1000
geom_opt_tol_displacement 1
GEOM_OPT_TOL_GRADIENT       1
GEOM_OPT_TOL_ENERGY         1
$end

--------------------------------------------------------------

   15    -766.8725225969      4.40E-09 Convergence criterion met
 Total energy in the final basis set = -766.87252260
   11    -766.8724542444      6.97E-09 Convergence criterion met
 Total energy in the final basis set = -766.87245424
   12    -766.8723649526      4.16E-09 Convergence criterion met
 Total energy in the final basis set = -766.87236495
   12    -766.8722244986      4.42E-09 Convergence criterion met
 Total energy in the final basis set = -766.87222450
   12    -766.8720454302      7.68E-09 Convergence criterion met
 Total energy in the final basis set = -766.87204543
   12    -766.8723379927      8.29E-09 Convergence criterion met
 Total energy in the final basis set = -766.87233799
   13    -766.8725150497      3.87E-09 Convergence criterion met
 Total energy in the final basis set = -766.87251505
   13    -766.8729637941      4.55E-09 Convergence criterion met
    8    -766.8725803027      3.97E-09 Convergence criterion met
 Total energy in the final basis set = -766.87258030
    8    -766.8725806282      2.33E-09 Convergence criterion met
 Total energy in the final basis set = -766.87258063
    7    -766.8725806604      6.20E-09 Convergence criterion met
 Total energy in the final basis set = -766.87258066
    7    -766.8725806504      3.13E-09 Convergence criterion met
 Total energy in the final basis set = -766.87258065
    5    -766.8725806370      9.75E-09 Convergence criterion met
 Total energy in the final basis set = -766.87258064
    4    -766.8725806296      8.06E-09 Convergence criterion met
 Total energy in the final basis set = -766.87258063
 Final energy is   -766.872580629627
 **  OPTIMIZATION CONVERGED  **
 Total job time:  4055.38s(wall), 64689.66s(cpu)
        *  Thank you very much for using Q-Chem.  Have a nice day.  *

User input: 2 of 2

r0174.ten.osc.edu 10.25.155
Q-Chem Developer Version! Running on 10.25.155.*
                  Welcome to Q-Chem
     A Quantum Leap Into The Future Of Chemistry

 Q-Chem 5.0, Q-Chem, Inc., Pleasanton, CA (2017)

 Yihan Shao,  Zhengting Gan,  E. Epifanovsky,  A. T. B. Gilbert,  M. Wormit,
 J. Kussmann,  A. W. Lange,  A. Behn,  Jia Deng,  Xintian Feng,  D. Ghosh,
 M. Goldey,  P. R. Horn,  L. D. Jacobson,  I. Kaliman,  T. Kus,  A. Landau,
 Jie Liu,  E. I. Proynov,  R. M. Richard,  R. P. Steele,  E. J. Sundstrom,
 H. L. Woodcock III,  P. M. Zimmerman,  D. Zuev,  B. Albrecht,  E. Alguire,
 S. A. Baeppler,  Z. Benda,  Y. A. Bernard,  E. J. Berquist,  K. B. Bravaya,
 D. Casanova,  Chun-Min Chang,  Yunqing Chen,  A. Chien,  K. D. Closser,
 M. P. Coons,  S. Dasgupta,  M. Diedenhofen,  Hainam Do,  R. G. Edgar,
 Po-Tung Fang,  S. Fatehi,  Qingguo Feng,  Qinghui Ge,  A. Ghysels,
 J. Gomes,  J. Gonthier,  A. Gunina,  M. W. D. Hanson-Heine,
 P. H. P. Harbach,  A. W. Hauser,  J. E. Herr,  E. G. Hohenstein,
 Z. C. Holden,  Kerwin Hui,  T.-C. Jagau,  Hyunjun Ji,  B. Kaduk,
 K. Khistyaev,  Jaehoon Kim,  P. Klunzinger,  K. Koh,  D. Kosenkov,
 T. Kowalczyk,  C. M. Krauter,  A. Kunitsa,  Ka Un Lao,  A. Laurent,
 K. V. Lawler,  Joonho Lee,  D. Lefrancois,  S. Lehtola,  D. S. Levine,
 Yi-Pei Li,  You-Sheng Lin,  Fenglai Liu,  E. Livshits,  A. Luenser,
 P. Manohar,  E. Mansoor,  S. F. Manzer,  Shan-Ping Mao,  Yuezhi Mao,
 N. Mardirossian,  A. V. Marenich,  L. A. Martinez-Martinez,  S. A. Maurer,
 N. J. Mayhall,  S. C. McKenzie,  J.-M. Mewes,  A. F. Morrison,  K. Nanda,
 T. S. Nguyen-Beck,  R. Olivares-Amaya,  J. A. Parkhill,  T. M. Perrine,
 F. Plasser,  S. Prager,  A. Prociuk,  D. R. Rehn,  F. Rob,  M. Schneider,
 N. Sergueev,  S. M. Sharada,  S. Sharma,  D. W. Small,  T. Stauch,
 T. Stein,  Yu-Chuan Su,  A. J. W. Thom,  T. Tsuchimochi,  L. Vogt,
 O. Vydrov,  M. A. Watson,  J. Wenzel,  M. de Wergifosse,  T. A. Wesolowski,
 A. White,  J. Witte,  A. Yamada,  Jun Yang,  K. Yao,  S. Yeganeh,
 S. R. Yost,  Zhi-Qiang You,  A. Zech,  Igor Ying Zhang,  Xing Zhang,
 Yan Zhao,  Ying Zhu,  B. R. Brooks,  G. K. L. Chan,  C. J. Cramer,
 M. S. Gordon,  W. J. Hehre,  A. Klamt,  M. W. Schmidt,  C. D. Sherrill,
 D. G. Truhlar,  A. Aspuru-Guzik,  R. Baer,  A. T. Bell,  N. A. Besley,
 Jeng-Da Chai,  A. Dreuw,  B. D. Dunietz,  T. R. Furlani,  Chao-Ping Hsu,
 Yousung Jung,  Jing Kong,  D. S. Lambrecht,  WanZhen Liang,  C. Ochsenfeld,
 V. A. Rassolov,  L. V. Slipchenko,  J. E. Subotnik,  T. Van Voorhis,
 J. M. Herbert,  A. I. Krylov,  P. M. W. Gill,  M. Head-Gordon

 Contributors to earlier versions of Q-Chem not listed above:
 R. D. Adamson,  B. Austin,  J. Baker,  G. J. O. Beran,  K. Brandhorst,
 S. T. Brown,  E. F. C. Byrd,  A. K. Chakraborty,  C.-L. Cheng,
 Siu Hung Chien,  D. M. Chipman,  D. L. Crittenden,  H. Dachsel,
 R. A. DiStasio Jr.,  R. J. Doerksen,  A. D. Dutoi,  L. Fusti-Molnar,
 W. A. Goddard III,  A. Golubeva-Zadorozhnaya,  S. R. Gwaltney,  G. Hawkins,
 A. Heyden,  S. Hirata,  G. Kedziora,  F. J. Keil,  C. Kelley,  Jihan Kim,
 R. A. King,  R. Z. Khaliullin,  P. P. Korambath,  W. Kurlancheek,
 A. M. Lee,  M. S. Lee,  S. V. Levchenko,  Ching Yeh Lin,  D. Liotard,
 R. C. Lochan,  I. Lotan,  P. E. Maslen,  N. Nair,  D. P. O'Neill,
 D. Neuhauser,  E. Neuscamman,  C. M. Oana,  R. Olson,  B. Peters,
 R. Peverati,  P. A. Pieniazek,  Y. M. Rhee,  J. Ritchie,  M. A. Rohrdanz,
 E. Rosta,  N. J. Russ,  H. F. Schaefer III,  N. E. Schultz,  N. Shenvi,
 A. C. Simmonett,  A. Sodt,  D. Stuck,  K. S. Thanthiriwatte,  V. Vanovschi,
 Tao Wang,  A. Warshel,  C. F. Williams,  Q. Wu,  X. Xu,  W. Zhang

 Please cite Q-Chem as follows:
 Y. Shao et al., Mol. Phys. 113, 184-215 (2015)
 DOI: 10.1080/00268976.2014.952696

 Q-Chem 5.0.1 for Intel X86 EM64T Linux

 Parts of Q-Chem use Armadillo 5.200.1 (Boston Tea Smuggler).
 http://arma.sourceforge.net/

 Q-Chem begins on Mon Oct 16 00:20:42 2017

Host: r0174.ten.osc.edu
0

     Scratch files written to /tmp/pbstmp.1310590/01//
Processing $rem in /users/PAS0291/osu6415/.qchemrc.
molden_format             true
The previous job contains 0 fragments, simply inherited here

Checking the input file for inconsistencies... 	...done.

--------------------------------------------------------------
User input:
--------------------------------------------------------------

$molecule
read
$end

$rem
sym_ignore      true
scf_guess       read
jobtype         freq
method          b3lyp
basis           6-311++G(d,p)
dft_d           d3_op
mem_total       62000
MEM_STATIC      4000
ao2mo_disk      350000
max_scf_cycles  200
$end
--------------------------------------------------------------

             Standard Nuclear Orientation (Angstroms)
    I     Atom           X                Y                Z
 ----------------------------------------------------------------
    1      C      -0.0793818891    -0.7445553886    -0.0922571374
    2      C      -0.9188565697     0.3871792536     0.0108007465
    3      C       1.4168883387    -0.6636289586    -0.2523311412
    4      C      -0.3624568047     1.7740430502    -0.0309253984
    5      O       2.0279395678    -0.6600197829     0.9479693809
    6      O       1.9974719868    -0.7205474683    -1.3069562464
    7      O       0.9814990903     1.7870778340    -0.1423024039
    8      O      -1.0111470502     2.7951677557     0.0172782297
    9      C       1.6061327946     3.0759178665    -0.2442567981
   10      C       3.4656578960    -0.6234417000     0.9166853567
   11      C      -0.6025584832    -2.0467258373    -0.0805482160
   12      C      -1.9819114780    -2.1966373091     0.0516617620
   13      C      -2.8152791993    -1.0936096674     0.1602766299
   14      C      -2.3202250328     0.2115279218     0.1381698346
   15      H       1.1988602891     3.6297733415    -1.0908208676
   16      H       3.8608106113    -1.4898733872     0.3839245526
   17      H      -3.8843038985    -1.2434651860     0.2635137132
   18      H       1.4490192586     3.6487158761     0.6711929302
   19      H       2.6638830493     2.8711955408    -0.3941841913
   20      H       3.7791535180    -0.6355705647     1.9581270061
   21      H       3.8082424424     0.2872315294     0.4225458737
   22      H      -2.4079739677    -3.1945225999     0.0683837083
   23      C      -3.3185030441     1.3392264710     0.2517764221
   24      C       0.2839402571    -3.2619460116    -0.2218396533
   25      H       0.7387485102    -3.3031340171    -1.2153060109
   26      H      -0.2929338157    -4.1762565893    -0.0739140904
   27      H       1.0964819987    -3.2547629619     0.5098806848
   28      H      -3.2900366610     1.9924470280    -0.6216800034
   29      H      -3.1158821419     1.9768349211     1.1139290625
   30      H      -4.3245161232     0.9256995602     0.3494551743
 ----------------------------------------------------------------

    3    -766.8725806296      1.23E-09 Convergence criterion met
 Total energy in the final basis set = -766.87258063

                    Orbital Energies (a.u.)
 --------------------------------------------------------------

 Alpha MOs
 -- Occupied --
-19.174 -19.174 -19.116 -19.115 -10.311 -10.310 -10.231 -10.231
-10.207 -10.207 -10.203 -10.200 -10.189 -10.184 -10.175 -10.164
 -1.120  -1.113  -1.029  -1.027  -0.884  -0.808  -0.794  -0.747
 -0.733  -0.725  -0.675  -0.648  -0.617  -0.578  -0.566  -0.535
 -0.516  -0.513  -0.494  -0.483  -0.482  -0.477  -0.467  -0.441
 -0.436  -0.427  -0.424  -0.412  -0.410  -0.402  -0.400  -0.385
 -0.379  -0.371  -0.361  -0.358  -0.354  -0.322  -0.309  -0.294
 -0.285  -0.269  -0.252

          Ground-State Mulliken Net Atomic Charges

     Atom                 Charge (a.u.)
  ----------------------------------------
      1 C                     0.143724
      2 C                     0.186593
      3 C                    -0.956974
      4 C                    -0.067716
      5 O                     0.113048
      6 O                    -0.097957
      7 O                    -0.127504
      8 O                    -0.240588
      9 C                    -0.197427
     10 C                    -0.175609
     11 C                     0.680428
     12 C                    -0.632918
     13 C                    -0.366000
     14 C                     0.415658
     15 H                     0.186261
     16 H                     0.171529
     17 H                     0.132564
     18 H                     0.191425
     19 H                     0.148244
     20 H                     0.155540
     21 H                     0.163896
     22 H                     0.123867
     23 C                    -0.506978
     24 C                    -0.457856
     25 H                     0.193287
     26 H                     0.169944
     27 H                     0.157304
     28 H                     0.178949
     29 H                     0.176953
     30 H                     0.138313
  ----------------------------------------
  Sum of atomic charges =     0.000000

                    Cartesian Multipole Moments
 -----------------------------------------------------------------
    Charge (ESU x 10^10)
                 0.0000
    Dipole Moment (Debye)
         X       0.9133      Y      -1.2028      Z       1.5492
       Tot       2.1635
    Quadrupole Moments (Debye-Ang)
        XX     -82.3979     XY       8.2139     YY     -89.0245
        XZ       5.0315     YZ      -1.7676     ZZ     -99.7345

 Frequency:       -44.42                  49.38                  71.42
 Force Cnst:      0.0089                 0.0054                 0.0103
 Red. Mass:       7.6677                 3.7632                 3.4261
 IR Intens:        1.686                  0.209                  1.885
 Frequency:       103.52                 108.85                 115.95
 Force Cnst:      0.0096                 0.0138                 0.0196
 Red. Mass:       1.5277                 1.9701                 2.4788
 IR Intens:        0.245                  4.758                  0.480
 Frequency:       130.06                 144.11                 148.23
 Force Cnst:      0.0198                 0.0180                 0.0205
 Red. Mass:       1.9853                 1.4730                 1.5838
 IR Intens:        1.407                  0.873                  0.593
 Frequency:       159.78                 187.45                 229.83
 Force Cnst:      0.0287                 0.1019                 0.0329
 Red. Mass:       1.9047                 4.9225                 1.0572
 IR Intens:        0.514                  0.211                  0.292
 Frequency:       245.66                 266.08                 300.45
 Force Cnst:      0.1771                 0.2608                 0.2121
 Red. Mass:       4.9820                 6.2527                 3.9879
 IR Intens:        3.086                  0.281                  7.634
 Frequency:       307.84                 316.75                 354.28
 Force Cnst:      0.1888                 0.1941                 0.3084
 Red. Mass:       3.3821                 3.2834                 4.1697
 IR Intens:        1.465                  1.618                 10.194
 Frequency:       386.61                 393.41                 421.50
 Force Cnst:      0.4409                 0.4925                 0.5357
 Red. Mass:       5.0069                 5.4009                 5.1180
 IR Intens:        8.877                  6.502                  0.135
 Frequency:       485.50                 510.99                 526.52
 Force Cnst:      0.6633                 0.5958                 0.6268
 Red. Mass:       4.7761                 3.8727                 3.8376
 IR Intens:        1.306                  8.617                  7.120
 Frequency:       613.07                 718.09                 733.38
 Force Cnst:      0.9254                 1.7926                 2.0309
 Red. Mass:       4.1791                 5.9003                 6.4088
 IR Intens:        5.468                  0.194                 13.041
 Frequency:       742.79                 798.50                 805.49
 Force Cnst:      2.2134                 2.2364                 2.1127
 Red. Mass:       6.8090                 5.9531                 5.5267
 IR Intens:       15.111                  1.245                 16.839
 Frequency:       814.73                 831.85                 897.94
 Force Cnst:      1.9398                 0.5751                 2.5884
 Red. Mass:       4.9599                 1.4107                 5.4487
 IR Intens:       13.982                 11.809                  5.779
 Frequency:       921.94                 970.69                 988.63
 Force Cnst:      2.2344                 0.7495                 3.0354
 Red. Mass:       4.4618                 1.3501                 5.2710
 IR Intens:        7.544                  0.348                 15.772
 Frequency:       998.34                1048.24                1057.91
 Force Cnst:      1.4030                 0.9761                 1.1862
 Red. Mass:       2.3891                 1.5077                 1.7990
 IR Intens:        5.306                  8.942                 16.525
 Frequency:      1063.41                1065.76                1132.45
 Force Cnst:      1.3841                 1.0224                 4.2554
 Red. Mass:       2.0773                 1.5278                 5.6319
 IR Intens:       39.140                  3.923                 82.427
 Frequency:      1167.88                1171.80                1187.38
 Force Cnst:      1.0358                 1.0328                 1.2809
 Red. Mass:       1.2890                 1.2767                 1.5420
 IR Intens:        0.869                  0.814                 83.917
 Frequency:      1201.87                1210.77                1222.25
 Force Cnst:      1.5374                 1.4263                 2.3609
 Red. Mass:       1.8064                 1.6514                 2.6822
 IR Intens:       23.549                 26.999                243.673
 Frequency:      1274.18                1280.34                1289.17
 Force Cnst:      1.9666                 4.8454                 5.1487
 Red. Mass:       2.0559                 5.0168                 5.2581
 IR Intens:       67.752                212.437                227.287
 Frequency:      1312.41                1419.80                1421.54
 Force Cnst:      6.5157                 2.0941                 1.4761
 Red. Mass:       6.4205                 1.7632                 1.2397
 IR Intens:       74.199                 25.089                  3.280
 Frequency:      1427.84                1466.53                1472.00
 Force Cnst:      2.1670                 1.5537                 1.5560
 Red. Mass:       1.8040                 1.2261                 1.2188
 IR Intens:       21.458                 18.189                 29.278
 Frequency:      1478.54                1481.13                1483.35
 Force Cnst:      1.5034                 1.3529                 1.4177
 Red. Mass:       1.1672                 1.0467                 1.0936
 IR Intens:        5.737                  5.920                 11.136
 Frequency:      1484.38                1490.24                1494.47
 Force Cnst:      1.7085                 1.4560                 1.7982
 Red. Mass:       1.3160                 1.1127                 1.3665
 IR Intens:       17.930                  5.370                  0.779
 Frequency:      1495.44                1498.55                1505.39
 Force Cnst:      1.4424                 1.3965                 1.5405
 Red. Mass:       1.0947                 1.0555                 1.1538
 IR Intens:        8.282                  7.616                 16.835
 Frequency:      1604.97                1629.77                1759.69
 Force Cnst:      7.6777                10.9684                20.5388
 Red. Mass:       5.0588                 7.0087                11.2577
 IR Intens:       24.522                  1.464                318.453
 Frequency:      1785.95                3034.45                3043.19
 Force Cnst:     22.3243                 5.6213                 5.6548
 Red. Mass:      11.8793                 1.0361                 1.0364
 IR Intens:      240.678                 22.236                 27.125
 Frequency:      3047.47                3050.89                3088.92
 Force Cnst:      5.6344                 5.6464                 6.1868
 Red. Mass:       1.0297                 1.0296                 1.1005
 IR Intens:       31.105                 41.164                  8.684
 Frequency:      3108.41                3109.46                3110.44
 Force Cnst:      6.2589                 6.2775                 6.2844
 Red. Mass:       1.0994                 1.1020                 1.1025
 IR Intens:        7.440                 14.196                 20.123
 Frequency:      3119.15                3124.78                3156.80
 Force Cnst:      6.3440                 6.3682                 6.4946
 Red. Mass:       1.1067                 1.1069                 1.1061
 IR Intens:       19.428                 16.253                 15.578
 Frequency:      3157.11                3161.65                3179.94
 Force Cnst:      6.4963                 6.4043                 6.5206
 Red. Mass:       1.1062                 1.0874                 1.0945
 IR Intens:       10.516                  8.271                 20.705

 STANDARD THERMODYNAMIC QUANTITIES AT   298.15 K  AND     1.00 ATM

   This Molecule has  1 Imaginary Frequencies
   Zero point vibrational energy:      150.645 kcal/mol

   Atom    1 Element C  Has Mass   12.00000
   Atom    2 Element C  Has Mass   12.00000
   Atom    3 Element C  Has Mass   12.00000
   Atom    4 Element C  Has Mass   12.00000
   Atom    5 Element O  Has Mass   15.99491
   Atom    6 Element O  Has Mass   15.99491
   Atom    7 Element O  Has Mass   15.99491
   Atom    8 Element O  Has Mass   15.99491
   Atom    9 Element C  Has Mass   12.00000
   Atom   10 Element C  Has Mass   12.00000
   Atom   11 Element C  Has Mass   12.00000
   Atom   12 Element C  Has Mass   12.00000
   Atom   13 Element C  Has Mass   12.00000
   Atom   14 Element C  Has Mass   12.00000
   Atom   15 Element H  Has Mass    1.00783
   Atom   16 Element H  Has Mass    1.00783
   Atom   17 Element H  Has Mass    1.00783
   Atom   18 Element H  Has Mass    1.00783
   Atom   19 Element H  Has Mass    1.00783
   Atom   20 Element H  Has Mass    1.00783
   Atom   21 Element H  Has Mass    1.00783
   Atom   22 Element H  Has Mass    1.00783
   Atom   23 Element C  Has Mass   12.00000
   Atom   24 Element C  Has Mass   12.00000
   Atom   25 Element H  Has Mass    1.00783
   Atom   26 Element H  Has Mass    1.00783
   Atom   27 Element H  Has Mass    1.00783
   Atom   28 Element H  Has Mass    1.00783
   Atom   29 Element H  Has Mass    1.00783
   Atom   30 Element H  Has Mass    1.00783
   Molecular Mass:   222.089260 amu
   Principal axes and moments of inertia in amu*Bohr^2:
                             1           2           3
    Eigenvalues --     2834.61178  3219.19705  5587.57969
          X               0.98887     0.14877     0.00038
          Y              -0.14877     0.98887     0.00190
          Z              -0.00009    -0.00194     1.00000
   Rotational Symmetry Number is   1
   The Molecule is an Asymmetric Top
   Translational Enthalpy:        0.889 kcal/mol
   Rotational Enthalpy:           0.889 kcal/mol
   Vibrational Enthalpy:        158.776 kcal/mol
   gas constant (RT):             0.592 kcal/mol
   Translational Entropy:        42.096  cal/mol.K
   Rotational Entropy:           32.300  cal/mol.K
   Vibrational Entropy:          50.852  cal/mol.K

   Total Enthalpy:              161.146 kcal/mol
   Total Entropy:               125.248  cal/mol.K

 Total job time:  6570.05s(wall), 23997.64s(cpu)
        *  Thank you very much for using Q-Chem.  Have a nice day.  *
