 Q-Chem 5.0, Q-Chem, Inc., Pleasanton, CA (2017)
 Q-Chem 5.0.1 for Intel X86 EM64T Linux

User input:
--------------------------------------------------------------
$molecule
0 1
C -0.54471367 -0.68991726 -0.06626207
C -0.55485096 0.71257879 0.06077630
C 0.74744976 -1.44665703 -0.08093946
C 0.73143626 1.47729190 0.07028362
O 1.54337138 -1.07345559 0.94471805
O 1.03628479 -2.31935749 -0.86309044
O 1.53286376 1.08551033 -0.94468701
O 1.01783547 2.35861830 0.84340325
C 2.82940031 1.70387131 -1.00253956
C 2.82880993 -1.71524764 1.00930436
C -1.74551169 -1.41905368 -0.13173018
C -2.94011863 -0.69996807 -0.06147034
C -2.95067667 0.68253670 0.06563983
C -1.76734948 1.42081732 0.13097013
H 2.73303410 2.78412826 -1.11957691
H 2.71151331 -2.79399297 1.12228632
H -3.89989245 1.20560342 0.11142001
H 3.39198635 1.49174067 -0.09139902
H 3.31961989 1.26554297 -1.86896596
H 3.32087816 -1.28897125 1.88057560
H 3.40145158 -1.51181819 0.10256129
H -3.88079993 -1.23886770 -0.10337154
C -1.83186010 2.92401867 0.25616748
C -1.79021059 -2.92458083 -0.25638458
H -1.41323052 -3.25319390 -1.22674062
H -2.81604056 -3.27960666 -0.14263577
H -1.17631300 -3.41560740 0.50300011
H -1.22834759 3.42147662 -0.50719957
H -1.45215155 3.25611490 1.22423866
H -2.86276471 3.26606838 0.14934708
$end

$rem
sym_ignore      true
jobtype         opt
method          b3lyp
basis           6-311++G(d,p)
dft_d           d3_op
mem_total       62000
MEM_STATIC      4000
ao2mo_disk      350000
max_scf_cycles  200
geom_opt_max_cycles 1000
geom_opt_tol_displacement 1
GEOM_OPT_TOL_GRADIENT       1
GEOM_OPT_TOL_ENERGY         1
$end

--------------------------------------------------------------

   15    -766.8762837057      4.15E-09 Convergence criterion met
 Total energy in the final basis set = -766.87628371
   11    -766.8762841913      5.55E-09 Convergence criterion met
 Total energy in the final basis set = -766.87628419
   11    -766.8762752409      7.07E-09 Convergence criterion met
 Total energy in the final basis set = -766.87627524
   11    -766.8762734145      6.00E-09 Convergence criterion met
 Total energy in the final basis set = -766.87627341
   11    -766.8762932610      7.00E-09 Convergence criterion met
 Total energy in the final basis set = -766.87629326
   11    -766.8762462416      8.49E-09 Convergence criterion met
 Total energy in the final basis set = -766.87624624
   11    -766.8762912283      6.19E-09 Convergence criterion met
 Total energy in the final basis set = -766.87629123
    8    -766.8762908729      8.70E-09 Convergence criterion met
    7    -766.8762882302      4.65E-09 Convergence criterion met
 Total energy in the final basis set = -766.87628823
    6    -766.8762883427      6.60E-09 Convergence criterion met
 Total energy in the final basis set = -766.87628834
    5    -766.8762883861      6.22E-09 Convergence criterion met
 Total energy in the final basis set = -766.87628839
    5    -766.8762884108      3.51E-09 Convergence criterion met
 Total energy in the final basis set = -766.87628841
    4    -766.8762884264      4.90E-09 Convergence criterion met
 Total energy in the final basis set = -766.87628843
    2    -766.8762884350      9.57E-09 Convergence criterion met
 Total energy in the final basis set = -766.87628844
 Final energy is   -766.876288435003
 **  OPTIMIZATION CONVERGED  **
 Total job time:  825.05s(wall), 12854.91s(cpu)
        *  Thank you very much for using Q-Chem.  Have a nice day.  *

User input: 2 of 2

r0178.ten.osc.edu 10.25.155
Q-Chem Developer Version! Running on 10.25.155.*
                  Welcome to Q-Chem
     A Quantum Leap Into The Future Of Chemistry

 Q-Chem 5.0, Q-Chem, Inc., Pleasanton, CA (2017)

 Yihan Shao,  Zhengting Gan,  E. Epifanovsky,  A. T. B. Gilbert,  M. Wormit,
 J. Kussmann,  A. W. Lange,  A. Behn,  Jia Deng,  Xintian Feng,  D. Ghosh,
 M. Goldey,  P. R. Horn,  L. D. Jacobson,  I. Kaliman,  T. Kus,  A. Landau,
 Jie Liu,  E. I. Proynov,  R. M. Richard,  R. P. Steele,  E. J. Sundstrom,
 H. L. Woodcock III,  P. M. Zimmerman,  D. Zuev,  B. Albrecht,  E. Alguire,
 S. A. Baeppler,  Z. Benda,  Y. A. Bernard,  E. J. Berquist,  K. B. Bravaya,
 D. Casanova,  Chun-Min Chang,  Yunqing Chen,  A. Chien,  K. D. Closser,
 M. P. Coons,  S. Dasgupta,  M. Diedenhofen,  Hainam Do,  R. G. Edgar,
 Po-Tung Fang,  S. Fatehi,  Qingguo Feng,  Qinghui Ge,  A. Ghysels,
 J. Gomes,  J. Gonthier,  A. Gunina,  M. W. D. Hanson-Heine,
 P. H. P. Harbach,  A. W. Hauser,  J. E. Herr,  E. G. Hohenstein,
 Z. C. Holden,  Kerwin Hui,  T.-C. Jagau,  Hyunjun Ji,  B. Kaduk,
 K. Khistyaev,  Jaehoon Kim,  P. Klunzinger,  K. Koh,  D. Kosenkov,
 T. Kowalczyk,  C. M. Krauter,  A. Kunitsa,  Ka Un Lao,  A. Laurent,
 K. V. Lawler,  Joonho Lee,  D. Lefrancois,  S. Lehtola,  D. S. Levine,
 Yi-Pei Li,  You-Sheng Lin,  Fenglai Liu,  E. Livshits,  A. Luenser,
 P. Manohar,  E. Mansoor,  S. F. Manzer,  Shan-Ping Mao,  Yuezhi Mao,
 N. Mardirossian,  A. V. Marenich,  L. A. Martinez-Martinez,  S. A. Maurer,
 N. J. Mayhall,  S. C. McKenzie,  J.-M. Mewes,  A. F. Morrison,  K. Nanda,
 T. S. Nguyen-Beck,  R. Olivares-Amaya,  J. A. Parkhill,  T. M. Perrine,
 F. Plasser,  S. Prager,  A. Prociuk,  D. R. Rehn,  F. Rob,  M. Schneider,
 N. Sergueev,  S. M. Sharada,  S. Sharma,  D. W. Small,  T. Stauch,
 T. Stein,  Yu-Chuan Su,  A. J. W. Thom,  T. Tsuchimochi,  L. Vogt,
 O. Vydrov,  M. A. Watson,  J. Wenzel,  M. de Wergifosse,  T. A. Wesolowski,
 A. White,  J. Witte,  A. Yamada,  Jun Yang,  K. Yao,  S. Yeganeh,
 S. R. Yost,  Zhi-Qiang You,  A. Zech,  Igor Ying Zhang,  Xing Zhang,
 Yan Zhao,  Ying Zhu,  B. R. Brooks,  G. K. L. Chan,  C. J. Cramer,
 M. S. Gordon,  W. J. Hehre,  A. Klamt,  M. W. Schmidt,  C. D. Sherrill,
 D. G. Truhlar,  A. Aspuru-Guzik,  R. Baer,  A. T. Bell,  N. A. Besley,
 Jeng-Da Chai,  A. Dreuw,  B. D. Dunietz,  T. R. Furlani,  Chao-Ping Hsu,
 Yousung Jung,  Jing Kong,  D. S. Lambrecht,  WanZhen Liang,  C. Ochsenfeld,
 V. A. Rassolov,  L. V. Slipchenko,  J. E. Subotnik,  T. Van Voorhis,
 J. M. Herbert,  A. I. Krylov,  P. M. W. Gill,  M. Head-Gordon

 Contributors to earlier versions of Q-Chem not listed above:
 R. D. Adamson,  B. Austin,  J. Baker,  G. J. O. Beran,  K. Brandhorst,
 S. T. Brown,  E. F. C. Byrd,  A. K. Chakraborty,  C.-L. Cheng,
 Siu Hung Chien,  D. M. Chipman,  D. L. Crittenden,  H. Dachsel,
 R. A. DiStasio Jr.,  R. J. Doerksen,  A. D. Dutoi,  L. Fusti-Molnar,
 W. A. Goddard III,  A. Golubeva-Zadorozhnaya,  S. R. Gwaltney,  G. Hawkins,
 A. Heyden,  S. Hirata,  G. Kedziora,  F. J. Keil,  C. Kelley,  Jihan Kim,
 R. A. King,  R. Z. Khaliullin,  P. P. Korambath,  W. Kurlancheek,
 A. M. Lee,  M. S. Lee,  S. V. Levchenko,  Ching Yeh Lin,  D. Liotard,
 R. C. Lochan,  I. Lotan,  P. E. Maslen,  N. Nair,  D. P. O'Neill,
 D. Neuhauser,  E. Neuscamman,  C. M. Oana,  R. Olson,  B. Peters,
 R. Peverati,  P. A. Pieniazek,  Y. M. Rhee,  J. Ritchie,  M. A. Rohrdanz,
 E. Rosta,  N. J. Russ,  H. F. Schaefer III,  N. E. Schultz,  N. Shenvi,
 A. C. Simmonett,  A. Sodt,  D. Stuck,  K. S. Thanthiriwatte,  V. Vanovschi,
 Tao Wang,  A. Warshel,  C. F. Williams,  Q. Wu,  X. Xu,  W. Zhang

 Please cite Q-Chem as follows:
 Y. Shao et al., Mol. Phys. 113, 184-215 (2015)
 DOI: 10.1080/00268976.2014.952696

 Q-Chem 5.0.1 for Intel X86 EM64T Linux

 Parts of Q-Chem use Armadillo 5.200.1 (Boston Tea Smuggler).
 http://arma.sourceforge.net/

 Q-Chem begins on Sat Oct 14 21:41:39 2017

Host: r0178.ten.osc.edu
0

     Scratch files written to /tmp/pbstmp.1310499/02//
Processing $rem in /users/PAS0291/osu6415/.qchemrc.
molden_format             true
The previous job contains 0 fragments, simply inherited here

Checking the input file for inconsistencies... 	...done.

--------------------------------------------------------------
User input:
--------------------------------------------------------------

$molecule
read
$end

$rem
sym_ignore      true
scf_guess       read
jobtype         freq
method          b3lyp
basis           6-311++G(d,p)
dft_d           d3_op
mem_total       62000
MEM_STATIC      4000
ao2mo_disk      350000
max_scf_cycles  200
$end
--------------------------------------------------------------

             Standard Nuclear Orientation (Angstroms)
    I     Atom           X                Y                Z
 ----------------------------------------------------------------
    1      C      -0.5444396016    -0.6837028511    -0.0668890198
    2      C      -0.5570852353     0.7187834785     0.0549268161
    3      C       0.7496850529    -1.4377602939    -0.0937400068
    4      C       0.7284304699     1.4843648376     0.0659831067
    5      O       1.5364468509    -1.0917579205     0.9481349011
    6      O       1.0470220318    -2.2840483016    -0.9008798978
    7      O       1.5378447049     1.0830136731    -0.9387656546
    8      O       1.0103492089     2.3709730183     0.8347846823
    9      C       2.8344946432     1.7012082036    -0.9935816172
   10      C       2.8231630853    -1.7320780989     1.0047453530
   11      C      -1.7431952207    -1.4161573418    -0.1255184473
   12      C      -2.9395200549    -0.7005626389    -0.0528528993
   13      C      -2.9531266630     0.6825473715     0.0693361349
   14      C      -1.7716081173     1.4240368039     0.1280983662
   15      H       2.7383496778     2.7798945194    -1.1246387646
   16      H       2.7077822099    -2.8131945070     1.0955509499
   17      H      -3.9035361008     1.2032486219     0.1170998179
   18      H       3.3899840548     1.5009255100    -0.0754369991
   19      H       3.3318448410     1.2526856649    -1.8506721818
   20      H       3.3109469105    -1.3228108015     1.8864956944
   21      H       3.3988887301    -1.5093383946     0.1045895216
   22      H      -3.8789161810    -1.2421102242    -0.0898761996
   23      C      -1.8395958836     2.9274628447     0.2483886936
   24      C      -1.7810265740    -2.9222637382    -0.2459034564
   25      H      -1.3975150182    -3.2522338521    -1.2132308823
   26      H      -2.8057189941    -3.2817485546    -0.1362745237
   27      H      -1.1695750927    -3.4077734806     0.5192551083
   28      H      -1.2421371005     3.4235199704    -0.5206507413
   29      H      -1.4550262119     3.2642693816     1.2128387220
   30      H      -2.8721074722     3.2662299802     0.1463824836
 ----------------------------------------------------------------

    3    -766.8762884352      2.38E-09 Convergence criterion met
 Total energy in the final basis set = -766.87628844

                    Orbital Energies (a.u.)
 --------------------------------------------------------------

 Alpha MOs
 -- Occupied --
-19.176 -19.176 -19.119 -19.119 -10.311 -10.311 -10.232 -10.232
-10.205 -10.205 -10.201 -10.201 -10.187 -10.186 -10.171 -10.170
 -1.121  -1.114  -1.031  -1.031  -0.885  -0.807  -0.796  -0.747
 -0.734  -0.725  -0.675  -0.649  -0.620  -0.577  -0.565  -0.537
 -0.517  -0.515  -0.491  -0.489  -0.480  -0.477  -0.469  -0.442
 -0.434  -0.429  -0.420  -0.416  -0.411  -0.406  -0.396  -0.387
 -0.380  -0.373  -0.362  -0.359  -0.357  -0.321  -0.313  -0.293
 -0.292  -0.266  -0.253

          Ground-State Mulliken Net Atomic Charges

     Atom                 Charge (a.u.)
  ----------------------------------------
      1 C                     0.377567
      2 C                     0.373102
      3 C                    -0.499602
      4 C                    -0.443420
      5 O                     0.062113
      6 O                    -0.169199
      7 O                     0.045519
      8 O                    -0.176517
      9 C                    -0.226936
     10 C                    -0.228945
     11 C                     0.475942
     12 C                    -0.669467
     13 C                    -0.669685
     14 C                     0.457286
     15 H                     0.170722
     16 H                     0.170181
     17 H                     0.124312
     18 H                     0.177224
     19 H                     0.169759
     20 H                     0.168021
     21 H                     0.176845
     22 H                     0.124158
     23 C                    -0.518446
     24 C                    -0.511357
     25 H                     0.203601
     26 H                     0.143101
     27 H                     0.175138
     28 H                     0.175139
     29 H                     0.202680
     30 H                     0.141164
  ----------------------------------------
  Sum of atomic charges =     0.000000

                    Cartesian Multipole Moments
 -----------------------------------------------------------------
    Charge (ESU x 10^10)
                -0.0000
    Dipole Moment (Debye)
         X       0.0709      Y      -0.1076      Z       0.0670
       Tot       0.1453
    Quadrupole Moments (Debye-Ang)
        XX     -76.1101     XY      -0.0732     YY     -95.4182
        XZ       0.1111     YZ      -8.9512     ZZ     -99.5335

 Frequency:        39.62                  55.06                  64.80
 Force Cnst:      0.0057                 0.0064                 0.0080
 Red. Mass:       6.1678                 3.5946                 3.2166
 IR Intens:        4.268                  0.458                  0.133
 Frequency:        95.79                 113.11                 117.43
 Force Cnst:      0.0191                 0.0151                 0.0159
 Red. Mass:       3.5313                 2.0034                 1.9577
 IR Intens:        0.092                  0.623                  2.933
 Frequency:       131.76                 134.90                 140.76
 Force Cnst:      0.0271                 0.0130                 0.0135
 Red. Mass:       2.6539                 1.2132                 1.1557
 IR Intens:        3.584                  0.420                  0.146
 Frequency:       150.11                 156.51                 234.50
 Force Cnst:      0.0172                 0.0219                 0.1682
 Red. Mass:       1.2921                 1.5202                 5.1899
 IR Intens:        0.212                  0.778                  0.517
 Frequency:       243.47                 267.45                 295.81
 Force Cnst:      0.1583                 0.2233                 0.3317
 Red. Mass:       4.5333                 5.2994                 6.4345
 IR Intens:        5.609                  1.559                  2.616
 Frequency:       299.01                 320.57                 321.30
 Force Cnst:      0.1639                 0.2172                 0.2321
 Red. Mass:       3.1115                 3.5866                 3.8154
 IR Intens:        0.301                  8.676                  7.295
 Frequency:       370.36                 409.60                 423.33
 Force Cnst:      0.4321                 0.4075                 0.5391
 Red. Mass:       5.3471                 4.1227                 5.1061
 IR Intens:       16.324                  1.669                  0.008
 Frequency:       488.95                 498.88                 552.29
 Force Cnst:      0.6666                 0.4973                 0.7813
 Red. Mass:       4.7328                 3.3917                 4.3473
 IR Intens:        1.158                 10.397                  0.071
 Frequency:       605.31                 716.49                 718.18
 Force Cnst:      0.9842                 1.8120                 1.8425
 Red. Mass:       4.5592                 5.9909                 6.0631
 IR Intens:        7.353                  0.611                  0.357
 Frequency:       742.71                 796.74                 805.12
 Force Cnst:      2.0578                 2.1355                 2.1874
 Red. Mass:       6.3315                 5.7098                 5.7273
 IR Intens:       27.013                  3.069                 17.018
 Frequency:       818.72                 830.29                 905.86
 Force Cnst:      3.1734                 0.5216                 2.6249
 Red. Mass:       8.0353                 1.2842                 5.4294
 IR Intens:        3.118                 17.700                  6.688
 Frequency:       919.33                 969.85                 983.89
 Force Cnst:      2.2904                 0.7347                 3.9418
 Red. Mass:       4.5997                 1.3257                 6.9112
 IR Intens:        0.125                  0.004                 12.011
 Frequency:       995.70                1049.51                1058.61
 Force Cnst:      1.2741                 0.9234                 1.0288
 Red. Mass:       2.1813                 1.4229                 1.5582
 IR Intens:        2.858                  3.578                  5.085
 Frequency:      1062.51                1063.59                1128.38
 Force Cnst:      1.0320                 1.8718                 4.5515
 Red. Mass:       1.5515                 2.8084                 6.0673
 IR Intens:        5.068                 70.551                104.054
 Frequency:      1169.75                1172.06                1186.18
 Force Cnst:      1.0380                 1.0394                 1.2045
 Red. Mass:       1.2875                 1.2842                 1.4529
 IR Intens:        0.119                  2.359                 64.883
 Frequency:      1201.18                1210.04                1220.14
 Force Cnst:      1.7230                 1.3423                 2.5101
 Red. Mass:       2.0269                 1.5560                 2.8617
 IR Intens:       45.393                 24.500                263.523
 Frequency:      1278.41                1285.95                1288.97
 Force Cnst:      1.7478                 6.1275                 4.9672
 Red. Mass:       1.8151                 6.2891                 5.0743
 IR Intens:        2.096                113.230                266.989
 Frequency:      1320.12                1420.15                1421.90
 Force Cnst:      6.6832                 1.6350                 1.4757
 Red. Mass:       6.5089                 1.3759                 1.2389
 IR Intens:       69.316                  8.972                  6.175
 Frequency:      1427.79                1467.88                1471.01
 Force Cnst:      2.9892                 1.5221                 1.5498
 Red. Mass:       2.4887                 1.1990                 1.2156
 IR Intens:       25.183                  9.871                 36.285
 Frequency:      1482.87                1482.95                1484.08
 Force Cnst:      1.3679                 1.4070                 1.3768
 Red. Mass:       1.0559                 1.0859                 1.0609
 IR Intens:        3.433                  9.103                 21.624
 Frequency:      1487.23                1491.48                1494.90
 Force Cnst:      1.3736                 1.4695                 1.3807
 Red. Mass:       1.0541                 1.1212                 1.0487
 IR Intens:        0.003                  3.433                 16.157
 Frequency:      1497.73                1503.69                1504.44
 Force Cnst:      1.3840                 1.5529                 3.3168
 Red. Mass:       1.0472                 1.1657                 2.4872
 IR Intens:        3.712                 11.178                  4.509
 Frequency:      1608.78                1631.93                1779.83
 Force Cnst:      8.2053                11.1197                22.0075
 Red. Mass:       5.3809                 7.0867                11.7914
 IR Intens:       11.448                  0.169                528.443
 Frequency:      1781.87                3039.82                3041.03
 Force Cnst:     21.8771                 5.6430                 5.6456
 Red. Mass:      11.6947                 1.0365                 1.0361
 IR Intens:       19.650                 23.440                 21.823
 Frequency:      3047.38                3048.49                3096.51
 Force Cnst:      5.6354                 5.6402                 6.2093
 Red. Mass:       1.0300                 1.0301                 1.0991
 IR Intens:       12.114                 53.325                 12.522
 Frequency:      3098.29                3113.19                3113.68
 Force Cnst:      6.2183                 6.2985                 6.3011
 Red. Mass:       1.0995                 1.1030                 1.1031
 IR Intens:       11.978                 12.373                 14.589
 Frequency:      3118.95                3120.43                3157.36
 Force Cnst:      6.3428                 6.3490                 6.4963
 Red. Mass:       1.1067                 1.1067                 1.1060
 IR Intens:       36.098                  2.906                  8.152
 Frequency:      3157.94                3159.24                3176.09
 Force Cnst:      6.4985                 6.3949                 6.5069
 Red. Mass:       1.1060                 1.0875                 1.0948
 IR Intens:       13.014                  8.280                 20.835

 STANDARD THERMODYNAMIC QUANTITIES AT   298.15 K  AND     1.00 ATM

   This Molecule has  0 Imaginary Frequencies
   Zero point vibrational energy:      150.617 kcal/mol

   Atom    1 Element C  Has Mass   12.00000
   Atom    2 Element C  Has Mass   12.00000
   Atom    3 Element C  Has Mass   12.00000
   Atom    4 Element C  Has Mass   12.00000
   Atom    5 Element O  Has Mass   15.99491
   Atom    6 Element O  Has Mass   15.99491
   Atom    7 Element O  Has Mass   15.99491
   Atom    8 Element O  Has Mass   15.99491
   Atom    9 Element C  Has Mass   12.00000
   Atom   10 Element C  Has Mass   12.00000
   Atom   11 Element C  Has Mass   12.00000
   Atom   12 Element C  Has Mass   12.00000
   Atom   13 Element C  Has Mass   12.00000
   Atom   14 Element C  Has Mass   12.00000
   Atom   15 Element H  Has Mass    1.00783
   Atom   16 Element H  Has Mass    1.00783
   Atom   17 Element H  Has Mass    1.00783
   Atom   18 Element H  Has Mass    1.00783
   Atom   19 Element H  Has Mass    1.00783
   Atom   20 Element H  Has Mass    1.00783
   Atom   21 Element H  Has Mass    1.00783
   Atom   22 Element H  Has Mass    1.00783
   Atom   23 Element C  Has Mass   12.00000
   Atom   24 Element C  Has Mass   12.00000
   Atom   25 Element H  Has Mass    1.00783
   Atom   26 Element H  Has Mass    1.00783
   Atom   27 Element H  Has Mass    1.00783
   Atom   28 Element H  Has Mass    1.00783
   Atom   29 Element H  Has Mass    1.00783
   Atom   30 Element H  Has Mass    1.00783
   Molecular Mass:   222.089260 amu
   Principal axes and moments of inertia in amu*Bohr^2:
                             1           2           3
    Eigenvalues --     2839.06412  3175.01103  5359.51946
          X               0.99892     0.04625     0.00326
          Y              -0.04618     0.99876    -0.01842
          Z              -0.00410     0.01825     0.99983
   Rotational Symmetry Number is   1
   The Molecule is an Asymmetric Top
   Translational Enthalpy:        0.889 kcal/mol
   Rotational Enthalpy:           0.889 kcal/mol
   Vibrational Enthalpy:        159.374 kcal/mol
   gas constant (RT):             0.592 kcal/mol
   Translational Entropy:        42.096  cal/mol.K
   Rotational Entropy:           32.246  cal/mol.K
   Vibrational Entropy:          56.992  cal/mol.K

   Total Enthalpy:              161.744 kcal/mol
   Total Entropy:               131.334  cal/mol.K

 Total job time:  6542.52s(wall), 23284.73s(cpu)
        *  Thank you very much for using Q-Chem.  Have a nice day.  *
