 Q-Chem 5.0, Q-Chem, Inc., Pleasanton, CA (2017)
 Q-Chem 5.0.1 for Intel X86 EM64T Linux

User input:
--------------------------------------------------------------
$molecule
0 1
C 0.89528193 -0.43584103 -0.01133843
C 0.15180552 0.75909429 -0.11641833
C 0.22671720 -1.77436592 -0.05125389
C -1.34764690 0.78752954 -0.26471245
O -1.10660142 -1.68521028 -0.23955665
O 0.78480932 -2.84361662 0.05316897
O -1.95402633 0.75713621 0.93857107
O -1.92930519 0.93412024 -1.31006791
C -3.39235955 0.78201943 0.91453036
C -1.83200876 -2.92255444 -0.31464752
C 2.30487984 -0.37690873 0.11155769
C 2.90186040 0.88527431 0.13246669
C 2.15890760 2.05320774 0.02914505
C 0.77185215 2.01547318 -0.10182957
H -3.75478866 1.68628190 0.42318968
H -1.44115948 -3.54605852 -1.11951547
H 2.66410807 3.01305003 0.05052315
H -3.77465603 -0.09141052 0.38318493
H -3.70100137 0.76057197 1.95737731
H -2.86254006 -2.63918043 -0.51744357
H -1.75876870 -3.46496756 0.62941165
H 3.97974473 0.94959701 0.23052589
C -0.03208817 3.28830872 -0.22584833
C 3.20133831 -1.58789506 0.21493714
H 2.96071570 -2.19823946 1.08706186
H 4.24247500 -1.26724892 0.28641391
H 3.09426398 -2.24352352 -0.65083624
H -0.80359198 3.34812751 0.54749354
H -0.53685393 3.34147012 -1.19384695
H 0.61235877 4.16286001 -0.12591300
$end

$rem
sym_ignore      true
jobtype         ts
method          b3lyp
basis           6-311++G(d,p)
dft_d           d3_op
mem_total       62000
MEM_STATIC      4000
ao2mo_disk      350000
max_scf_cycles  200
geom_opt_max_cycles 1000
geom_opt_tol_displacement 1
GEOM_OPT_TOL_GRADIENT       1
GEOM_OPT_TOL_ENERGY         1
$end

--------------------------------------------------------------

   15    -766.8726462413      4.95E-09 Convergence criterion met
 Total energy in the final basis set = -766.87264624
   11    -766.8725835561      6.75E-09 Convergence criterion met
 Total energy in the final basis set = -766.87258356
   12    -766.8724681019      3.96E-09 Convergence criterion met
 Total energy in the final basis set = -766.87246810
   12    -766.8722823013      4.96E-09 Convergence criterion met
 Total energy in the final basis set = -766.87228230
   12    -766.8721985764      9.38E-09 Convergence criterion met
 Total energy in the final basis set = -766.87219858
   12    -766.8722910714      5.74E-09 Convergence criterion met
 Total energy in the final basis set = -766.87229107
   12    -766.8721815475      5.31E-09 Convergence criterion met
 Total energy in the final basis set = -766.87218155
   12    -766.8720586808      6.65E-09 Convergence criterion met
    8    -766.8726267360      3.46E-09 Convergence criterion met
 Total energy in the final basis set = -766.87262674
    7    -766.8726268804      9.91E-09 Convergence criterion met
 Total energy in the final basis set = -766.87262688
    5    -766.8726268683      7.40E-09 Convergence criterion met
 Total energy in the final basis set = -766.87262687
    5    -766.8726268804      6.71E-09 Convergence criterion met
 Total energy in the final basis set = -766.87262688
    5    -766.8726268708      4.84E-09 Convergence criterion met
 Total energy in the final basis set = -766.87262687
    4    -766.8726268789      6.77E-09 Convergence criterion met
 Total energy in the final basis set = -766.87262688
 Final energy is   -766.872626878950
 **  OPTIMIZATION CONVERGED  **
 Total job time:  2430.67s(wall), 38315.40s(cpu)
        *  Thank you very much for using Q-Chem.  Have a nice day.  *

User input: 2 of 2

r0175.ten.osc.edu 10.25.155
Q-Chem Developer Version! Running on 10.25.155.*
                  Welcome to Q-Chem
     A Quantum Leap Into The Future Of Chemistry

 Q-Chem 5.0, Q-Chem, Inc., Pleasanton, CA (2017)

 Yihan Shao,  Zhengting Gan,  E. Epifanovsky,  A. T. B. Gilbert,  M. Wormit,
 J. Kussmann,  A. W. Lange,  A. Behn,  Jia Deng,  Xintian Feng,  D. Ghosh,
 M. Goldey,  P. R. Horn,  L. D. Jacobson,  I. Kaliman,  T. Kus,  A. Landau,
 Jie Liu,  E. I. Proynov,  R. M. Richard,  R. P. Steele,  E. J. Sundstrom,
 H. L. Woodcock III,  P. M. Zimmerman,  D. Zuev,  B. Albrecht,  E. Alguire,
 S. A. Baeppler,  Z. Benda,  Y. A. Bernard,  E. J. Berquist,  K. B. Bravaya,
 D. Casanova,  Chun-Min Chang,  Yunqing Chen,  A. Chien,  K. D. Closser,
 M. P. Coons,  S. Dasgupta,  M. Diedenhofen,  Hainam Do,  R. G. Edgar,
 Po-Tung Fang,  S. Fatehi,  Qingguo Feng,  Qinghui Ge,  A. Ghysels,
 J. Gomes,  J. Gonthier,  A. Gunina,  M. W. D. Hanson-Heine,
 P. H. P. Harbach,  A. W. Hauser,  J. E. Herr,  E. G. Hohenstein,
 Z. C. Holden,  Kerwin Hui,  T.-C. Jagau,  Hyunjun Ji,  B. Kaduk,
 K. Khistyaev,  Jaehoon Kim,  P. Klunzinger,  K. Koh,  D. Kosenkov,
 T. Kowalczyk,  C. M. Krauter,  A. Kunitsa,  Ka Un Lao,  A. Laurent,
 K. V. Lawler,  Joonho Lee,  D. Lefrancois,  S. Lehtola,  D. S. Levine,
 Yi-Pei Li,  You-Sheng Lin,  Fenglai Liu,  E. Livshits,  A. Luenser,
 P. Manohar,  E. Mansoor,  S. F. Manzer,  Shan-Ping Mao,  Yuezhi Mao,
 N. Mardirossian,  A. V. Marenich,  L. A. Martinez-Martinez,  S. A. Maurer,
 N. J. Mayhall,  S. C. McKenzie,  J.-M. Mewes,  A. F. Morrison,  K. Nanda,
 T. S. Nguyen-Beck,  R. Olivares-Amaya,  J. A. Parkhill,  T. M. Perrine,
 F. Plasser,  S. Prager,  A. Prociuk,  D. R. Rehn,  F. Rob,  M. Schneider,
 N. Sergueev,  S. M. Sharada,  S. Sharma,  D. W. Small,  T. Stauch,
 T. Stein,  Yu-Chuan Su,  A. J. W. Thom,  T. Tsuchimochi,  L. Vogt,
 O. Vydrov,  M. A. Watson,  J. Wenzel,  M. de Wergifosse,  T. A. Wesolowski,
 A. White,  J. Witte,  A. Yamada,  Jun Yang,  K. Yao,  S. Yeganeh,
 S. R. Yost,  Zhi-Qiang You,  A. Zech,  Igor Ying Zhang,  Xing Zhang,
 Yan Zhao,  Ying Zhu,  B. R. Brooks,  G. K. L. Chan,  C. J. Cramer,
 M. S. Gordon,  W. J. Hehre,  A. Klamt,  M. W. Schmidt,  C. D. Sherrill,
 D. G. Truhlar,  A. Aspuru-Guzik,  R. Baer,  A. T. Bell,  N. A. Besley,
 Jeng-Da Chai,  A. Dreuw,  B. D. Dunietz,  T. R. Furlani,  Chao-Ping Hsu,
 Yousung Jung,  Jing Kong,  D. S. Lambrecht,  WanZhen Liang,  C. Ochsenfeld,
 V. A. Rassolov,  L. V. Slipchenko,  J. E. Subotnik,  T. Van Voorhis,
 J. M. Herbert,  A. I. Krylov,  P. M. W. Gill,  M. Head-Gordon

 Contributors to earlier versions of Q-Chem not listed above:
 R. D. Adamson,  B. Austin,  J. Baker,  G. J. O. Beran,  K. Brandhorst,
 S. T. Brown,  E. F. C. Byrd,  A. K. Chakraborty,  C.-L. Cheng,
 Siu Hung Chien,  D. M. Chipman,  D. L. Crittenden,  H. Dachsel,
 R. A. DiStasio Jr.,  R. J. Doerksen,  A. D. Dutoi,  L. Fusti-Molnar,
 W. A. Goddard III,  A. Golubeva-Zadorozhnaya,  S. R. Gwaltney,  G. Hawkins,
 A. Heyden,  S. Hirata,  G. Kedziora,  F. J. Keil,  C. Kelley,  Jihan Kim,
 R. A. King,  R. Z. Khaliullin,  P. P. Korambath,  W. Kurlancheek,
 A. M. Lee,  M. S. Lee,  S. V. Levchenko,  Ching Yeh Lin,  D. Liotard,
 R. C. Lochan,  I. Lotan,  P. E. Maslen,  N. Nair,  D. P. O'Neill,
 D. Neuhauser,  E. Neuscamman,  C. M. Oana,  R. Olson,  B. Peters,
 R. Peverati,  P. A. Pieniazek,  Y. M. Rhee,  J. Ritchie,  M. A. Rohrdanz,
 E. Rosta,  N. J. Russ,  H. F. Schaefer III,  N. E. Schultz,  N. Shenvi,
 A. C. Simmonett,  A. Sodt,  D. Stuck,  K. S. Thanthiriwatte,  V. Vanovschi,
 Tao Wang,  A. Warshel,  C. F. Williams,  Q. Wu,  X. Xu,  W. Zhang

 Please cite Q-Chem as follows:
 Y. Shao et al., Mol. Phys. 113, 184-215 (2015)
 DOI: 10.1080/00268976.2014.952696

 Q-Chem 5.0.1 for Intel X86 EM64T Linux

 Parts of Q-Chem use Armadillo 5.200.1 (Boston Tea Smuggler).
 http://arma.sourceforge.net/

 Q-Chem begins on Sun Oct 15 23:53:47 2017

Host: r0175.ten.osc.edu
0

     Scratch files written to /tmp/pbstmp.1310591/03//
Processing $rem in /users/PAS0291/osu6415/.qchemrc.
molden_format             true
The previous job contains 0 fragments, simply inherited here

Checking the input file for inconsistencies... 	...done.

--------------------------------------------------------------
User input:
--------------------------------------------------------------

$molecule
read
$end

$rem
sym_ignore      true
scf_guess       read
jobtype         freq
method          b3lyp
basis           6-311++G(d,p)
dft_d           d3_op
mem_total       62000
MEM_STATIC      4000
ao2mo_disk      350000
max_scf_cycles  200
$end
--------------------------------------------------------------

             Standard Nuclear Orientation (Angstroms)
    I     Atom           X                Y                Z
 ----------------------------------------------------------------
    1      C       0.9011353917    -0.4425796387    -0.0280071537
    2      C       0.1526252953     0.7506198833    -0.1140385960
    3      C       0.2368168075    -1.7830651190    -0.0714367488
    4      C      -1.3449861652     0.7747568468    -0.2827784891
    5      O      -1.1055294743    -1.6965364202    -0.1794692976
    6      O       0.8038696508    -2.8515961336    -0.0215847468
    7      O      -1.9671978618     0.7941517210     0.9120118242
    8      O      -1.9119985325     0.8786388065    -1.3413593828
    9      C      -3.4051432493     0.8238235753     0.8683230464
   10      C      -1.8270277295    -2.9358838892    -0.2610202364
   11      C       2.3105309620    -0.3792298586     0.0963403019
   12      C       2.9021137777     0.8849900715     0.1363120562
   13      C       2.1541558959     2.0511992324     0.0506670094
   14      C       0.7673795879     2.0092088285    -0.0810156766
   15      H      -3.7571292328     1.7125024720     0.3421484562
   16      H      -1.4698219780    -3.5309943752    -1.1021372278
   17      H       2.6552290158     3.0128079597     0.0858818459
   18      H      -3.7843509647    -0.0654753751     0.3617840807
   19      H      -3.7270771649     0.8386925423     1.9072366785
   20      H      -2.8673443415    -2.6535547714    -0.4073159672
   21      H      -1.7080249595    -3.5070397152     0.6612170664
   22      H       3.9796043578     0.9524067562     0.2364897555
   23      C      -0.0426693609     3.2795123601    -0.1892783556
   24      C       3.2117329476    -1.5875588952     0.1874794265
   25      H       2.9652604994    -2.2145895939     1.0462079712
   26      H       4.2505123922    -1.2635511368     0.2755575143
   27      H       3.1156457438    -2.2284849456    -0.6903775808
   28      H      -0.8073043105     3.3303329547     0.5913309428
   29      H      -0.5560330260     3.3372776273    -1.1527434743
   30      H       0.5987480160     4.1563194299    -0.0900944626
 ----------------------------------------------------------------

    2    -766.8726268784      8.76E-09 Convergence criterion met
 Total energy in the final basis set = -766.87262688

                    Orbital Energies (a.u.)
 --------------------------------------------------------------

 Alpha MOs
 -- Occupied --
-19.174 -19.174 -19.116 -19.115 -10.310 -10.310 -10.231 -10.231
-10.207 -10.206 -10.203 -10.199 -10.189 -10.184 -10.175 -10.164
 -1.120  -1.113  -1.028  -1.027  -0.885  -0.808  -0.793  -0.746
 -0.733  -0.725  -0.675  -0.649  -0.617  -0.578  -0.566  -0.535
 -0.516  -0.513  -0.494  -0.483  -0.482  -0.477  -0.467  -0.441
 -0.436  -0.427  -0.424  -0.413  -0.410  -0.402  -0.400  -0.385
 -0.379  -0.371  -0.361  -0.358  -0.354  -0.322  -0.309  -0.294
 -0.285  -0.269  -0.252

          Ground-State Mulliken Net Atomic Charges

     Atom                 Charge (a.u.)
  ----------------------------------------
      1 C                     0.196693
      2 C                     0.157570
      3 C                    -0.069135
      4 C                    -0.941321
      5 O                    -0.131691
      6 O                    -0.239772
      7 O                     0.111026
      8 O                    -0.099572
      9 C                    -0.175291
     10 C                    -0.197468
     11 C                     0.418227
     12 C                    -0.381979
     13 C                    -0.640370
     14 C                     0.670372
     15 H                     0.171349
     16 H                     0.186674
     17 H                     0.124638
     18 H                     0.163858
     19 H                     0.155815
     20 H                     0.146313
     21 H                     0.192056
     22 H                     0.132572
     23 C                    -0.467126
     24 C                    -0.500093
     25 H                     0.177784
     26 H                     0.138924
     27 H                     0.178442
     28 H                     0.158686
     29 H                     0.191481
     30 H                     0.171339
  ----------------------------------------
  Sum of atomic charges =     0.000000

                    Cartesian Multipole Moments
 -----------------------------------------------------------------
    Charge (ESU x 10^10)
                 0.0000
    Dipole Moment (Debye)
         X      -0.8354      Y       1.2053      Z       1.5930
       Tot       2.1653
    Quadrupole Moments (Debye-Ang)
        XX     -81.1505     XY       7.7424     YY     -90.2296
        XZ      -4.7835     YZ       2.1816     ZZ     -99.9230

 Frequency:       -48.59                  48.08                  77.38
 Force Cnst:      0.0102                 0.0051                 0.0119
 Red. Mass:       7.3408                 3.7482                 3.3796
 IR Intens:        1.647                  0.276                  1.932
 Frequency:       101.44                 108.62                 116.19
 Force Cnst:      0.0090                 0.0165                 0.0169
 Red. Mass:       1.4873                 2.3721                 2.1279
 IR Intens:        0.096                  5.644                  0.177
 Frequency:       131.02                 141.31                 147.55
 Force Cnst:      0.0186                 0.0158                 0.0228
 Red. Mass:       1.8392                 1.3431                 1.7785
 IR Intens:        0.692                  0.894                  0.570
 Frequency:       160.53                 188.44                 238.21
 Force Cnst:      0.0310                 0.1086                 0.0355
 Red. Mass:       2.0423                 5.1890                 1.0614
 IR Intens:        0.676                  0.217                  0.312
 Frequency:       248.17                 263.07                 299.41
 Force Cnst:      0.1713                 0.2546                 0.2015
 Red. Mass:       4.7197                 6.2434                 3.8150
 IR Intens:        3.262                  0.182                  8.254
 Frequency:       305.95                 317.94                 354.58
 Force Cnst:      0.1961                 0.1964                 0.3103
 Red. Mass:       3.5552                 3.2979                 4.1891
 IR Intens:        0.572                  1.944                  9.288
 Frequency:       387.25                 392.12                 422.42
 Force Cnst:      0.4383                 0.4957                 0.5279
 Red. Mass:       4.9603                 5.4721                 5.0211
 IR Intens:       11.289                  5.117                  0.046
 Frequency:       487.24                 508.81                 526.45
 Force Cnst:      0.6673                 0.5873                 0.6255
 Red. Mass:       4.7709                 3.8505                 3.8305
 IR Intens:        1.405                  8.697                  7.347
 Frequency:       613.49                 717.48                 733.89
 Force Cnst:      0.9308                 1.7650                 2.0398
 Red. Mass:       4.1977                 5.8192                 6.4280
 IR Intens:        5.543                  0.044                 10.957
 Frequency:       742.38                 798.02                 805.06
 Force Cnst:      2.2183                 2.1892                 2.1196
 Red. Mass:       6.8314                 5.8346                 5.5508
 IR Intens:       17.200                  0.546                 18.257
 Frequency:       814.21                 830.83                 897.88
 Force Cnst:      1.9044                 0.5795                 2.5801
 Red. Mass:       4.8757                 1.4249                 5.4320
 IR Intens:       13.420                 11.649                  5.593
 Frequency:       920.37                 969.42                 987.94
 Force Cnst:      2.1853                 0.7433                 3.0869
 Red. Mass:       4.3787                 1.3424                 5.3681
 IR Intens:        7.247                  0.187                 15.929
 Frequency:       996.71                1049.12                1058.73
 Force Cnst:      1.4239                 0.9662                 1.0313
 Red. Mass:       2.4327                 1.4900                 1.5615
 IR Intens:        6.169                  7.759                  2.902
 Frequency:      1061.40                1065.19                1129.74
 Force Cnst:      1.6964                 1.0343                 4.2774
 Red. Mass:       2.5557                 1.5472                 5.6881
 IR Intens:       57.556                  5.190                 79.706
 Frequency:      1167.16                1169.96                1188.38
 Force Cnst:      1.0344                 1.0298                 1.2694
 Red. Mass:       1.2888                 1.2769                 1.5256
 IR Intens:        0.786                  0.676                 77.022
 Frequency:      1201.20                1209.50                1220.26
 Force Cnst:      1.5631                 1.3859                 2.4820
 Red. Mass:       1.8387                 1.6080                 2.8291
 IR Intens:       22.384                 19.263                269.559
 Frequency:      1274.50                1279.37                1288.82
 Force Cnst:      2.6916                 2.9517                 4.9649
 Red. Mass:       2.8124                 3.0607                 5.0732
 IR Intens:      158.662                101.950                260.113
 Frequency:      1317.93                1419.74                1421.41
 Force Cnst:      6.3457                 1.4959                 1.8776
 Red. Mass:       6.2007                 1.2596                 1.5773
 IR Intens:       50.546                  2.035                 22.177
 Frequency:      1429.98                1465.83                1470.74
 Force Cnst:      2.3683                 1.5359                 1.5383
 Red. Mass:       1.9657                 1.2132                 1.2071
 IR Intens:       22.518                 13.913                 34.638
 Frequency:      1480.32                1480.84                1483.73
 Force Cnst:      1.3584                 1.3562                 1.4054
 Red. Mass:       1.0521                 1.0496                 1.0835
 IR Intens:        6.478                  7.830                 10.267
 Frequency:      1484.73                1486.81                1495.00
 Force Cnst:      1.6273                 1.3882                 1.4117
 Red. Mass:       1.2529                 1.0658                 1.0721
 IR Intens:       11.985                  8.880                  7.788
 Frequency:      1495.75                1498.05                1505.54
 Force Cnst:      2.3383                 1.4292                 1.5883
 Red. Mass:       1.7739                 1.0809                 1.1893
 IR Intens:        3.445                  6.793                 16.554
 Frequency:      1608.68                1631.13                1758.70
 Force Cnst:      7.9418                11.0186                20.4902
 Red. Mass:       5.2087                 7.0291                11.2438
 IR Intens:       25.403                  1.285                317.292
 Frequency:      1784.10                3033.42                3044.07
 Force Cnst:     22.2727                 5.6195                 5.6565
 Red. Mass:      11.8765                 1.0365                 1.0361
 IR Intens:      237.519                 21.623                 26.591
 Frequency:      3047.38                3050.71                3087.93
 Force Cnst:      5.6338                 5.6457                 6.1817
 Red. Mass:       1.0297                 1.0296                 1.1003
 IR Intens:       29.234                 42.604                  8.144
 Frequency:      3106.40                3111.94                3112.46
 Force Cnst:      6.2522                 6.2873                 6.2929
 Red. Mass:       1.0997                 1.1019                 1.1025
 IR Intens:        8.871                 13.397                 20.701
 Frequency:      3119.07                3124.36                3155.92
 Force Cnst:      6.3434                 6.3666                 6.4905
 Red. Mass:       1.1067                 1.1070                 1.1061
 IR Intens:       19.701                 16.161                 15.489
 Frequency:      3156.42                3163.36                3181.41
 Force Cnst:      6.4931                 6.4116                 6.5269
 Red. Mass:       1.1061                 1.0875                 1.0945
 IR Intens:       10.826                  8.259                 20.530

 STANDARD THERMODYNAMIC QUANTITIES AT   298.15 K  AND     1.00 ATM

   This Molecule has  1 Imaginary Frequencies
   Zero point vibrational energy:      150.644 kcal/mol

   Atom    1 Element C  Has Mass   12.00000
   Atom    2 Element C  Has Mass   12.00000
   Atom    3 Element C  Has Mass   12.00000
   Atom    4 Element C  Has Mass   12.00000
   Atom    5 Element O  Has Mass   15.99491
   Atom    6 Element O  Has Mass   15.99491
   Atom    7 Element O  Has Mass   15.99491
   Atom    8 Element O  Has Mass   15.99491
   Atom    9 Element C  Has Mass   12.00000
   Atom   10 Element C  Has Mass   12.00000
   Atom   11 Element C  Has Mass   12.00000
   Atom   12 Element C  Has Mass   12.00000
   Atom   13 Element C  Has Mass   12.00000
   Atom   14 Element C  Has Mass   12.00000
   Atom   15 Element H  Has Mass    1.00783
   Atom   16 Element H  Has Mass    1.00783
   Atom   17 Element H  Has Mass    1.00783
   Atom   18 Element H  Has Mass    1.00783
   Atom   19 Element H  Has Mass    1.00783
   Atom   20 Element H  Has Mass    1.00783
   Atom   21 Element H  Has Mass    1.00783
   Atom   22 Element H  Has Mass    1.00783
   Atom   23 Element C  Has Mass   12.00000
   Atom   24 Element C  Has Mass   12.00000
   Atom   25 Element H  Has Mass    1.00783
   Atom   26 Element H  Has Mass    1.00783
   Atom   27 Element H  Has Mass    1.00783
   Atom   28 Element H  Has Mass    1.00783
   Atom   29 Element H  Has Mass    1.00783
   Atom   30 Element H  Has Mass    1.00783
   Molecular Mass:   222.089260 amu
   Principal axes and moments of inertia in amu*Bohr^2:
                             1           2           3
    Eigenvalues --     2826.31382  3208.36892  5577.61370
          X               0.98274     0.18501    -0.00016
          Y              -0.18501     0.98270    -0.00833
          Z              -0.00139     0.00822     0.99997
   Rotational Symmetry Number is   1
   The Molecule is an Asymmetric Top
   Translational Enthalpy:        0.889 kcal/mol
   Rotational Enthalpy:           0.889 kcal/mol
   Vibrational Enthalpy:        158.768 kcal/mol
   gas constant (RT):             0.592 kcal/mol
   Translational Entropy:        42.096  cal/mol.K
   Rotational Entropy:           32.292  cal/mol.K
   Vibrational Entropy:          50.751  cal/mol.K

   Total Enthalpy:              161.137 kcal/mol
   Total Entropy:               125.139  cal/mol.K

 Total job time:  6547.24s(wall), 23233.91s(cpu)
        *  Thank you very much for using Q-Chem.  Have a nice day.  *
