 Q-Chem 5.0, Q-Chem, Inc., Pleasanton, CA (2017)
 Q-Chem 5.0.1 for Intel X86 EM64T Linux

User input:
--------------------------------------------------------------
$molecule
0 1
C -1.04319878 -0.73431226 -0.62300699
C 0.34724632 -0.01755193 -0.68209636
C -2.11393603 -0.04812289 0.19806959
C 0.32536007 1.44027688 -0.24203795
O -3.32750840 -0.54824476 -0.13289469
O -1.95062305 0.77773591 1.05950081
O -0.49115404 2.12346660 -1.08087186
O 0.95161429 1.96378677 0.64088968
C -0.71934264 3.50330889 -0.74647020
C -4.44420639 -0.05668367 0.63190489
C -0.64505850 -2.06772828 0.08641938
C 0.17128616 -2.94153464 -0.88853798
C 1.54451051 -2.21182258 -0.85629187
C 1.24840221 -1.02853272 0.10189103
O 0.32688533 -1.62637603 1.03581610
H -1.45190273 -0.92382375 -1.61463696
H 0.66935457 0.02215005 -1.72433565
H 0.21686981 4.06314743 -0.76327162
H -4.54221538 1.02333044 0.51260636
H 0.24968313 -3.96121084 -0.50853728
H -0.27801337 -2.98470443 -1.88263103
H 2.31884328 -2.84269058 -0.41744747
H 1.89395318 -1.87858408 -1.83337895
H -1.40169958 3.87744279 -1.50708066
H -1.16929692 3.57452760 0.24491126
H -4.31430173 -0.29073605 1.68964140
H -5.31698995 -0.56674113 0.23013945
H -1.46492145 -2.56726980 0.59843461
C 2.45592591 -0.49325576 0.84005398
O 3.30393404 0.10379528 -0.12913610
H 2.96792349 -1.32714166 1.34253070
H 2.14326909 0.23612016 1.58990361
C 4.29080208 0.94159732 0.44542646
H 4.88494287 1.34593180 -0.37484860
H 4.95108525 0.37859898 1.12034117
H 3.82791444 1.76678971 1.00038911
$end

$rem
sym_ignore      true
jobtype         opt
method          b3lyp
basis           6-311++G(d,p)
dft_d           d3_op
mem_total       62000
MEM_STATIC      4000
ao2mo_disk      350000
max_scf_cycles  200
geom_opt_max_cycles 1000
geom_opt_tol_displacement 1
GEOM_OPT_TOL_GRADIENT       1
GEOM_OPT_TOL_ENERGY         1
$end

--------------------------------------------------------------

   15    -919.7469765762      4.49E-09 Convergence criterion met
 Total energy in the final basis set = -919.74697658
   10    -919.7469745170      6.71E-09 Convergence criterion met
 Total energy in the final basis set = -919.74697452
   10    -919.7469862582      5.58E-09 Convergence criterion met
 Total energy in the final basis set = -919.74698626
   11    -919.7469818698      4.30E-09 Convergence criterion met
 Total energy in the final basis set = -919.74698187
   11    -919.7469865337      2.96E-09 Convergence criterion met
 Total energy in the final basis set = -919.74698653
   11    -919.7469768020      4.90E-09 Convergence criterion met
 Total energy in the final basis set = -919.74697680
   10    -919.7469911491      4.58E-09 Convergence criterion met
 Total energy in the final basis set = -919.74699115
    8    -919.7469909465      9.86E-09 Convergence criterion met
    6    -919.7469914773      5.59E-09 Convergence criterion met
 Total energy in the final basis set = -919.74699148
    5    -919.7469914761      9.55E-09 Convergence criterion met
 Total energy in the final basis set = -919.74699148
    6    -919.7469914478      3.17E-09 Convergence criterion met
 Total energy in the final basis set = -919.74699145
    5    -919.7469914587      5.74E-09 Convergence criterion met
 Total energy in the final basis set = -919.74699146
    5    -919.7469914404      6.52E-09 Convergence criterion met
 Total energy in the final basis set = -919.74699144
    4    -919.7469914402      7.98E-09 Convergence criterion met
 Total energy in the final basis set = -919.74699144
 Final energy is   -919.746991440165
 **  OPTIMIZATION CONVERGED  **
 Total job time:  1541.12s(wall), 21743.16s(cpu)
        *  Thank you very much for using Q-Chem.  Have a nice day.  *

User input: 2 of 2

r0157.ten.osc.edu 10.25.154
Q-Chem Developer Version! Running on 10.25.154.*
                  Welcome to Q-Chem
     A Quantum Leap Into The Future Of Chemistry

 Q-Chem 5.0, Q-Chem, Inc., Pleasanton, CA (2017)

 Yihan Shao,  Zhengting Gan,  E. Epifanovsky,  A. T. B. Gilbert,  M. Wormit,
 J. Kussmann,  A. W. Lange,  A. Behn,  Jia Deng,  Xintian Feng,  D. Ghosh,
 M. Goldey,  P. R. Horn,  L. D. Jacobson,  I. Kaliman,  T. Kus,  A. Landau,
 Jie Liu,  E. I. Proynov,  R. M. Richard,  R. P. Steele,  E. J. Sundstrom,
 H. L. Woodcock III,  P. M. Zimmerman,  D. Zuev,  B. Albrecht,  E. Alguire,
 S. A. Baeppler,  Z. Benda,  Y. A. Bernard,  E. J. Berquist,  K. B. Bravaya,
 D. Casanova,  Chun-Min Chang,  Yunqing Chen,  A. Chien,  K. D. Closser,
 M. P. Coons,  S. Dasgupta,  M. Diedenhofen,  Hainam Do,  R. G. Edgar,
 Po-Tung Fang,  S. Fatehi,  Qingguo Feng,  Qinghui Ge,  A. Ghysels,
 J. Gomes,  J. Gonthier,  A. Gunina,  M. W. D. Hanson-Heine,
 P. H. P. Harbach,  A. W. Hauser,  J. E. Herr,  E. G. Hohenstein,
 Z. C. Holden,  Kerwin Hui,  T.-C. Jagau,  Hyunjun Ji,  B. Kaduk,
 K. Khistyaev,  Jaehoon Kim,  P. Klunzinger,  K. Koh,  D. Kosenkov,
 T. Kowalczyk,  C. M. Krauter,  A. Kunitsa,  Ka Un Lao,  A. Laurent,
 K. V. Lawler,  Joonho Lee,  D. Lefrancois,  S. Lehtola,  D. S. Levine,
 Yi-Pei Li,  You-Sheng Lin,  Fenglai Liu,  E. Livshits,  A. Luenser,
 P. Manohar,  E. Mansoor,  S. F. Manzer,  Shan-Ping Mao,  Yuezhi Mao,
 N. Mardirossian,  A. V. Marenich,  L. A. Martinez-Martinez,  S. A. Maurer,
 N. J. Mayhall,  S. C. McKenzie,  J.-M. Mewes,  A. F. Morrison,  K. Nanda,
 T. S. Nguyen-Beck,  R. Olivares-Amaya,  J. A. Parkhill,  T. M. Perrine,
 F. Plasser,  S. Prager,  A. Prociuk,  D. R. Rehn,  F. Rob,  M. Schneider,
 N. Sergueev,  S. M. Sharada,  S. Sharma,  D. W. Small,  T. Stauch,
 T. Stein,  Yu-Chuan Su,  A. J. W. Thom,  T. Tsuchimochi,  L. Vogt,
 O. Vydrov,  M. A. Watson,  J. Wenzel,  M. de Wergifosse,  T. A. Wesolowski,
 A. White,  J. Witte,  A. Yamada,  Jun Yang,  K. Yao,  S. Yeganeh,
 S. R. Yost,  Zhi-Qiang You,  A. Zech,  Igor Ying Zhang,  Xing Zhang,
 Yan Zhao,  Ying Zhu,  B. R. Brooks,  G. K. L. Chan,  C. J. Cramer,
 M. S. Gordon,  W. J. Hehre,  A. Klamt,  M. W. Schmidt,  C. D. Sherrill,
 D. G. Truhlar,  A. Aspuru-Guzik,  R. Baer,  A. T. Bell,  N. A. Besley,
 Jeng-Da Chai,  A. Dreuw,  B. D. Dunietz,  T. R. Furlani,  Chao-Ping Hsu,
 Yousung Jung,  Jing Kong,  D. S. Lambrecht,  WanZhen Liang,  C. Ochsenfeld,
 V. A. Rassolov,  L. V. Slipchenko,  J. E. Subotnik,  T. Van Voorhis,
 J. M. Herbert,  A. I. Krylov,  P. M. W. Gill,  M. Head-Gordon

 Contributors to earlier versions of Q-Chem not listed above:
 R. D. Adamson,  B. Austin,  J. Baker,  G. J. O. Beran,  K. Brandhorst,
 S. T. Brown,  E. F. C. Byrd,  A. K. Chakraborty,  C.-L. Cheng,
 Siu Hung Chien,  D. M. Chipman,  D. L. Crittenden,  H. Dachsel,
 R. A. DiStasio Jr.,  R. J. Doerksen,  A. D. Dutoi,  L. Fusti-Molnar,
 W. A. Goddard III,  A. Golubeva-Zadorozhnaya,  S. R. Gwaltney,  G. Hawkins,
 A. Heyden,  S. Hirata,  G. Kedziora,  F. J. Keil,  C. Kelley,  Jihan Kim,
 R. A. King,  R. Z. Khaliullin,  P. P. Korambath,  W. Kurlancheek,
 A. M. Lee,  M. S. Lee,  S. V. Levchenko,  Ching Yeh Lin,  D. Liotard,
 R. C. Lochan,  I. Lotan,  P. E. Maslen,  N. Nair,  D. P. O'Neill,
 D. Neuhauser,  E. Neuscamman,  C. M. Oana,  R. Olson,  B. Peters,
 R. Peverati,  P. A. Pieniazek,  Y. M. Rhee,  J. Ritchie,  M. A. Rohrdanz,
 E. Rosta,  N. J. Russ,  H. F. Schaefer III,  N. E. Schultz,  N. Shenvi,
 A. C. Simmonett,  A. Sodt,  D. Stuck,  K. S. Thanthiriwatte,  V. Vanovschi,
 Tao Wang,  A. Warshel,  C. F. Williams,  Q. Wu,  X. Xu,  W. Zhang

 Please cite Q-Chem as follows:
 Y. Shao et al., Mol. Phys. 113, 184-215 (2015)
 DOI: 10.1080/00268976.2014.952696

 Q-Chem 5.0.1 for Intel X86 EM64T Linux

 Parts of Q-Chem use Armadillo 5.200.1 (Boston Tea Smuggler).
 http://arma.sourceforge.net/

 Q-Chem begins on Tue Oct 24 09:46:18 2017

Host: r0157.ten.osc.edu
0

     Scratch files written to /tmp/pbstmp.1324379/00//
Processing $rem in /users/PAS0291/osu6415/.qchemrc.
molden_format             true
The previous job contains 0 fragments, simply inherited here

Checking the input file for inconsistencies... 	...done.

--------------------------------------------------------------
User input:
--------------------------------------------------------------

$molecule
read
$end

$rem
sym_ignore      true
scf_guess       read
jobtype         freq
method          b3lyp
basis           6-311++G(d,p)
dft_d           d3_op
mem_total       62000
MEM_STATIC      4000
ao2mo_disk      350000
max_scf_cycles  200
$end
--------------------------------------------------------------

             Standard Nuclear Orientation (Angstroms)
    I     Atom           X                Y                Z
 ----------------------------------------------------------------
    1      C      -1.0417624745    -0.7390560189    -0.6154491214
    2      C       0.3470040283    -0.0184965739    -0.6778102133
    3      C      -2.1174441839    -0.0507556789     0.1969277101
    4      C       0.3228184366     1.4369187673    -0.2296991593
    5      O      -3.3302459172    -0.5420659195    -0.1501609239
    6      O      -1.9587630786     0.7680584174     1.0659149374
    7      O      -0.4859513101     2.1254712001    -1.0717052508
    8      O       0.9378444507     1.9540583886     0.6647093537
    9      C      -0.7184301934     3.5027998882    -0.7297019939
   10      C      -4.4521818795    -0.0488808140     0.6058788468
   11      C      -0.6410572604    -2.0682454013     0.1007285492
   12      C       0.1703186532    -2.9471321518    -0.8736565858
   13      C       1.5421619336    -2.2143682904    -0.8551449845
   14      C       1.2520844449    -1.0286178703     0.1022034796
   15      O       0.3357139734    -1.6230041832     1.0431120984
   16      H      -1.4470526770    -0.9352511122    -1.6071490466
   17      H       0.6657948005     0.0255500927    -1.7207343142
   18      H       0.2172264604     4.0638111905    -0.7358105999
   19      H      -4.5461833500     1.0316315276     0.4876049972
   20      H       0.2534379419    -3.9638795154    -0.4868650140
   21      H      -0.2852370363    -2.9980222901    -1.8644667369
   22      H       2.3216574370    -2.8424224783    -0.4214589105
   23      H       1.8823399195    -1.8831194259    -1.8362159050
   24      H      -1.3955075847     3.8812123507    -1.4929006932
   25      H      -1.1756788704     3.5668867650     0.2588169663
   26      H      -4.3319996852    -0.2849837139     1.6642867280
   27      H      -5.3228503236    -0.5557382490     0.1955695744
   28      H      -1.4585865706    -2.5647227163     0.6195007445
   29      C       2.4641959985    -0.4920904771     0.8322143863
   30      O       3.3019830277     0.1117738964    -0.1416889123
   31      H       2.9832875638    -1.3259554025     1.3273559952
   32      H       2.1549537028     0.2335150584     1.5871019630
   33      C       4.2940566511     0.9463705584     0.4284168242
   34      H       4.8795900958     1.3567626288    -0.3950316327
   35      H       4.9614869267     0.3794164367     1.0928924894
   36      H       3.8364130390     1.7675098862     0.9937717245
 ----------------------------------------------------------------

    2    -919.7469914404      6.35E-09 Convergence criterion met
 Total energy in the final basis set = -919.74699144

                    Orbital Energies (a.u.)
 --------------------------------------------------------------

 Alpha MOs
 -- Occupied --
-19.177 -19.164 -19.132 -19.124 -19.120 -19.109 -10.308 -10.302
-10.239 -10.237 -10.232 -10.221 -10.210 -10.206 -10.206 -10.201
-10.180 -10.175  -1.118  -1.106  -1.066  -1.034  -1.031  -1.021
 -0.831  -0.793  -0.780  -0.749  -0.723  -0.704  -0.655  -0.639
 -0.604  -0.591  -0.570  -0.552  -0.534  -0.515  -0.504  -0.494
 -0.491  -0.485  -0.481  -0.477  -0.473  -0.462  -0.457  -0.442
 -0.426  -0.420  -0.418  -0.409  -0.395  -0.391  -0.374  -0.370
 -0.364  -0.360  -0.358  -0.352  -0.341  -0.330  -0.322  -0.320
 -0.306  -0.291  -0.276  -0.274  -0.258

          Ground-State Mulliken Net Atomic Charges

     Atom                 Charge (a.u.)
  ----------------------------------------
      1 C                     0.237303
      2 C                     0.223758
      3 C                    -0.894477
      4 C                    -0.561839
      5 O                    -0.023120
      6 O                    -0.185739
      7 O                     0.003190
      8 O                    -0.175150
      9 C                    -0.188163
     10 C                    -0.237814
     11 C                     0.317220
     12 C                    -0.492983
     13 C                    -0.302846
     14 C                    -0.835811
     15 O                    -0.027649
     16 H                     0.289642
     17 H                     0.288669
     18 H                     0.165705
     19 H                     0.172287
     20 H                     0.182929
     21 H                     0.121722
     22 H                     0.174027
     23 H                     0.181621
     24 H                     0.147969
     25 H                     0.192428
     26 H                     0.184012
     27 H                     0.151289
     28 H                     0.277429
     29 C                     0.113055
     30 O                    -0.069025
     31 H                     0.153847
     32 H                     0.232805
     33 C                    -0.233758
     34 H                     0.140756
     35 H                     0.128460
     36 H                     0.148251
  ----------------------------------------
  Sum of atomic charges =     0.000000

                    Cartesian Multipole Moments
 -----------------------------------------------------------------
    Charge (ESU x 10^10)
                 0.0000
    Dipole Moment (Debye)
         X      -1.8609      Y      -0.9180      Z      -2.2079
       Tot       3.0300
    Quadrupole Moments (Debye-Ang)
        XX     -92.9797     XY      -0.2529     YY     -99.8751
        XZ       0.5872     YZ      -2.0477     ZZ    -111.0394

 Frequency:        30.76                  35.85                  47.19
 Force Cnst:      0.0025                 0.0042                 0.0044
 Red. Mass:       4.5569                 5.4932                 3.3353
 IR Intens:        0.409                  0.928                  1.404
 Frequency:        84.50                  97.64                 113.04
 Force Cnst:      0.0170                 0.0173                 0.0197
 Red. Mass:       4.0411                 3.0748                 2.6103
 IR Intens:        4.181                  2.006                  3.324
 Frequency:       118.55                 134.54                 145.24
 Force Cnst:      0.0192                 0.0243                 0.0206
 Red. Mass:       2.3233                 2.2808                 1.6613
 IR Intens:        1.933                  2.828                  0.506
 Frequency:       150.86                 159.73                 190.03
 Force Cnst:      0.0347                 0.0197                 0.0668
 Red. Mass:       2.5859                 1.3084                 3.1418
 IR Intens:        1.173                  0.129                  0.382
 Frequency:       209.92                 215.74                 237.10
 Force Cnst:      0.0482                 0.0901                 0.1117
 Red. Mass:       1.8562                 3.2865                 3.3712
 IR Intens:        3.294                  1.243                  3.106
 Frequency:       269.21                 298.73                 316.00
 Force Cnst:      0.1932                 0.2021                 0.1972
 Red. Mass:       4.5249                 3.8434                 3.3512
 IR Intens:        4.573                  4.456                  6.518
 Frequency:       338.50                 343.98                 348.76
 Force Cnst:      0.2525                 0.3208                 0.1994
 Red. Mass:       3.7408                 4.6018                 2.7821
 IR Intens:        0.780                 26.027                  3.025
 Frequency:       367.68                 407.49                 480.75
 Force Cnst:      0.3386                 0.5309                 0.5236
 Red. Mass:       4.2510                 5.4270                 3.8450
 IR Intens:        8.198                  0.479                 12.104
 Frequency:       571.16                 635.92                 653.18
 Force Cnst:      0.7637                 1.3523                 1.1790
 Red. Mass:       3.9733                 5.6758                 4.6901
 IR Intens:       19.094                 16.091                  0.900
 Frequency:       680.33                 724.00                 753.79
 Force Cnst:      1.4621                 1.4600                 1.6858
 Red. Mass:       5.3617                 4.7275                 5.0356
 IR Intens:        4.291                  3.774                  2.299
 Frequency:       807.72                 815.42                 836.10
 Force Cnst:      1.4237                 0.9724                 1.6608
 Red. Mass:       3.7038                 2.4822                 4.0322
 IR Intens:        3.136                  7.512                 18.014
 Frequency:       850.62                 865.60                 906.76
 Force Cnst:      1.3311                 1.7386                 1.3376
 Red. Mass:       3.1225                 3.9384                 2.7611
 IR Intens:        1.823                  5.355                  4.940
 Frequency:       916.40                 930.00                 950.97
 Force Cnst:      1.3336                 1.3457                 2.4913
 Red. Mass:       2.6953                 2.6408                 4.6756
 IR Intens:       13.750                 18.053                 32.913
 Frequency:       967.73                 977.32                 996.10
 Force Cnst:      2.4257                 2.4369                 1.6284
 Red. Mass:       4.3961                 4.3303                 2.7855
 IR Intens:        1.629                 27.251                 11.405
 Frequency:      1005.29                1009.35                1062.20
 Force Cnst:      1.6562                 2.5039                 1.9617
 Red. Mass:       2.7814                 4.1713                 2.9510
 IR Intens:        5.042                 42.888                 16.788
 Frequency:      1074.62                1083.04                1127.97
 Force Cnst:      1.5609                 3.0572                 1.5939
 Red. Mass:       2.2942                 4.4237                 2.1262
 IR Intens:       29.493                 47.573                121.445
 Frequency:      1141.57                1170.32                1171.07
 Force Cnst:      2.3940                 1.0938                 1.0338
 Red. Mass:       3.1180                 1.3554                 1.2794
 IR Intens:       81.411                 36.017                  3.848
 Frequency:      1173.24                1179.94                1187.86
 Force Cnst:      1.0972                 1.8864                 1.4685
 Red. Mass:       1.3529                 2.2996                 1.7664
 IR Intens:       30.277                200.713                179.099
 Frequency:      1198.13                1201.43                1209.09
 Force Cnst:      1.4111                 1.4550                 1.3587
 Red. Mass:       1.6684                 1.7109                 1.5775
 IR Intens:      129.577                 42.986                 10.603
 Frequency:      1213.51                1215.32                1227.39
 Force Cnst:      1.5113                 1.4273                 1.3967
 Red. Mass:       1.7418                 1.6401                 1.5736
 IR Intens:      150.609                 76.191                 17.574
 Frequency:      1238.70                1252.74                1283.68
 Force Cnst:      1.0993                 1.2219                 1.4208
 Red. Mass:       1.2160                 1.3215                 1.4634
 IR Intens:        7.010                 12.671                 11.957
 Frequency:      1296.22                1317.99                1328.48
 Force Cnst:      1.5635                 1.4688                 1.5491
 Red. Mass:       1.5794                 1.4351                 1.4897
 IR Intens:        5.478                 11.370                 12.392
 Frequency:      1334.08                1373.14                1394.43
 Force Cnst:      2.0887                 1.7705                 1.8854
 Red. Mass:       1.9918                 1.5937                 1.6457
 IR Intens:        3.765                 96.023                 38.504
 Frequency:      1432.87                1468.34                1470.76
 Force Cnst:      1.8556                 1.5061                 1.5277
 Red. Mass:       1.5340                 1.1857                 1.1987
 IR Intens:        5.892                 13.841                 12.437
 Frequency:      1473.45                1484.69                1486.01
 Force Cnst:      1.5026                 1.3577                 1.3587
 Red. Mass:       1.1747                 1.0454                 1.0443
 IR Intens:        1.593                  7.406                 11.926
 Frequency:      1487.33                1488.09                1497.89
 Force Cnst:      1.3781                 1.4055                 1.3849
 Red. Mass:       1.0573                 1.0772                 1.0476
 IR Intens:        4.355                  3.971                 15.430
 Frequency:      1498.26                1500.89                1509.93
 Force Cnst:      1.3837                 1.4119                 1.4789
 Red. Mass:       1.0462                 1.0638                 1.1010
 IR Intens:        5.893                  6.967                  8.339
 Frequency:      1516.44                1796.74                1809.91
 Force Cnst:      1.4575                21.8492                21.6457
 Red. Mass:       1.0757                11.4872                11.2153
 IR Intens:       13.473                 61.057                386.731
 Frequency:      2975.80                2983.22                3034.34
 Force Cnst:      5.4633                 5.5688                 5.9677
 Red. Mass:       1.0471                 1.0620                 1.1001
 IR Intens:       53.149                 98.536                 39.496
 Frequency:      3048.77                3049.69                3060.67
 Force Cnst:      5.6364                 5.6422                 5.8486
 Red. Mass:       1.0292                 1.0296                 1.0597
 IR Intens:       33.557                 39.047                 25.990
 Frequency:      3070.27                3082.03                3088.95
 Force Cnst:      5.9019                 6.0683                 6.1386
 Red. Mass:       1.0626                 1.0843                 1.0919
 IR Intens:       28.806                  3.560                  8.680
 Frequency:      3100.10                3111.58                3111.97
 Force Cnst:      6.2564                 6.2635                 6.2093
 Red. Mass:       1.1049                 1.0980                 1.0882
 IR Intens:        4.672                 29.542                  4.515
 Frequency:      3122.32                3123.01                3123.69
 Force Cnst:      6.3399                 6.3622                 6.3655
 Red. Mass:       1.1038                 1.1072                 1.1073
 IR Intens:       27.880                 24.633                 14.755
 Frequency:      3131.30                3151.92                3156.49
 Force Cnst:      6.2964                 6.4761                 6.4939
 Red. Mass:       1.0899                 1.1064                 1.1062
 IR Intens:       23.374                 15.016                 14.392

 STANDARD THERMODYNAMIC QUANTITIES AT   298.15 K  AND     1.00 ATM

   This Molecule has  0 Imaginary Frequencies
   Zero point vibrational energy:      187.130 kcal/mol

   Atom    1 Element C  Has Mass   12.00000
   Atom    2 Element C  Has Mass   12.00000
   Atom    3 Element C  Has Mass   12.00000
   Atom    4 Element C  Has Mass   12.00000
   Atom    5 Element O  Has Mass   15.99491
   Atom    6 Element O  Has Mass   15.99491
   Atom    7 Element O  Has Mass   15.99491
   Atom    8 Element O  Has Mass   15.99491
   Atom    9 Element C  Has Mass   12.00000
   Atom   10 Element C  Has Mass   12.00000
   Atom   11 Element C  Has Mass   12.00000
   Atom   12 Element C  Has Mass   12.00000
   Atom   13 Element C  Has Mass   12.00000
   Atom   14 Element C  Has Mass   12.00000
   Atom   15 Element O  Has Mass   15.99491
   Atom   16 Element H  Has Mass    1.00783
   Atom   17 Element H  Has Mass    1.00783
   Atom   18 Element H  Has Mass    1.00783
   Atom   19 Element H  Has Mass    1.00783
   Atom   20 Element H  Has Mass    1.00783
   Atom   21 Element H  Has Mass    1.00783
   Atom   22 Element H  Has Mass    1.00783
   Atom   23 Element H  Has Mass    1.00783
   Atom   24 Element H  Has Mass    1.00783
   Atom   25 Element H  Has Mass    1.00783
   Atom   26 Element H  Has Mass    1.00783
   Atom   27 Element H  Has Mass    1.00783
   Atom   28 Element H  Has Mass    1.00783
   Atom   29 Element C  Has Mass   12.00000
   Atom   30 Element O  Has Mass   15.99491
   Atom   31 Element H  Has Mass    1.00783
   Atom   32 Element H  Has Mass    1.00783
   Atom   33 Element C  Has Mass   12.00000
   Atom   34 Element H  Has Mass    1.00783
   Atom   35 Element H  Has Mass    1.00783
   Atom   36 Element H  Has Mass    1.00783
   Molecular Mass:   258.110400 amu
   Principal axes and moments of inertia in amu*Bohr^2:
                             1           2           3
    Eigenvalues --     3015.26843  4979.59135  7007.86418
          X               0.99977     0.02122     0.00377
          Y              -0.02124     0.99975     0.00694
          Z              -0.00362    -0.00702     0.99997
   Rotational Symmetry Number is   1
   The Molecule is an Asymmetric Top
   Translational Enthalpy:        0.889 kcal/mol
   Rotational Enthalpy:           0.889 kcal/mol
   Vibrational Enthalpy:        196.858 kcal/mol
   gas constant (RT):             0.592 kcal/mol
   Translational Entropy:        42.544  cal/mol.K
   Rotational Entropy:           33.020  cal/mol.K
   Vibrational Entropy:          64.607  cal/mol.K

   Total Enthalpy:              199.228 kcal/mol
   Total Entropy:               140.171  cal/mol.K

 Total job time:  11841.58s(wall), 44870.62s(cpu)
        *  Thank you very much for using Q-Chem.  Have a nice day.  *
