 Q-Chem 5.0, Q-Chem, Inc., Pleasanton, CA (2017)
 Q-Chem 5.0.1 for Intel X86 EM64T Linux

User input:
--------------------------------------------------------------
$molecule
0 1
C -0.86945419 1.06311381 0.42951370
C 0.27247162 -0.01469160 0.59448057
C -2.23577405 0.62193269 -0.06119123
C 0.02692502 -1.42951274 0.07619637
O -3.02484812 0.28728806 0.98423644
O -2.61965032 0.65055298 -1.20331422
O -1.27821836 -1.72648881 -0.04119651
O 0.89642800 -2.23801671 -0.14239886
C -1.59548019 -3.04744541 -0.51754830
C -4.34382404 -0.17385549 0.65190302
C -0.19666950 2.07961906 -0.54007719
C 0.70860331 3.00216800 0.28784500
C 1.81462288 1.99501443 0.70856836
C 1.44491763 0.73532720 -0.13266122
O 0.75492661 1.28479501 -1.26440731
H -1.04278188 1.52181714 1.40427374
H 0.51247826 -0.15104205 1.65141353
H -1.20574037 -3.80186529 0.16698085
H -4.28795947 -1.05464387 0.00991525
H 1.11044348 3.79735788 -0.34237041
H 0.19118491 3.46261895 1.13213558
H 2.81031935 2.34518115 0.43494043
H 1.82583590 1.78181969 1.77791090
H -2.68152417 -3.08677055 -0.55725364
H -1.17052648 -3.20185986 -1.50972161
H -4.90726184 0.60651731 0.13763212
H -4.81414374 -0.42259184 1.60092900
H -0.88134342 2.54982019 -1.23993788
C 2.65563460 -0.04889834 -0.59387490
O 3.32738608 -0.50890253 0.56618667
H 3.30121357 0.62839786 -1.17266153
H 2.36330725 -0.88197186 -1.23554074
C 4.27096699 -1.52720292 0.28864184
H 4.73679215 -1.79957773 1.23619563
H 5.04959376 -1.17474412 -0.40311532
H 3.77861781 -2.40830867 -0.14056280
$end

$rem
sym_ignore      true
jobtype         ts
method          b3lyp
basis           6-311++G(d,p)
dft_d           d3_op
mem_total       62000
MEM_STATIC      4000
ao2mo_disk      350000
max_scf_cycles  200
geom_opt_max_cycles 1000
geom_opt_tol_displacement 1
GEOM_OPT_TOL_GRADIENT       1
GEOM_OPT_TOL_ENERGY         1
$end

--------------------------------------------------------------

   15    -919.7411809630      3.93E-09 Convergence criterion met
 Total energy in the final basis set = -919.74118096
   12    -919.7409710674      5.50E-09 Convergence criterion met
 Total energy in the final basis set = -919.74097107
   12    -919.7411116328      6.85E-09 Convergence criterion met
 Total energy in the final basis set = -919.74111163
   12    -919.7411236285      5.03E-09 Convergence criterion met
 Total energy in the final basis set = -919.74112363
   12    -919.7411267215      4.71E-09 Convergence criterion met
 Total energy in the final basis set = -919.74112672
   12    -919.7409356018      9.62E-09 Convergence criterion met
 Total energy in the final basis set = -919.74093560
   12    -919.7409738501      4.52E-09 Convergence criterion met
 Total energy in the final basis set = -919.74097385
   12    -919.7414299272      5.74E-09 Convergence criterion met
    6    -919.7411826017      4.32E-09 Convergence criterion met
 Total energy in the final basis set = -919.74118260
    5    -919.7411825795      5.07E-09 Convergence criterion met
 Total energy in the final basis set = -919.74118258
    5    -919.7411825998      7.59E-09 Convergence criterion met
 Total energy in the final basis set = -919.74118260
    5    -919.7411825821      5.12E-09 Convergence criterion met
 Total energy in the final basis set = -919.74118258
    5    -919.7411826058      5.42E-09 Convergence criterion met
 Total energy in the final basis set = -919.74118261
    4    -919.7411826008      7.83E-09 Convergence criterion met
 Total energy in the final basis set = -919.74118260
 Final energy is   -919.741182600773
 **  OPTIMIZATION CONVERGED  **
 Total job time:  4200.12s(wall), 60974.32s(cpu)
        *  Thank you very much for using Q-Chem.  Have a nice day.  *

User input: 2 of 2

r0213.ten.osc.edu 10.25.156
Q-Chem Developer Version! Running on 10.25.156.*
                  Welcome to Q-Chem
     A Quantum Leap Into The Future Of Chemistry

 Q-Chem 5.0, Q-Chem, Inc., Pleasanton, CA (2017)

 Yihan Shao,  Zhengting Gan,  E. Epifanovsky,  A. T. B. Gilbert,  M. Wormit,
 J. Kussmann,  A. W. Lange,  A. Behn,  Jia Deng,  Xintian Feng,  D. Ghosh,
 M. Goldey,  P. R. Horn,  L. D. Jacobson,  I. Kaliman,  T. Kus,  A. Landau,
 Jie Liu,  E. I. Proynov,  R. M. Richard,  R. P. Steele,  E. J. Sundstrom,
 H. L. Woodcock III,  P. M. Zimmerman,  D. Zuev,  B. Albrecht,  E. Alguire,
 S. A. Baeppler,  Z. Benda,  Y. A. Bernard,  E. J. Berquist,  K. B. Bravaya,
 D. Casanova,  Chun-Min Chang,  Yunqing Chen,  A. Chien,  K. D. Closser,
 M. P. Coons,  S. Dasgupta,  M. Diedenhofen,  Hainam Do,  R. G. Edgar,
 Po-Tung Fang,  S. Fatehi,  Qingguo Feng,  Qinghui Ge,  A. Ghysels,
 J. Gomes,  J. Gonthier,  A. Gunina,  M. W. D. Hanson-Heine,
 P. H. P. Harbach,  A. W. Hauser,  J. E. Herr,  E. G. Hohenstein,
 Z. C. Holden,  Kerwin Hui,  T.-C. Jagau,  Hyunjun Ji,  B. Kaduk,
 K. Khistyaev,  Jaehoon Kim,  P. Klunzinger,  K. Koh,  D. Kosenkov,
 T. Kowalczyk,  C. M. Krauter,  A. Kunitsa,  Ka Un Lao,  A. Laurent,
 K. V. Lawler,  Joonho Lee,  D. Lefrancois,  S. Lehtola,  D. S. Levine,
 Yi-Pei Li,  You-Sheng Lin,  Fenglai Liu,  E. Livshits,  A. Luenser,
 P. Manohar,  E. Mansoor,  S. F. Manzer,  Shan-Ping Mao,  Yuezhi Mao,
 N. Mardirossian,  A. V. Marenich,  L. A. Martinez-Martinez,  S. A. Maurer,
 N. J. Mayhall,  S. C. McKenzie,  J.-M. Mewes,  A. F. Morrison,  K. Nanda,
 T. S. Nguyen-Beck,  R. Olivares-Amaya,  J. A. Parkhill,  T. M. Perrine,
 F. Plasser,  S. Prager,  A. Prociuk,  D. R. Rehn,  F. Rob,  M. Schneider,
 N. Sergueev,  S. M. Sharada,  S. Sharma,  D. W. Small,  T. Stauch,
 T. Stein,  Yu-Chuan Su,  A. J. W. Thom,  T. Tsuchimochi,  L. Vogt,
 O. Vydrov,  M. A. Watson,  J. Wenzel,  M. de Wergifosse,  T. A. Wesolowski,
 A. White,  J. Witte,  A. Yamada,  Jun Yang,  K. Yao,  S. Yeganeh,
 S. R. Yost,  Zhi-Qiang You,  A. Zech,  Igor Ying Zhang,  Xing Zhang,
 Yan Zhao,  Ying Zhu,  B. R. Brooks,  G. K. L. Chan,  C. J. Cramer,
 M. S. Gordon,  W. J. Hehre,  A. Klamt,  M. W. Schmidt,  C. D. Sherrill,
 D. G. Truhlar,  A. Aspuru-Guzik,  R. Baer,  A. T. Bell,  N. A. Besley,
 Jeng-Da Chai,  A. Dreuw,  B. D. Dunietz,  T. R. Furlani,  Chao-Ping Hsu,
 Yousung Jung,  Jing Kong,  D. S. Lambrecht,  WanZhen Liang,  C. Ochsenfeld,
 V. A. Rassolov,  L. V. Slipchenko,  J. E. Subotnik,  T. Van Voorhis,
 J. M. Herbert,  A. I. Krylov,  P. M. W. Gill,  M. Head-Gordon

 Contributors to earlier versions of Q-Chem not listed above:
 R. D. Adamson,  B. Austin,  J. Baker,  G. J. O. Beran,  K. Brandhorst,
 S. T. Brown,  E. F. C. Byrd,  A. K. Chakraborty,  C.-L. Cheng,
 Siu Hung Chien,  D. M. Chipman,  D. L. Crittenden,  H. Dachsel,
 R. A. DiStasio Jr.,  R. J. Doerksen,  A. D. Dutoi,  L. Fusti-Molnar,
 W. A. Goddard III,  A. Golubeva-Zadorozhnaya,  S. R. Gwaltney,  G. Hawkins,
 A. Heyden,  S. Hirata,  G. Kedziora,  F. J. Keil,  C. Kelley,  Jihan Kim,
 R. A. King,  R. Z. Khaliullin,  P. P. Korambath,  W. Kurlancheek,
 A. M. Lee,  M. S. Lee,  S. V. Levchenko,  Ching Yeh Lin,  D. Liotard,
 R. C. Lochan,  I. Lotan,  P. E. Maslen,  N. Nair,  D. P. O'Neill,
 D. Neuhauser,  E. Neuscamman,  C. M. Oana,  R. Olson,  B. Peters,
 R. Peverati,  P. A. Pieniazek,  Y. M. Rhee,  J. Ritchie,  M. A. Rohrdanz,
 E. Rosta,  N. J. Russ,  H. F. Schaefer III,  N. E. Schultz,  N. Shenvi,
 A. C. Simmonett,  A. Sodt,  D. Stuck,  K. S. Thanthiriwatte,  V. Vanovschi,
 Tao Wang,  A. Warshel,  C. F. Williams,  Q. Wu,  X. Xu,  W. Zhang

 Please cite Q-Chem as follows:
 Y. Shao et al., Mol. Phys. 113, 184-215 (2015)
 DOI: 10.1080/00268976.2014.952696

 Q-Chem 5.0.1 for Intel X86 EM64T Linux

 Parts of Q-Chem use Armadillo 5.200.1 (Boston Tea Smuggler).
 http://arma.sourceforge.net/

 Q-Chem begins on Tue Oct 24 10:31:18 2017

Host: r0213.ten.osc.edu
0

     Scratch files written to /tmp/pbstmp.1324380/01//
Processing $rem in /users/PAS0291/osu6415/.qchemrc.
molden_format             true
The previous job contains 0 fragments, simply inherited here

Checking the input file for inconsistencies... 	...done.

--------------------------------------------------------------
User input:
--------------------------------------------------------------

$molecule
read
$end

$rem
sym_ignore      true
scf_guess       read
jobtype         freq
method          b3lyp
basis           6-311++G(d,p)
dft_d           d3_op
mem_total       62000
MEM_STATIC      4000
ao2mo_disk      350000
max_scf_cycles  200
$end
--------------------------------------------------------------

             Standard Nuclear Orientation (Angstroms)
    I     Atom           X                Y                Z
 ----------------------------------------------------------------
    1      C      -0.8727752072     1.0635690321     0.4432817633
    2      C       0.2726029922    -0.0110368767     0.6035743475
    3      C      -2.2348048892     0.6211631871    -0.0590430478
    4      C       0.0296763314    -1.4304364094     0.0976339561
    5      O      -3.0336752376     0.2894938862     0.9801225760
    6      O      -2.6066691386     0.6419966704    -1.2051627361
    7      O      -1.2729696041    -1.7239216494    -0.0480498925
    8      O       0.9014751774    -2.2447840071    -0.0889170009
    9      C      -1.5838922292    -3.0498024892    -0.5147987046
   10      C      -4.3488734354    -0.1743645069     0.6364938626
   11      C      -0.2018185230     2.0860345261    -0.5215647260
   12      C       0.7100663212     3.0017175755     0.3069802842
   13      C       1.8220272257     1.9932919456     0.7080236227
   14      C       1.4406789604     0.7376112821    -0.1332360505
   15      O       0.7429223788     1.2930812680    -1.2566905663
   16      H      -1.0511902708     1.5169559480     1.4194813444
   17      H       0.5207206515    -0.1420485220     1.6593157157
   18      H      -1.2148456812    -3.7965902518     0.1893435875
   19      H      -4.2854245194    -1.0623025534     0.0050824805
   20      H       1.1045418062     3.8039630188    -0.3189231235
   21      H       0.1993515856     3.4528847927     1.1602853784
   22      H       2.8135275317     2.3447866745     0.4210113310
   23      H       1.8490647998     1.7755727070     1.7761135129
   24      H      -2.6687348822    -3.0850902788    -0.5816969973
   25      H      -1.1345822694    -3.2192404541    -1.4937017990
   26      H      -4.9051132440     0.6004981562     0.1063628054
   27      H      -4.8311886208    -0.4124213420     1.5822177242
   28      H      -0.8887908681     2.5627994147    -1.2147239694
   29      C       2.6444755562    -0.0498341490    -0.6069716897
   30      O       3.3364603915    -0.4974003565     0.5460014053
   31      H       3.2791988893     0.6225182592    -1.2032532258
   32      H       2.3428286639    -0.8898697730    -1.2354455070
   33      C       4.2696529943    -1.5242292452     0.2647382493
   34      H       4.7543110969    -1.7835580470     1.2064981100
   35      H       5.0350041156    -1.1864006459    -0.4487847819
   36      H       3.7642301905    -2.4096557665    -0.1395329087
 ----------------------------------------------------------------

    2    -919.7411825979      7.29E-09 Convergence criterion met
 Total energy in the final basis set = -919.74118260

                    Orbital Energies (a.u.)
 --------------------------------------------------------------

 Alpha MOs
 -- Occupied --
-19.179 -19.170 -19.131 -19.124 -19.118 -19.112 -10.312 -10.305
-10.241 -10.233 -10.230 -10.229 -10.214 -10.211 -10.207 -10.203
-10.176 -10.175  -1.123  -1.111  -1.065  -1.036  -1.031  -1.025
 -0.830  -0.789  -0.782  -0.749  -0.730  -0.707  -0.659  -0.641
 -0.605  -0.590  -0.570  -0.558  -0.536  -0.522  -0.506  -0.494
 -0.489  -0.489  -0.483  -0.479  -0.476  -0.465  -0.457  -0.441
 -0.429  -0.421  -0.418  -0.412  -0.399  -0.391  -0.374  -0.372
 -0.368  -0.359  -0.354  -0.351  -0.338  -0.330  -0.324  -0.320
 -0.308  -0.289  -0.280  -0.275  -0.260

          Ground-State Mulliken Net Atomic Charges

     Atom                 Charge (a.u.)
  ----------------------------------------
      1 C                     0.045919
      2 C                    -0.281940
      3 C                    -0.454926
      4 C                    -0.479036
      5 O                     0.026350
      6 O                    -0.189349
      7 O                    -0.086580
      8 O                    -0.206323
      9 C                    -0.216898
     10 C                    -0.152142
     11 C                     0.093052
     12 C                    -0.628415
     13 C                    -0.167063
     14 C                    -0.452202
     15 O                    -0.026963
     16 H                     0.281573
     17 H                     0.241209
     18 H                     0.186800
     19 H                     0.171404
     20 H                     0.184008
     21 H                     0.126119
     22 H                     0.173326
     23 H                     0.197110
     24 H                     0.126914
     25 H                     0.194816
     26 H                     0.171164
     27 H                     0.155368
     28 H                     0.297417
     29 C                     0.162822
     30 O                    -0.050003
     31 H                     0.164651
     32 H                     0.203071
     33 C                    -0.232380
     34 H                     0.140917
     35 H                     0.127299
     36 H                     0.152910
  ----------------------------------------
  Sum of atomic charges =    -0.000000

                    Cartesian Multipole Moments
 -----------------------------------------------------------------
    Charge (ESU x 10^10)
                -0.0000
    Dipole Moment (Debye)
         X      -1.3131      Y      -0.3401      Z       2.0947
       Tot       2.4956
    Quadrupole Moments (Debye-Ang)
        XX     -97.4032     XY       5.5748     YY     -99.1983
        XZ      -5.5681     YZ       3.8952     ZZ    -112.4085

 Frequency:       -46.63                  26.52                  53.04
 Force Cnst:      0.0080                 0.0019                 0.0052
 Red. Mass:       6.2475                 4.6718                 3.1530
 IR Intens:        1.394                  0.693                  1.402
 Frequency:        77.26                 100.66                 111.40
 Force Cnst:      0.0102                 0.0131                 0.0200
 Red. Mass:       2.9121                 2.2002                 2.7415
 IR Intens:        2.519                  2.212                  2.304
 Frequency:       114.76                 133.98                 141.09
 Force Cnst:      0.0123                 0.0345                 0.0195
 Red. Mass:       1.5873                 3.2613                 1.6630
 IR Intens:        2.547                  3.482                  0.488
 Frequency:       151.14                 164.20                 192.69
 Force Cnst:      0.0298                 0.0426                 0.0855
 Red. Mass:       2.2178                 2.6831                 3.9092
 IR Intens:        0.339                  0.949                  0.081
 Frequency:       220.64                 230.33                 245.54
 Force Cnst:      0.0756                 0.0740                 0.0971
 Red. Mass:       2.6368                 2.3666                 2.7349
 IR Intens:        1.023                  3.275                  2.060
 Frequency:       278.70                 291.99                 324.03
 Force Cnst:      0.1265                 0.2686                 0.2213
 Red. Mass:       2.7633                 5.3475                 3.5775
 IR Intens:        0.222                 13.160                  2.821
 Frequency:       340.21                 352.76                 371.82
 Force Cnst:      0.2432                 0.3357                 0.2367
 Red. Mass:       3.5666                 4.5784                 2.9061
 IR Intens:        1.572                  9.988                  0.950
 Frequency:       396.59                 411.96                 488.76
 Force Cnst:      0.3932                 0.4885                 0.5917
 Red. Mass:       4.2435                 4.8850                 4.2037
 IR Intens:       20.966                  0.425                 15.410
 Frequency:       578.68                 595.39                 658.29
 Force Cnst:      0.6409                 1.2580                 1.1443
 Red. Mass:       3.2484                 6.0231                 4.4817
 IR Intens:       12.174                 11.169                  2.650
 Frequency:       667.76                 725.66                 760.45
 Force Cnst:      1.5857                 1.3797                 2.2303
 Red. Mass:       6.0358                 4.4471                 6.5457
 IR Intens:        7.129                  3.800                  8.102
 Frequency:       797.26                 822.98                 837.31
 Force Cnst:      0.8853                 1.6166                 1.2780
 Red. Mass:       2.3641                 4.0510                 3.0940
 IR Intens:        8.375                  5.854                 19.334
 Frequency:       855.75                 870.27                 896.53
 Force Cnst:      1.3808                 2.3174                 1.1396
 Red. Mass:       3.2002                 5.1933                 2.4063
 IR Intens:        5.305                  0.783                  9.104
 Frequency:       909.68                 928.02                 950.68
 Force Cnst:      1.4104                 1.5220                 2.0166
 Red. Mass:       2.8928                 2.9995                 3.7870
 IR Intens:        2.189                 10.200                 28.876
 Frequency:       959.53                 981.66                 998.92
 Force Cnst:      2.2854                 2.0044                 1.7924
 Red. Mass:       4.2130                 3.5304                 3.0487
 IR Intens:       31.918                 16.038                 19.512
 Frequency:      1007.12                1025.73                1055.90
 Force Cnst:      1.6552                 2.3754                 3.0489
 Red. Mass:       2.7697                 3.8319                 4.6415
 IR Intens:       11.076                 34.161                 63.648
 Frequency:      1059.99                1080.70                1122.75
 Force Cnst:      1.4567                 2.5753                 1.4707
 Red. Mass:       2.2005                 3.7425                 1.9802
 IR Intens:       10.743                  5.005                 35.462
 Frequency:      1137.89                1166.84                1168.47
 Force Cnst:      2.4901                 1.0700                 1.0465
 Red. Mass:       3.2641                 1.3339                 1.3010
 IR Intens:      151.926                 12.107                  7.172
 Frequency:      1171.86                1182.45                1188.54
 Force Cnst:      1.0370                 2.1680                 1.3935
 Red. Mass:       1.2816                 2.6317                 1.6743
 IR Intens:        0.845                180.539                 13.891
 Frequency:      1196.52                1205.66                1209.85
 Force Cnst:      1.1211                 1.3509                 1.3112
 Red. Mass:       1.3291                 1.5774                 1.5204
 IR Intens:        4.169                 11.435                  1.864
 Frequency:      1213.78                1227.14                1241.85
 Force Cnst:      1.4508                 1.3959                 1.1681
 Red. Mass:       1.6714                 1.5733                 1.2856
 IR Intens:       45.138                 27.104                  9.622
 Frequency:      1256.92                1267.73                1287.90
 Force Cnst:      2.5804                 1.4314                 1.6296
 Red. Mass:       2.7722                 1.5117                 1.6675
 IR Intens:      409.462                121.896                 44.546
 Frequency:      1294.54                1315.64                1335.40
 Force Cnst:      1.5160                 1.4152                 1.5155
 Red. Mass:       1.5354                 1.3877                 1.4424
 IR Intens:       11.929                 26.369                  2.192
 Frequency:      1337.08                1349.30                1399.14
 Force Cnst:      1.7408                 1.6026                 1.8407
 Red. Mass:       1.6526                 1.4940                 1.5959
 IR Intens:        0.786                 16.523                 59.077
 Frequency:      1427.88                1468.31                1472.55
 Force Cnst:      1.8354                 1.5441                 1.5174
 Red. Mass:       1.5279                 1.2156                 1.1877
 IR Intens:        7.860                 10.887                 18.355
 Frequency:      1478.17                1480.80                1484.58
 Force Cnst:      1.5281                 1.3539                 1.3573
 Red. Mass:       1.1870                 1.0479                 1.0453
 IR Intens:        1.213                  7.741                  7.543
 Frequency:      1489.96                1493.13                1494.49
 Force Cnst:      1.3762                 1.4193                 1.3798
 Red. Mass:       1.0522                 1.0805                 1.0485
 IR Intens:        5.090                  1.074                 15.614
 Frequency:      1497.80                1504.10                1510.92
 Force Cnst:      1.3828                 1.4055                 1.4750
 Red. Mass:       1.0462                 1.0544                 1.0966
 IR Intens:        6.257                  7.234                 12.185
 Frequency:      1521.62                1777.35                1791.92
 Force Cnst:      1.4791                21.3040                20.9228
 Red. Mass:       1.0842                11.4463                11.0594
 IR Intens:       10.761                289.846                213.969
 Frequency:      2977.34                2986.13                3038.02
 Force Cnst:      5.4533                 5.6059                 5.9667
 Red. Mass:       1.0441                 1.0670                 1.0973
 IR Intens:       65.845                 83.456                 40.019
 Frequency:      3047.55                3054.50                3058.21
 Force Cnst:      5.6356                 5.6587                 5.8400
 Red. Mass:       1.0299                 1.0294                 1.0598
 IR Intens:       33.262                 36.117                 27.587
 Frequency:      3073.91                3077.69                3085.11
 Force Cnst:      6.0198                 5.9393                 6.1172
 Red. Mass:       1.0813                 1.0642                 1.0908
 IR Intens:       11.393                 17.385                 15.206
 Frequency:      3087.77                3099.21                3113.17
 Force Cnst:      6.0862                 6.2629                 6.2718
 Red. Mass:       1.0834                 1.1067                 1.0983
 IR Intens:        8.158                  7.076                 29.943
 Frequency:      3118.01                3121.96                3130.44
 Force Cnst:      6.3378                 6.3531                 6.3934
 Red. Mass:       1.1064                 1.1063                 1.1073
 IR Intens:       23.632                 32.339                 14.222
 Frequency:      3153.12                3157.19                3160.65
 Force Cnst:      6.4780                 6.4039                 6.5123
 Red. Mass:       1.1059                 1.0904                 1.1064
 IR Intens:       16.100                 11.939                 13.158

 STANDARD THERMODYNAMIC QUANTITIES AT   298.15 K  AND     1.00 ATM

   This Molecule has  1 Imaginary Frequencies
   Zero point vibrational energy:      187.210 kcal/mol

   Atom    1 Element C  Has Mass   12.00000
   Atom    2 Element C  Has Mass   12.00000
   Atom    3 Element C  Has Mass   12.00000
   Atom    4 Element C  Has Mass   12.00000
   Atom    5 Element O  Has Mass   15.99491
   Atom    6 Element O  Has Mass   15.99491
   Atom    7 Element O  Has Mass   15.99491
   Atom    8 Element O  Has Mass   15.99491
   Atom    9 Element C  Has Mass   12.00000
   Atom   10 Element C  Has Mass   12.00000
   Atom   11 Element C  Has Mass   12.00000
   Atom   12 Element C  Has Mass   12.00000
   Atom   13 Element C  Has Mass   12.00000
   Atom   14 Element C  Has Mass   12.00000
   Atom   15 Element O  Has Mass   15.99491
   Atom   16 Element H  Has Mass    1.00783
   Atom   17 Element H  Has Mass    1.00783
   Atom   18 Element H  Has Mass    1.00783
   Atom   19 Element H  Has Mass    1.00783
   Atom   20 Element H  Has Mass    1.00783
   Atom   21 Element H  Has Mass    1.00783
   Atom   22 Element H  Has Mass    1.00783
   Atom   23 Element H  Has Mass    1.00783
   Atom   24 Element H  Has Mass    1.00783
   Atom   25 Element H  Has Mass    1.00783
   Atom   26 Element H  Has Mass    1.00783
   Atom   27 Element H  Has Mass    1.00783
   Atom   28 Element H  Has Mass    1.00783
   Atom   29 Element C  Has Mass   12.00000
   Atom   30 Element O  Has Mass   15.99491
   Atom   31 Element H  Has Mass    1.00783
   Atom   32 Element H  Has Mass    1.00783
   Atom   33 Element C  Has Mass   12.00000
   Atom   34 Element H  Has Mass    1.00783
   Atom   35 Element H  Has Mass    1.00783
   Atom   36 Element H  Has Mass    1.00783
   Molecular Mass:   258.110400 amu
   Principal axes and moments of inertia in amu*Bohr^2:
                             1           2           3
    Eigenvalues --     2773.42313  5261.14608  7174.13867
          X               0.99996     0.00851     0.00061
          Y              -0.00850     0.99988    -0.01262
          Z              -0.00071     0.01262     0.99992
   Rotational Symmetry Number is   1
   The Molecule is an Asymmetric Top
   Translational Enthalpy:        0.889 kcal/mol
   Rotational Enthalpy:           0.889 kcal/mol
   Vibrational Enthalpy:        196.325 kcal/mol
   gas constant (RT):             0.592 kcal/mol
   Translational Entropy:        42.544  cal/mol.K
   Rotational Entropy:           33.014  cal/mol.K
   Vibrational Entropy:          58.806  cal/mol.K

   Total Enthalpy:              198.695 kcal/mol
   Total Entropy:               134.365  cal/mol.K

 Total job time:  11853.42s(wall), 45079.73s(cpu)
        *  Thank you very much for using Q-Chem.  Have a nice day.  *
