 Q-Chem 5.0, Q-Chem, Inc., Pleasanton, CA (2017)
 Q-Chem 5.0.1 for Intel X86 EM64T Linux

User input:
--------------------------------------------------------------
$molecule
0 1
C -0.93429455 1.19832172 0.48857997
C 0.22117921 0.16560062 0.74078557
C -2.27384492 0.62936662 0.06221183
C -0.06260609 -1.27491218 0.36228754
O -2.68389297 -0.30879153 0.94373223
O -2.93131821 0.99579496 -0.87793540
O -0.66246890 -1.37901413 -0.84101050
O 0.25472476 -2.22817343 1.03071232
C -0.96614978 -2.70904180 -1.29134903
C -3.93402237 -0.95579056 0.64655399
C -0.29690007 2.14784723 -0.55413681
C 0.67939463 3.09412246 0.16931088
C 1.82796619 2.10679956 0.53072888
C 1.34411508 0.80188291 -0.15767435
O 0.59802012 1.28685902 -1.27950745
H -1.13795748 1.73040500 1.42269292
H 0.52635300 0.13869505 1.78363877
H -1.62458654 -3.21141136 -0.58040868
H -3.88932554 -1.42840070 -0.33613865
H 1.02428553 3.87074584 -0.51507968
H 0.23426712 3.58082187 1.03971552
H 2.78172406 2.42088676 0.10442805
H 1.97118931 1.97495895 1.60317060
H -1.45955865 -2.58226027 -2.25240149
H -0.05154909 -3.29393141 -1.40301982
H -4.75220346 -0.23406589 0.65987359
H -4.06694218 -1.70185968 1.42673354
H -1.00706999 2.59955686 -1.24044062
C 2.44373101 -0.12874402 -0.62389389
O 3.18773177 -0.51055564 0.51711064
H 3.07691109 0.39799343 -1.35249230
H 2.01785807 -1.00681074 -1.12783973
C 4.09529179 -1.56651919 0.26310980
H 4.61326888 -1.77567089 1.19892795
H 4.83278133 -1.28662547 -0.50233373
H 3.56543806 -2.47120306 -0.06366330
$end

$rem
sym_ignore      true
jobtype         opt
method          b3lyp
basis           6-311++G(d,p)
dft_d           d3_op
mem_total       62000
MEM_STATIC      4000
ao2mo_disk      350000
max_scf_cycles  200
geom_opt_max_cycles 1000
geom_opt_tol_displacement 1
GEOM_OPT_TOL_GRADIENT       1
GEOM_OPT_TOL_ENERGY         1
$end

--------------------------------------------------------------

   15    -919.7485272448      4.09E-09 Convergence criterion met
 Total energy in the final basis set = -919.74852724
   11    -919.7485333924      4.70E-09 Convergence criterion met
 Total energy in the final basis set = -919.74853339
   11    -919.7485397959      8.76E-09 Convergence criterion met
 Total energy in the final basis set = -919.74853980
   12    -919.7484859251      7.30E-09 Convergence criterion met
 Total energy in the final basis set = -919.74848593
   11    -919.7485466926      7.30E-09 Convergence criterion met
 Total energy in the final basis set = -919.74854669
   11    -919.7485238899      4.76E-09 Convergence criterion met
 Total energy in the final basis set = -919.74852389
   11    -919.7485470280      3.40E-09 Convergence criterion met
 Total energy in the final basis set = -919.74854703
   10    -919.7485455830      5.09E-09 Convergence criterion met
   10    -919.7485437760      5.66E-09 Convergence criterion met
 Total energy in the final basis set = -919.74854378
    8    -919.7485437293      5.32E-09 Convergence criterion met
 Total energy in the final basis set = -919.74854373
    8    -919.7485440294      4.23E-09 Convergence criterion met
 Total energy in the final basis set = -919.74854403
    7    -919.7485442393      9.01E-09 Convergence criterion met
 Total energy in the final basis set = -919.74854424
    6    -919.7485442708      2.90E-09 Convergence criterion met
 Total energy in the final basis set = -919.74854427
    5    -919.7485442640      6.44E-09 Convergence criterion met
 Total energy in the final basis set = -919.74854426
 Final energy is   -919.748544264049
 **  OPTIMIZATION CONVERGED  **
 Total job time:  1307.25s(wall), 18451.35s(cpu)
        *  Thank you very much for using Q-Chem.  Have a nice day.  *

User input: 2 of 2

r0219.ten.osc.edu 10.25.156
Q-Chem Developer Version! Running on 10.25.156.*
                  Welcome to Q-Chem
     A Quantum Leap Into The Future Of Chemistry

 Q-Chem 5.0, Q-Chem, Inc., Pleasanton, CA (2017)

 Yihan Shao,  Zhengting Gan,  E. Epifanovsky,  A. T. B. Gilbert,  M. Wormit,
 J. Kussmann,  A. W. Lange,  A. Behn,  Jia Deng,  Xintian Feng,  D. Ghosh,
 M. Goldey,  P. R. Horn,  L. D. Jacobson,  I. Kaliman,  T. Kus,  A. Landau,
 Jie Liu,  E. I. Proynov,  R. M. Richard,  R. P. Steele,  E. J. Sundstrom,
 H. L. Woodcock III,  P. M. Zimmerman,  D. Zuev,  B. Albrecht,  E. Alguire,
 S. A. Baeppler,  Z. Benda,  Y. A. Bernard,  E. J. Berquist,  K. B. Bravaya,
 D. Casanova,  Chun-Min Chang,  Yunqing Chen,  A. Chien,  K. D. Closser,
 M. P. Coons,  S. Dasgupta,  M. Diedenhofen,  Hainam Do,  R. G. Edgar,
 Po-Tung Fang,  S. Fatehi,  Qingguo Feng,  Qinghui Ge,  A. Ghysels,
 J. Gomes,  J. Gonthier,  A. Gunina,  M. W. D. Hanson-Heine,
 P. H. P. Harbach,  A. W. Hauser,  J. E. Herr,  E. G. Hohenstein,
 Z. C. Holden,  Kerwin Hui,  T.-C. Jagau,  Hyunjun Ji,  B. Kaduk,
 K. Khistyaev,  Jaehoon Kim,  P. Klunzinger,  K. Koh,  D. Kosenkov,
 T. Kowalczyk,  C. M. Krauter,  A. Kunitsa,  Ka Un Lao,  A. Laurent,
 K. V. Lawler,  Joonho Lee,  D. Lefrancois,  S. Lehtola,  D. S. Levine,
 Yi-Pei Li,  You-Sheng Lin,  Fenglai Liu,  E. Livshits,  A. Luenser,
 P. Manohar,  E. Mansoor,  S. F. Manzer,  Shan-Ping Mao,  Yuezhi Mao,
 N. Mardirossian,  A. V. Marenich,  L. A. Martinez-Martinez,  S. A. Maurer,
 N. J. Mayhall,  S. C. McKenzie,  J.-M. Mewes,  A. F. Morrison,  K. Nanda,
 T. S. Nguyen-Beck,  R. Olivares-Amaya,  J. A. Parkhill,  T. M. Perrine,
 F. Plasser,  S. Prager,  A. Prociuk,  D. R. Rehn,  F. Rob,  M. Schneider,
 N. Sergueev,  S. M. Sharada,  S. Sharma,  D. W. Small,  T. Stauch,
 T. Stein,  Yu-Chuan Su,  A. J. W. Thom,  T. Tsuchimochi,  L. Vogt,
 O. Vydrov,  M. A. Watson,  J. Wenzel,  M. de Wergifosse,  T. A. Wesolowski,
 A. White,  J. Witte,  A. Yamada,  Jun Yang,  K. Yao,  S. Yeganeh,
 S. R. Yost,  Zhi-Qiang You,  A. Zech,  Igor Ying Zhang,  Xing Zhang,
 Yan Zhao,  Ying Zhu,  B. R. Brooks,  G. K. L. Chan,  C. J. Cramer,
 M. S. Gordon,  W. J. Hehre,  A. Klamt,  M. W. Schmidt,  C. D. Sherrill,
 D. G. Truhlar,  A. Aspuru-Guzik,  R. Baer,  A. T. Bell,  N. A. Besley,
 Jeng-Da Chai,  A. Dreuw,  B. D. Dunietz,  T. R. Furlani,  Chao-Ping Hsu,
 Yousung Jung,  Jing Kong,  D. S. Lambrecht,  WanZhen Liang,  C. Ochsenfeld,
 V. A. Rassolov,  L. V. Slipchenko,  J. E. Subotnik,  T. Van Voorhis,
 J. M. Herbert,  A. I. Krylov,  P. M. W. Gill,  M. Head-Gordon

 Contributors to earlier versions of Q-Chem not listed above:
 R. D. Adamson,  B. Austin,  J. Baker,  G. J. O. Beran,  K. Brandhorst,
 S. T. Brown,  E. F. C. Byrd,  A. K. Chakraborty,  C.-L. Cheng,
 Siu Hung Chien,  D. M. Chipman,  D. L. Crittenden,  H. Dachsel,
 R. A. DiStasio Jr.,  R. J. Doerksen,  A. D. Dutoi,  L. Fusti-Molnar,
 W. A. Goddard III,  A. Golubeva-Zadorozhnaya,  S. R. Gwaltney,  G. Hawkins,
 A. Heyden,  S. Hirata,  G. Kedziora,  F. J. Keil,  C. Kelley,  Jihan Kim,
 R. A. King,  R. Z. Khaliullin,  P. P. Korambath,  W. Kurlancheek,
 A. M. Lee,  M. S. Lee,  S. V. Levchenko,  Ching Yeh Lin,  D. Liotard,
 R. C. Lochan,  I. Lotan,  P. E. Maslen,  N. Nair,  D. P. O'Neill,
 D. Neuhauser,  E. Neuscamman,  C. M. Oana,  R. Olson,  B. Peters,
 R. Peverati,  P. A. Pieniazek,  Y. M. Rhee,  J. Ritchie,  M. A. Rohrdanz,
 E. Rosta,  N. J. Russ,  H. F. Schaefer III,  N. E. Schultz,  N. Shenvi,
 A. C. Simmonett,  A. Sodt,  D. Stuck,  K. S. Thanthiriwatte,  V. Vanovschi,
 Tao Wang,  A. Warshel,  C. F. Williams,  Q. Wu,  X. Xu,  W. Zhang

 Please cite Q-Chem as follows:
 Y. Shao et al., Mol. Phys. 113, 184-215 (2015)
 DOI: 10.1080/00268976.2014.952696

 Q-Chem 5.0.1 for Intel X86 EM64T Linux

 Parts of Q-Chem use Armadillo 5.200.1 (Boston Tea Smuggler).
 http://arma.sourceforge.net/

 Q-Chem begins on Tue Oct 24 09:54:31 2017

Host: r0219.ten.osc.edu
0

     Scratch files written to /tmp/pbstmp.1324381/02//
Processing $rem in /users/PAS0291/osu6415/.qchemrc.
molden_format             true
The previous job contains 0 fragments, simply inherited here

Checking the input file for inconsistencies... 	...done.

--------------------------------------------------------------
User input:
--------------------------------------------------------------

$molecule
read
$end

$rem
sym_ignore      true
scf_guess       read
jobtype         freq
method          b3lyp
basis           6-311++G(d,p)
dft_d           d3_op
mem_total       62000
MEM_STATIC      4000
ao2mo_disk      350000
max_scf_cycles  200
$end
--------------------------------------------------------------

             Standard Nuclear Orientation (Angstroms)
    I     Atom           X                Y                Z
 ----------------------------------------------------------------
    1      C      -0.9408658461     1.2105377437     0.5007823244
    2      C       0.2227844027     0.1845894442     0.7543899321
    3      C      -2.2651955559     0.6300900250     0.0412778281
    4      C      -0.0703927479    -1.2628183889     0.4122549946
    5      O      -2.6953808725    -0.3009874056     0.9205906181
    6      O      -2.8938365396     0.9771780398    -0.9254407328
    7      O      -0.6193015410    -1.3947476633    -0.8131291401
    8      O       0.1877282416    -2.1985010905     1.1286411892
    9      C      -0.9369604976    -2.7326043144    -1.2300989708
   10      C      -3.9284183025    -0.9648482269     0.5905570464
   11      C      -0.2994463413     2.1717899885    -0.5275489922
   12      C       0.6860471149     3.1017900855     0.2060524035
   13      C       1.8424802584     2.1099681976     0.5269079828
   14      C       1.3375595618     0.8132963715    -0.1598820428
   15      O       0.5830710320     1.3126789954    -1.2694074867
   16      H      -1.1634784743     1.7291990288     1.4376661202
   17      H       0.5354428813     0.1778856082     1.7953687046
   18      H      -1.6294606735    -3.1974918804    -0.5262076348
   19      H      -3.8467406804    -1.4480483072    -0.3845965222
   20      H       1.0193531167     3.8977050918    -0.4615219045
   21      H       0.2509303179     3.5634033044     1.0949331223
   22      H       2.7827374356     2.4260818755     0.0728172757
   23      H       2.0185419334     1.9694092127     1.5932413907
   24      H      -1.3948556836    -2.6276888221    -2.2111246147
   25      H      -0.0321166796    -3.3398086405    -1.2911187998
   26      H      -4.7540945464    -0.2519370940     0.5692182544
   27      H      -4.0785439180    -1.7034524891     1.3747128373
   28      H      -1.0087506122     2.6385975065    -1.2045652146
   29      C       2.4215378391    -0.1259011064    -0.6448756337
   30      O       3.1681530699    -0.5309478925     0.4869758103
   31      H       3.0569844403     0.4011444478    -1.3712452344
   32      H       1.9797343171    -0.9915573875    -1.1560610570
   33      C       4.0750023022    -1.5813635972     0.2100970463
   34      H       4.5959558047    -1.8083185809     1.1401085655
   35      H       4.8101197026    -1.2870761335    -0.5522033782
   36      H       3.5452159602    -2.4803690358    -0.1325869270
 ----------------------------------------------------------------

    2    -919.7485442657      2.75E-09 Convergence criterion met
 Total energy in the final basis set = -919.74854427

                    Orbital Energies (a.u.)
 --------------------------------------------------------------

 Alpha MOs
 -- Occupied --
-19.175 -19.172 -19.134 -19.132 -19.119 -19.115 -10.309 -10.304
-10.243 -10.232 -10.230 -10.230 -10.226 -10.217 -10.206 -10.203
-10.178 -10.177  -1.119  -1.112  -1.066  -1.046  -1.031  -1.026
 -0.832  -0.795  -0.783  -0.747  -0.729  -0.713  -0.662  -0.648
 -0.606  -0.589  -0.568  -0.563  -0.538  -0.518  -0.515  -0.500
 -0.494  -0.485  -0.483  -0.477  -0.474  -0.470  -0.459  -0.448
 -0.430  -0.425  -0.424  -0.407  -0.398  -0.393  -0.380  -0.373
 -0.369  -0.361  -0.357  -0.357  -0.341  -0.334  -0.327  -0.319
 -0.313  -0.289  -0.281  -0.275  -0.269

          Ground-State Mulliken Net Atomic Charges

     Atom                 Charge (a.u.)
  ----------------------------------------
      1 C                    -0.021242
      2 C                     0.396958
      3 C                    -0.519034
      4 C                    -0.685396
      5 O                    -0.016764
      6 O                    -0.203837
      7 O                     0.019734
      8 O                    -0.105996
      9 C                    -0.198413
     10 C                    -0.202627
     11 C                    -0.094134
     12 C                    -0.481635
     13 C                    -0.322379
     14 C                    -0.898808
     15 O                    -0.051584
     16 H                     0.250020
     17 H                     0.291173
     18 H                     0.191470
     19 H                     0.178120
     20 H                     0.185602
     21 H                     0.123836
     22 H                     0.164522
     23 H                     0.185398
     24 H                     0.180432
     25 H                     0.167858
     26 H                     0.173819
     27 H                     0.164682
     28 H                     0.286045
     29 C                     0.306683
     30 O                    -0.031757
     31 H                     0.192533
     32 H                     0.185202
     33 C                    -0.237415
     34 H                     0.149794
     35 H                     0.135696
     36 H                     0.141440
  ----------------------------------------
  Sum of atomic charges =     0.000000

                    Cartesian Multipole Moments
 -----------------------------------------------------------------
    Charge (ESU x 10^10)
                -0.0000
    Dipole Moment (Debye)
         X       0.1838      Y      -0.2685      Z       0.2550
       Tot       0.4134
    Quadrupole Moments (Debye-Ang)
        XX     -97.9573     XY       4.9131     YY    -100.7759
        XZ      -6.8825     YZ      10.8823     ZZ    -112.7384

 Frequency:        24.90                  40.82                  54.91
 Force Cnst:      0.0018                 0.0031                 0.0075
 Red. Mass:       4.9577                 3.2020                 4.2455
 IR Intens:        0.230                  1.217                  2.620
 Frequency:        77.28                  82.52                  98.06
 Force Cnst:      0.0120                 0.0136                 0.0165
 Red. Mass:       3.3971                 3.3935                 2.9208
 IR Intens:        1.719                  1.439                  2.017
 Frequency:       101.21                 126.94                 128.15
 Force Cnst:      0.0127                 0.0309                 0.0152
 Red. Mass:       2.0974                 3.2596                 1.5658
 IR Intens:        2.226                  3.429                  0.329
 Frequency:       138.38                 139.51                 172.67
 Force Cnst:      0.0138                 0.0361                 0.0635
 Red. Mass:       1.2246                 3.1455                 3.6153
 IR Intens:        0.241                  2.381                  1.043
 Frequency:       222.79                 231.84                 251.02
 Force Cnst:      0.0799                 0.0656                 0.1031
 Red. Mass:       2.7314                 2.0729                 2.7765
 IR Intens:        4.004                  0.120                  6.584
 Frequency:       267.01                 281.11                 317.11
 Force Cnst:      0.1424                 0.1694                 0.1894
 Red. Mass:       3.3903                 3.6378                 3.1974
 IR Intens:        3.318                  4.582                  5.192
 Frequency:       323.60                 344.28                 366.56
 Force Cnst:      0.2242                 0.2810                 0.2570
 Red. Mass:       3.6339                 4.0233                 3.2463
 IR Intens:        2.530                  2.904                  5.492
 Frequency:       375.32                 426.42                 474.55
 Force Cnst:      0.5288                 0.4872                 0.6564
 Red. Mass:       6.3709                 4.5475                 4.9473
 IR Intens:       10.930                  0.946                 11.117
 Frequency:       574.96                 619.12                 653.05
 Force Cnst:      0.7034                 1.3437                 1.0371
 Red. Mass:       3.6115                 5.9498                 4.1273
 IR Intens:       20.569                  8.247                  0.861
 Frequency:       684.83                 714.86                 753.69
 Force Cnst:      1.4559                 1.5586                 1.7253
 Red. Mass:       5.2691                 5.1764                 5.1551
 IR Intens:        0.785                  6.272                  9.209
 Frequency:       803.15                 820.04                 836.26
 Force Cnst:      0.9939                 1.6409                 0.9730
 Red. Mass:       2.6153                 4.1415                 2.3614
 IR Intens:        3.929                 20.103                  1.057
 Frequency:       860.58                 871.35                 889.65
 Force Cnst:      2.1072                 2.1814                 1.3825
 Red. Mass:       4.8293                 4.8765                 2.9647
 IR Intens:        5.226                  3.450                  2.932
 Frequency:       907.49                 926.01                 946.87
 Force Cnst:      1.4878                 1.2240                 1.7108
 Red. Mass:       3.0663                 2.4228                 3.2386
 IR Intens:        6.299                 18.209                 11.850
 Frequency:       955.80                 977.21                 994.80
 Force Cnst:      2.5273                 1.3704                 2.0105
 Red. Mass:       4.6954                 2.4357                 3.4482
 IR Intens:       50.652                 10.341                 19.303
 Frequency:      1006.64                1030.27                1055.95
 Force Cnst:      1.6743                 1.7460                 1.9759
 Red. Mass:       2.8044                 2.7919                 3.0076
 IR Intens:       12.660                 17.897                 39.998
 Frequency:      1064.83                1078.57                1128.95
 Force Cnst:      3.0016                 2.0846                 1.3925
 Red. Mass:       4.4930                 3.0415                 1.8544
 IR Intens:       48.593                 16.293                 40.732
 Frequency:      1141.93                1168.54                1170.98
 Force Cnst:      2.7369                 1.0393                 1.0384
 Red. Mass:       3.5623                 1.2919                 1.2853
 IR Intens:      146.019                 12.416                  2.002
 Frequency:      1171.66                1189.53                1192.94
 Force Cnst:      1.0370                 1.2694                 1.6176
 Red. Mass:       1.2821                 1.5226                 1.9292
 IR Intens:        0.409                 16.937                 86.671
 Frequency:      1201.81                1204.29                1205.80
 Force Cnst:      1.5514                 1.2964                 1.2958
 Red. Mass:       1.8231                 1.5172                 1.5126
 IR Intens:       34.659                 22.859                 12.378
 Frequency:      1212.99                1224.69                1230.53
 Force Cnst:      1.6482                 1.4601                 1.1677
 Red. Mass:       1.9013                 1.6523                 1.3089
 IR Intens:      104.873                 45.790                 20.636
 Frequency:      1259.17                1267.97                1281.78
 Force Cnst:      1.5722                 1.8906                 1.4603
 Red. Mass:       1.6830                 1.9959                 1.5086
 IR Intens:      107.639                146.497                 87.931
 Frequency:      1293.11                1314.32                1326.41
 Force Cnst:      1.6238                 1.6344                 1.6722
 Red. Mass:       1.6482                 1.6059                 1.6131
 IR Intens:       19.333                  8.135                 14.552
 Frequency:      1339.85                1359.06                1376.03
 Force Cnst:      1.6351                 1.5147                 2.0020
 Red. Mass:       1.5459                 1.3918                 1.7945
 IR Intens:       18.174                  5.836                 35.816
 Frequency:      1423.65                1467.08                1468.00
 Force Cnst:      1.9606                 1.5243                 1.5122
 Red. Mass:       1.6419                 1.2020                 1.1909
 IR Intens:        8.931                  6.145                 22.253
 Frequency:      1480.42                1480.77                1482.99
 Force Cnst:      1.4760                 1.3720                 1.3550
 Red. Mass:       1.1431                 1.0620                 1.0457
 IR Intens:        3.343                  0.218                 14.014
 Frequency:      1489.73                1491.29                1492.62
 Force Cnst:      1.4117                 1.3777                 1.3749
 Red. Mass:       1.0796                 1.0514                 1.0474
 IR Intens:        0.916                  7.591                 14.719
 Frequency:      1500.27                1502.58                1512.11
 Force Cnst:      1.4092                 1.3953                 1.4855
 Red. Mass:       1.0626                 1.0489                 1.1027
 IR Intens:        7.456                  3.293                  8.642
 Frequency:      1532.12                1785.81                1797.82
 Force Cnst:      1.4965                20.3334                22.4581
 Red. Mass:       1.0821                10.8215                11.7932
 IR Intens:        6.005                242.795                271.279
 Frequency:      2975.37                2986.21                3020.86
 Force Cnst:      5.4211                 5.5480                 5.9222
 Red. Mass:       1.0393                 1.0560                 1.1015
 IR Intens:       53.165                 62.319                 81.326
 Frequency:      3026.64                3045.83                3048.03
 Force Cnst:      5.9661                 5.6307                 5.6385
 Red. Mass:       1.1054                 1.0302                 1.0301
 IR Intens:       14.461                 21.655                 42.283
 Frequency:      3058.05                3063.39                3071.77
 Force Cnst:      5.8939                 5.9322                 5.9120
 Red. Mass:       1.0697                 1.0729                 1.0634
 IR Intens:        9.559                 28.165                 28.927
 Frequency:      3100.05                3115.69                3120.11
 Force Cnst:      6.2604                 6.3288                 6.2925
 Red. Mass:       1.1056                 1.1065                 1.0971
 IR Intens:        6.449                 29.481                 19.642
 Frequency:      3120.34                3120.47                3139.02
 Force Cnst:      6.3372                 6.3504                 6.3109
 Red. Mass:       1.1047                 1.1069                 1.0871
 IR Intens:       29.073                 15.397                  7.227
 Frequency:      3157.03                3157.50                3161.15
 Force Cnst:      6.4934                 6.4967                 6.4197
 Red. Mass:       1.1058                 1.1060                 1.0904
 IR Intens:        7.841                 11.961                  9.056

 STANDARD THERMODYNAMIC QUANTITIES AT   298.15 K  AND     1.00 ATM

   This Molecule has  0 Imaginary Frequencies
   Zero point vibrational energy:      186.917 kcal/mol

   Atom    1 Element C  Has Mass   12.00000
   Atom    2 Element C  Has Mass   12.00000
   Atom    3 Element C  Has Mass   12.00000
   Atom    4 Element C  Has Mass   12.00000
   Atom    5 Element O  Has Mass   15.99491
   Atom    6 Element O  Has Mass   15.99491
   Atom    7 Element O  Has Mass   15.99491
   Atom    8 Element O  Has Mass   15.99491
   Atom    9 Element C  Has Mass   12.00000
   Atom   10 Element C  Has Mass   12.00000
   Atom   11 Element C  Has Mass   12.00000
   Atom   12 Element C  Has Mass   12.00000
   Atom   13 Element C  Has Mass   12.00000
   Atom   14 Element C  Has Mass   12.00000
   Atom   15 Element O  Has Mass   15.99491
   Atom   16 Element H  Has Mass    1.00783
   Atom   17 Element H  Has Mass    1.00783
   Atom   18 Element H  Has Mass    1.00783
   Atom   19 Element H  Has Mass    1.00783
   Atom   20 Element H  Has Mass    1.00783
   Atom   21 Element H  Has Mass    1.00783
   Atom   22 Element H  Has Mass    1.00783
   Atom   23 Element H  Has Mass    1.00783
   Atom   24 Element H  Has Mass    1.00783
   Atom   25 Element H  Has Mass    1.00783
   Atom   26 Element H  Has Mass    1.00783
   Atom   27 Element H  Has Mass    1.00783
   Atom   28 Element H  Has Mass    1.00783
   Atom   29 Element C  Has Mass   12.00000
   Atom   30 Element O  Has Mass   15.99491
   Atom   31 Element H  Has Mass    1.00783
   Atom   32 Element H  Has Mass    1.00783
   Atom   33 Element C  Has Mass   12.00000
   Atom   34 Element H  Has Mass    1.00783
   Atom   35 Element H  Has Mass    1.00783
   Atom   36 Element H  Has Mass    1.00783
   Molecular Mass:   258.110400 amu
   Principal axes and moments of inertia in amu*Bohr^2:
                             1           2           3
    Eigenvalues --     2916.87650  4767.44755  6546.97304
          X               0.99963    -0.02556    -0.00933
          Y               0.02588     0.99904     0.03524
          Z               0.00842    -0.03547     0.99934
   Rotational Symmetry Number is   1
   The Molecule is an Asymmetric Top
   Translational Enthalpy:        0.889 kcal/mol
   Rotational Enthalpy:           0.889 kcal/mol
   Vibrational Enthalpy:        196.750 kcal/mol
   gas constant (RT):             0.592 kcal/mol
   Translational Entropy:        42.544  cal/mol.K
   Rotational Entropy:           32.876  cal/mol.K
   Vibrational Entropy:          66.226  cal/mol.K

   Total Enthalpy:              199.120 kcal/mol
   Total Entropy:               141.646  cal/mol.K

 Total job time:  12167.95s(wall), 46407.35s(cpu)
        *  Thank you very much for using Q-Chem.  Have a nice day.  *
