                               Psi4 1.1 release

  ==> Input File <==

--------------------------------------------------------------------------
memory 750000 mb

molecule mol {
0 1
C         -1.04996        1.43177       -0.15874
O         -1.65162        2.08407       -0.97597
O         -0.30151        1.95137        0.82915
C         -0.06265        3.36869        0.75705
H          0.50476        3.59844       -0.14619
H          0.51621        3.60985        1.64570
H         -1.00499        3.91780        0.74868
--
0 1
C          1.38133       -0.30816       -0.24314
O          1.60473        0.70196       -0.86776
O          2.35117       -1.07681        0.29518
C          3.70168       -0.63627        0.06372
H          3.90908       -0.58913       -1.00635
H          4.33379       -1.37798        0.54667
H          3.85994        0.34912        0.50421
--
0 1
H         -3.25762        0.00115       -0.04972
H          0.74564       -2.89430        0.16851
C          0.02286       -0.88416       -0.01269
C         -1.11779       -0.06314       -0.06094
C         -0.13463       -2.26637        0.13731
C         -1.40386       -2.83152        0.22298
C         -2.53218       -2.01783        0.15126
C         -2.38643       -0.64037        0.00581
H         -3.52382       -2.45222        0.20758
H         -1.51030       -3.90440        0.33487

symmetry c1
no_reorient
no_com
}

set {
basis jun-cc-pvdz
scf_type df
guess sad
freeze_core true
}

energy('fisapt0')
--------------------------------------------------------------------------

    Molecular point group: c1

    Geometry (in Angstrom), charge = 0, multiplicity = 1:

       Center              X                  Y                   Z               Mass
    ------------   -----------------  -----------------  -----------------  -----------------
           C         -1.049960000000     1.431770000000    -0.158740000000    12.000000000000
           O         -1.651620000000     2.084070000000    -0.975970000000    15.994914619560
           O         -0.301510000000     1.951370000000     0.829150000000    15.994914619560
           C         -0.062650000000     3.368690000000     0.757050000000    12.000000000000
           H          0.504760000000     3.598440000000    -0.146190000000     1.007825032070
           H          0.516210000000     3.609850000000     1.645700000000     1.007825032070
           H         -1.004990000000     3.917800000000     0.748680000000     1.007825032070
           C          1.381330000000    -0.308160000000    -0.243140000000    12.000000000000
           O          1.604730000000     0.701960000000    -0.867760000000    15.994914619560
           O          2.351170000000    -1.076810000000     0.295180000000    15.994914619560
           C          3.701680000000    -0.636270000000     0.063720000000    12.000000000000
           H          3.909080000000    -0.589130000000    -1.006350000000     1.007825032070
           H          4.333790000000    -1.377980000000     0.546670000000     1.007825032070
           H          3.859940000000     0.349120000000     0.504210000000     1.007825032070
           H         -3.257620000000     0.001150000000    -0.049720000000     1.007825032070
           H          0.745640000000    -2.894300000000     0.168510000000     1.007825032070
           C          0.022860000000    -0.884160000000    -0.012690000000    12.000000000000
           C         -1.117790000000    -0.063140000000    -0.060940000000    12.000000000000
           C         -0.134630000000    -2.266370000000     0.137310000000    12.000000000000
           C         -1.403860000000    -2.831520000000     0.222980000000    12.000000000000
           C         -2.532180000000    -2.017830000000     0.151260000000    12.000000000000
           C         -2.386430000000    -0.640370000000     0.005810000000    12.000000000000
           H         -3.523820000000    -2.452220000000     0.207580000000     1.007825032070
           H         -1.510300000000    -3.904400000000     0.334870000000     1.007825032070

  Charge       = 0
  Multiplicity = 1
  Basis Set: JUN-CC-PVDZ
    Blend: JUN-CC-PVDZ
  Basis Set: (JUN-CC-PVDZ AUX)
    Blend: JUN-CC-PVDZ-JKFIT

    Orbital Energies (a.u.)
    -----------------------

    Doubly Occupied:

       1A    -20.618128     2A    -20.606864     3A    -20.561669
       4A    -20.554469     5A    -11.401402     6A    -11.393991
       7A    -11.301146     8A    -11.289573     9A    -11.278706
      10A    -11.276542    11A    -11.267753    12A    -11.266979
      13A    -11.263711    14A    -11.262884    15A     -1.474195
      16A     -1.463948    17A     -1.372559    18A     -1.364268
      19A     -1.185018    20A     -1.067881    21A     -1.057121
      22A     -0.986825    23A     -0.971686    24A     -0.885642
      25A     -0.863775    26A     -0.799760    27A     -0.780026
      28A     -0.748192    29A     -0.717291    30A     -0.687919
      31A     -0.683156    32A     -0.675039    33A     -0.668921
      34A     -0.662232    35A     -0.636054    36A     -0.630871
      37A     -0.594381    38A     -0.592972    39A     -0.565528
      40A     -0.551051    41A     -0.544529    42A     -0.534189
      43A     -0.530251    44A     -0.519250    45A     -0.514157
      46A     -0.472671    47A     -0.460515    48A     -0.455903
      49A     -0.451866    50A     -0.360240    51A     -0.356695

  @DF-RHF Final Energy:  -684.04862408232111

   => Energetics <=

    Nuclear Repulsion Energy =            887.8747322727886058
    One-Electron Energy =               -2697.3859339571372402
    Two-Electron Energy =                1125.4625776020275225
    DFT Exchange-Correlation Energy =       0.0000000000000000
    Empirical Dispersion Energy =           0.0000000000000000
    PCM Polarization Energy =               0.0000000000000000
    EFP Energy =                            0.0000000000000000
    Total Energy =                       -684.0486240823211119
  Basis Set: (JUN-CC-PVDZ AUX)
    Blend: JUN-CC-PVDZ-JKFIT
  Basis Set: (JUN-CC-PVDZ AUX)
    Blend: JUN-CC-PVDZ-JKFIT
  Basis Set: (JUN-CC-PVDZ AUX)
    Blend: JUN-CC-PVDZ-JKFIT
  Basis Set: (JUN-CC-PVDZ AUX)
    Blend: JUN-CC-PVDZ-JKFIT
  Basis Set: (JUN-CC-PVDZ AUX)
    Blend: JUN-CC-PVDZ-RI

    SAPT Results
  --------------------------------------------------------------------------------------------------------
    Electrostatics                 10.58545438 [mEh]       6.64247319 [kcal/mol]      27.79211047 [kJ/mol]
      Elst10,r                     10.58545438 [mEh]       6.64247319 [kcal/mol]      27.79211047 [kJ/mol]

    Exchange                        6.79324659 [mEh]       4.26282677 [kcal/mol]      17.83566894 [kJ/mol]
      Exch10                        6.79324659 [mEh]       4.26282677 [kcal/mol]      17.83566894 [kJ/mol]
      Exch10(S^2)                   6.76636091 [mEh]       4.24595575 [kcal/mol]      17.76508058 [kJ/mol]

    Induction                      -2.20062814 [mEh]      -1.38091506 [kcal/mol]      -5.77774918 [kJ/mol]
      Ind20,r                      -3.93985573 [mEh]      -2.47229690 [kcal/mol]     -10.34409122 [kJ/mol]
      Exch-Ind20,r                  2.23100135 [mEh]       1.39997454 [kcal/mol]       5.85749404 [kJ/mol]
      delta HF,r (2)               -0.49177376 [mEh]      -0.30859270 [kcal/mol]      -1.29115199 [kJ/mol]
      Induction (A<-B)             -1.23761564 [mEh]      -0.77661557 [kcal/mol]      -3.24935988 [kJ/mol]
      Induction (B<-A)             -0.96301249 [mEh]      -0.60429949 [kcal/mol]      -2.52838930 [kJ/mol]

    Dispersion                     -3.22066813 [mEh]      -2.02099985 [kcal/mol]      -8.45586418 [kJ/mol]
      Disp20                       -3.73426135 [mEh]      -2.34328447 [kcal/mol]      -9.80430317 [kJ/mol]
      Exch-Disp20                   0.51359321 [mEh]       0.32228462 [kcal/mol]       1.34843898 [kJ/mol]

  Total HF                         15.17807284 [mEh]       9.52438490 [kcal/mol]      39.85003023 [kJ/mol]
  Total SAPT0                      11.95740470 [mEh]       7.50338505 [kcal/mol]      31.39416605 [kJ/mol]

  --------------------------------------------------------------------------------------------------------

*** Psi4 exiting successfully. Buy a developer a beer!
