                               Psi4 1.1 release

  ==> Input File <==

--------------------------------------------------------------------------
memory 750000 mb

molecule mol {
0 1
C          0.12260        1.73557        0.09444
O         -0.11980        2.91866        0.16244
O          1.37207        1.24018        0.03450
C          2.44189        2.20042       -0.00278
H          2.31182        2.87893       -0.84651
H          2.46772        2.77540        0.92400
H          3.35069        1.61427       -0.11825
--
0 1
C          0.73521       -1.25777       -0.35213
O          1.22573       -1.42177       -1.44050
O          1.30195       -1.64597        0.80344
C          2.61832       -2.21964        0.69456
H          3.31043       -1.49304        0.26607
H          2.59660       -3.11029        0.06487
H          2.90819       -2.47363        1.71148
--
0 1
H         -2.44017        2.13571        0.35844
H         -1.47975       -2.66861       -0.29027
C         -0.64176       -0.69939       -0.11702
C         -0.91866        0.66543        0.06689
C         -1.69476       -1.61698       -0.13934
C         -3.01086       -1.19419        0.02172
C         -3.28911        0.15949        0.20434
C         -2.24811        1.07887        0.22302
H         -4.31183        0.49566        0.32845
H         -3.81526       -1.92095        0.00260

symmetry c1
no_reorient
no_com
}

set {
basis jun-cc-pvdz
scf_type df
guess sad
freeze_core true
}

energy('fisapt0')
--------------------------------------------------------------------------

    Molecular point group: c1

    Geometry (in Angstrom), charge = 0, multiplicity = 1:

       Center              X                  Y                   Z               Mass
    ------------   -----------------  -----------------  -----------------  -----------------
           C          0.122600000000     1.735570000000     0.094440000000    12.000000000000
           O         -0.119800000000     2.918660000000     0.162440000000    15.994914619560
           O          1.372070000000     1.240180000000     0.034500000000    15.994914619560
           C          2.441890000000     2.200420000000    -0.002780000000    12.000000000000
           H          2.311820000000     2.878930000000    -0.846510000000     1.007825032070
           H          2.467720000000     2.775400000000     0.924000000000     1.007825032070
           H          3.350690000000     1.614270000000    -0.118250000000     1.007825032070
           C          0.735210000000    -1.257770000000    -0.352130000000    12.000000000000
           O          1.225730000000    -1.421770000000    -1.440500000000    15.994914619560
           O          1.301950000000    -1.645970000000     0.803440000000    15.994914619560
           C          2.618320000000    -2.219640000000     0.694560000000    12.000000000000
           H          3.310430000000    -1.493040000000     0.266070000000     1.007825032070
           H          2.596600000000    -3.110290000000     0.064870000000     1.007825032070
           H          2.908190000000    -2.473630000000     1.711480000000     1.007825032070
           H         -2.440170000000     2.135710000000     0.358440000000     1.007825032070
           H         -1.479750000000    -2.668610000000    -0.290270000000     1.007825032070
           C         -0.641760000000    -0.699390000000    -0.117020000000    12.000000000000
           C         -0.918660000000     0.665430000000     0.066890000000    12.000000000000
           C         -1.694760000000    -1.616980000000    -0.139340000000    12.000000000000
           C         -3.010860000000    -1.194190000000     0.021720000000    12.000000000000
           C         -3.289110000000     0.159490000000     0.204340000000    12.000000000000
           C         -2.248110000000     1.078870000000     0.223020000000    12.000000000000
           H         -4.311830000000     0.495660000000     0.328450000000     1.007825032070
           H         -3.815260000000    -1.920950000000     0.002600000000     1.007825032070

  Charge       = 0
  Multiplicity = 1
  Basis Set: JUN-CC-PVDZ
    Blend: JUN-CC-PVDZ
  Basis Set: (JUN-CC-PVDZ AUX)
    Blend: JUN-CC-PVDZ-JKFIT

    Orbital Energies (a.u.)
    -----------------------

    Doubly Occupied:

       1A    -20.617775     2A    -20.615217     3A    -20.559459
       4A    -20.559393     5A    -11.400741     6A    -11.400717
       7A    -11.300715     8A    -11.299277     9A    -11.284287
      10A    -11.274583    11A    -11.268880    12A    -11.265102
      13A    -11.264198    14A    -11.259419    15A     -1.476235
      16A     -1.469427    17A     -1.371552    18A     -1.370303
      19A     -1.185123    20A     -1.069355    21A     -1.055664
      22A     -0.989381    23A     -0.978151    24A     -0.888594
      25A     -0.860552    26A     -0.801182    27A     -0.786968
      28A     -0.749836    29A     -0.714920    30A     -0.696503
      31A     -0.683543    32A     -0.677015    33A     -0.673772
      34A     -0.663110    35A     -0.639640    36A     -0.626135
      37A     -0.601530    38A     -0.593431    39A     -0.566811
      40A     -0.557282    41A     -0.548272    42A     -0.537176
      43A     -0.526444    44A     -0.517120    45A     -0.514893
      46A     -0.474459    47A     -0.463964    48A     -0.462347
      49A     -0.453366    50A     -0.361057    51A     -0.355651

  @DF-RHF Final Energy:  -684.04710814010286

   => Energetics <=

    Nuclear Repulsion Energy =            892.1276599185931673
    One-Electron Energy =               -2705.6884855531170615
    Two-Electron Energy =                1129.5137174944211438
    DFT Exchange-Correlation Energy =       0.0000000000000000
    Empirical Dispersion Energy =           0.0000000000000000
    PCM Polarization Energy =               0.0000000000000000
    EFP Energy =                            0.0000000000000000
    Total Energy =                       -684.0471081401028641
  Basis Set: (JUN-CC-PVDZ AUX)
    Blend: JUN-CC-PVDZ-JKFIT
  Basis Set: (JUN-CC-PVDZ AUX)
    Blend: JUN-CC-PVDZ-JKFIT
  Basis Set: (JUN-CC-PVDZ AUX)
    Blend: JUN-CC-PVDZ-JKFIT
  Basis Set: (JUN-CC-PVDZ AUX)
    Blend: JUN-CC-PVDZ-JKFIT
  Basis Set: (JUN-CC-PVDZ AUX)
    Blend: JUN-CC-PVDZ-RI

    SAPT Results
  --------------------------------------------------------------------------------------------------------
    Electrostatics                 10.74804268 [mEh]       6.74449889 [kcal/mol]      28.21898606 [kJ/mol]
      Elst10,r                     10.74804268 [mEh]       6.74449889 [kcal/mol]      28.21898606 [kJ/mol]

    Exchange                        7.33558796 [mEh]       4.60315113 [kcal/mol]      19.25958619 [kJ/mol]
      Exch10                        7.33558796 [mEh]       4.60315113 [kcal/mol]      19.25958619 [kJ/mol]
      Exch10(S^2)                   7.30871541 [mEh]       4.58628835 [kcal/mol]      19.18903231 [kJ/mol]

    Induction                      -2.39949345 [mEh]      -1.50570493 [kcal/mol]      -6.29987005 [kJ/mol]
      Ind20,r                      -3.50255422 [mEh]      -2.19788605 [kcal/mol]      -9.19595610 [kJ/mol]
      Exch-Ind20,r                  1.82508444 [mEh]       1.14525782 [kcal/mol]       4.79175918 [kJ/mol]
      delta HF,r (2)               -0.72202366 [mEh]      -0.45307671 [kcal/mol]      -1.89567313 [kJ/mol]
      Induction (A<-B)             -1.80914155 [mEh]      -1.13525351 [kcal/mol]      -4.74990115 [kJ/mol]
      Induction (B<-A)             -0.59035189 [mEh]      -0.37045142 [kcal/mol]      -1.54996890 [kJ/mol]

    Dispersion                     -3.69765664 [mEh]      -2.32031467 [kcal/mol]      -9.70819750 [kJ/mol]
      Disp20                       -4.20744501 [mEh]      -2.64021171 [kcal/mol]     -11.04664686 [kJ/mol]
      Exch-Disp20                   0.50978837 [mEh]       0.31989705 [kcal/mol]       1.33844937 [kJ/mol]

  Total HF                         15.68413719 [mEh]       9.84194509 [kcal/mol]      41.17870220 [kJ/mol]
  Total SAPT0                      11.98648056 [mEh]       7.52163042 [kcal/mol]      31.47050470 [kJ/mol]

  --------------------------------------------------------------------------------------------------------

*** Psi4 exiting successfully. Buy a developer a beer!
