                               Psi4 1.1 release

  ==> Input File <==

--------------------------------------------------------------------------
memory 750000 mb

molecule mol {
0 1
C         -0.43297        1.54085       -0.10880
O         -0.61259        2.49385       -0.82809
O         -1.31150        1.13134        0.82854
C         -2.57363        1.82034        0.86046
H         -2.42411        2.88666        1.03426
H         -3.10439        1.68138       -0.08344
H         -3.12689        1.37087        1.68202
--
0 1
C         -0.43923       -1.50105        0.15492
O         -0.62933       -2.41776        0.91703
O         -1.29982       -1.14359       -0.81954
C         -2.55327       -1.84928       -0.84773
H         -3.09724       -1.43732       -1.69475
H         -3.10243       -1.68355        0.08111
H         -2.38793       -2.91935       -0.98013
--
0 1
H          2.01551        2.45451       -0.40018
H          2.00142       -2.43108        0.39056
C          0.80938       -0.67687        0.11234
C          0.81283        0.71370       -0.09039
C          2.02089       -1.36123        0.22174
C          3.22888       -0.68157        0.09702
C          3.23229        0.69171       -0.14044
C          2.02852        1.38475       -0.23148
H          4.16997        1.22449       -0.24697
H          4.16321       -1.22490        0.17746

symmetry c1
no_reorient
no_com
}

set {
basis jun-cc-pvdz
scf_type df
guess sad
freeze_core true
}

energy('fisapt0')
--------------------------------------------------------------------------

    Molecular point group: c1

    Geometry (in Angstrom), charge = 0, multiplicity = 1:

       Center              X                  Y                   Z               Mass
    ------------   -----------------  -----------------  -----------------  -----------------
           C         -0.432970000000     1.540850000000    -0.108800000000    12.000000000000
           O         -0.612590000000     2.493850000000    -0.828090000000    15.994914619560
           O         -1.311500000000     1.131340000000     0.828540000000    15.994914619560
           C         -2.573630000000     1.820340000000     0.860460000000    12.000000000000
           H         -2.424110000000     2.886660000000     1.034260000000     1.007825032070
           H         -3.104390000000     1.681380000000    -0.083440000000     1.007825032070
           H         -3.126890000000     1.370870000000     1.682020000000     1.007825032070
           C         -0.439230000000    -1.501050000000     0.154920000000    12.000000000000
           O         -0.629330000000    -2.417760000000     0.917030000000    15.994914619560
           O         -1.299820000000    -1.143590000000    -0.819540000000    15.994914619560
           C         -2.553270000000    -1.849280000000    -0.847730000000    12.000000000000
           H         -3.097240000000    -1.437320000000    -1.694750000000     1.007825032070
           H         -3.102430000000    -1.683550000000     0.081110000000     1.007825032070
           H         -2.387930000000    -2.919350000000    -0.980130000000     1.007825032070
           H          2.015510000000     2.454510000000    -0.400180000000     1.007825032070
           H          2.001420000000    -2.431080000000     0.390560000000     1.007825032070
           C          0.809380000000    -0.676870000000     0.112340000000    12.000000000000
           C          0.812830000000     0.713700000000    -0.090390000000    12.000000000000
           C          2.020890000000    -1.361230000000     0.221740000000    12.000000000000
           C          3.228880000000    -0.681570000000     0.097020000000    12.000000000000
           C          3.232290000000     0.691710000000    -0.140440000000    12.000000000000
           C          2.028520000000     1.384750000000    -0.231480000000    12.000000000000
           H          4.169970000000     1.224490000000    -0.246970000000     1.007825032070
           H          4.163210000000    -1.224900000000     0.177460000000     1.007825032070

  Charge       = 0
  Multiplicity = 1
  Basis Set: JUN-CC-PVDZ
    Blend: JUN-CC-PVDZ
  Basis Set: (JUN-CC-PVDZ AUX)
    Blend: JUN-CC-PVDZ-JKFIT

    Orbital Energies (a.u.)
    -----------------------

    Doubly Occupied:

       1A    -20.616472     2A    -20.616193     3A    -20.562024
       4A    -20.561873     5A    -11.400988     6A    -11.400910
       7A    -11.300652     8A    -11.300547     9A    -11.279149
      10A    -11.277871    11A    -11.266392    12A    -11.266126
      13A    -11.265146    14A    -11.264177    15A     -1.475986
      16A     -1.469061    17A     -1.372754    18A     -1.371219
      19A     -1.186349    20A     -1.070869    21A     -1.055848
      22A     -0.989221    23A     -0.978968    24A     -0.889556
      25A     -0.861998    26A     -0.800183    27A     -0.786458
      28A     -0.751385    29A     -0.714598    30A     -0.700168
      31A     -0.684147    32A     -0.683343    33A     -0.663884
      34A     -0.663211    35A     -0.641941    36A     -0.627871
      37A     -0.603658    38A     -0.592932    39A     -0.567039
      40A     -0.555692    41A     -0.547237    42A     -0.539477
      43A     -0.526776    44A     -0.523007    45A     -0.516233
      46A     -0.475130    47A     -0.464582    48A     -0.463158
      49A     -0.455448    50A     -0.360319    51A     -0.357813

  @DF-RHF Final Energy:  -684.04867295551639

   => Energetics <=

    Nuclear Repulsion Energy =            897.1564595484491065
    One-Electron Energy =               -2715.6781978423300643
    Two-Electron Energy =                1134.4730653383644494
    DFT Exchange-Correlation Energy =       0.0000000000000000
    Empirical Dispersion Energy =           0.0000000000000000
    PCM Polarization Energy =               0.0000000000000000
    EFP Energy =                            0.0000000000000000
    Total Energy =                       -684.0486729555163947
  Basis Set: (JUN-CC-PVDZ AUX)
    Blend: JUN-CC-PVDZ-JKFIT
  Basis Set: (JUN-CC-PVDZ AUX)
    Blend: JUN-CC-PVDZ-JKFIT
  Basis Set: (JUN-CC-PVDZ AUX)
    Blend: JUN-CC-PVDZ-JKFIT
  Basis Set: (JUN-CC-PVDZ AUX)
    Blend: JUN-CC-PVDZ-JKFIT
  Basis Set: (JUN-CC-PVDZ AUX)
    Blend: JUN-CC-PVDZ-RI

    SAPT Results
  --------------------------------------------------------------------------------------------------------
    Electrostatics                  9.83100279 [mEh]       6.16904765 [kcal/mol]      25.81129783 [kJ/mol]
      Elst10,r                      9.83100279 [mEh]       6.16904765 [kcal/mol]      25.81129783 [kJ/mol]

    Exchange                        6.65343074 [mEh]       4.17509100 [kcal/mol]      17.46858241 [kJ/mol]
      Exch10                        6.65343074 [mEh]       4.17509100 [kcal/mol]      17.46858241 [kJ/mol]
      Exch10(S^2)                   6.62884850 [mEh]       4.15966541 [kcal/mol]      17.40404174 [kJ/mol]

    Induction                      -1.97315987 [mEh]      -1.23817657 [kcal/mol]      -5.18053125 [kJ/mol]
      Ind20,r                      -3.54114876 [mEh]      -2.22210449 [kcal/mol]      -9.29728607 [kJ/mol]
      Exch-Ind20,r                  2.00943581 [mEh]       1.26094006 [kcal/mol]       5.27577372 [kJ/mol]
      delta HF,r (2)               -0.44144692 [mEh]      -0.27701214 [kcal/mol]      -1.15901890 [kJ/mol]
      Induction (A<-B)             -1.01851347 [mEh]      -0.63912688 [kcal/mol]      -2.67410712 [kJ/mol]
      Induction (B<-A)             -0.95464640 [mEh]      -0.59904969 [kcal/mol]      -2.50642413 [kJ/mol]

    Dispersion                     -3.84285123 [mEh]      -2.41142566 [kcal/mol]     -10.08940591 [kJ/mol]
      Disp20                       -4.31570021 [mEh]      -2.70814288 [kcal/mol]     -11.33087091 [kJ/mol]
      Exch-Disp20                   0.47284898 [mEh]       0.29671723 [kcal/mol]       1.24146500 [kJ/mol]

  Total HF                         14.51127366 [mEh]       9.10596208 [kcal/mol]      38.09934899 [kJ/mol]
  Total SAPT0                      10.66842242 [mEh]       6.69453642 [kcal/mol]      28.00994307 [kJ/mol]

  --------------------------------------------------------------------------------------------------------

*** Psi4 exiting successfully. Buy a developer a beer!
