                               Psi4 1.1 release

  ==> Input File <==

--------------------------------------------------------------------------
memory 750000 mb

molecule mol {
0 1
C         -0.82600        1.31730       -0.65104
O         -1.53015        1.48313       -1.61786
O         -1.15455        1.71991        0.58955
C         -2.47105        2.27400        0.74131
H         -2.56347        2.51908        1.79712
H         -2.58679        3.16763        0.12589
H         -3.22380        1.53982        0.44942
--
0 1
C         -0.50462       -1.72788       -0.19394
O         -0.38787       -2.91667       -0.00989
O         -1.65775       -1.06678       -0.04002
C         -2.79756       -1.84716        0.36857
H         -2.63430       -2.25772        1.36585
H         -2.97275       -2.66103       -0.33548
H         -3.63552       -1.15401        0.36981
--
0 1
H          1.29696        2.03678        0.91873
H          1.84199       -1.98499        0.88115
C          0.66809       -0.86848       -0.64546
C          0.55990        0.69963       -0.72186
C          1.82123       -1.01723        0.38845
C          3.15835       -0.53798       -0.21887
C          2.99022        1.01011       -0.13910
C          1.55224        1.11499        0.40546
O          1.49293        0.01494        1.32834
H          0.95387       -1.27921       -1.61623
H          0.93546        1.01276       -1.69708
H          3.99631       -0.88300        0.38790
H          3.30533       -0.90516       -1.23660
H          3.69247        1.44861        0.57139
H          3.11939        1.51150       -1.10050

symmetry c1
no_reorient
no_com
}

set {
basis jun-cc-pvdz
scf_type df
guess sad
freeze_core true
}

energy('fisapt0')
--------------------------------------------------------------------------

    Molecular point group: c1

    Geometry (in Angstrom), charge = 0, multiplicity = 1:

       Center              X                  Y                   Z               Mass
    ------------   -----------------  -----------------  -----------------  -----------------
           C         -0.826000000000     1.317300000000    -0.651040000000    12.000000000000
           O         -1.530150000000     1.483130000000    -1.617860000000    15.994914619560
           O         -1.154550000000     1.719910000000     0.589550000000    15.994914619560
           C         -2.471050000000     2.274000000000     0.741310000000    12.000000000000
           H         -2.563470000000     2.519080000000     1.797120000000     1.007825032070
           H         -2.586790000000     3.167630000000     0.125890000000     1.007825032070
           H         -3.223800000000     1.539820000000     0.449420000000     1.007825032070
           C         -0.504620000000    -1.727880000000    -0.193940000000    12.000000000000
           O         -0.387870000000    -2.916670000000    -0.009890000000    15.994914619560
           O         -1.657750000000    -1.066780000000    -0.040020000000    15.994914619560
           C         -2.797560000000    -1.847160000000     0.368570000000    12.000000000000
           H         -2.634300000000    -2.257720000000     1.365850000000     1.007825032070
           H         -2.972750000000    -2.661030000000    -0.335480000000     1.007825032070
           H         -3.635520000000    -1.154010000000     0.369810000000     1.007825032070
           H          1.296960000000     2.036780000000     0.918730000000     1.007825032070
           H          1.841990000000    -1.984990000000     0.881150000000     1.007825032070
           C          0.668090000000    -0.868480000000    -0.645460000000    12.000000000000
           C          0.559900000000     0.699630000000    -0.721860000000    12.000000000000
           C          1.821230000000    -1.017230000000     0.388450000000    12.000000000000
           C          3.158350000000    -0.537980000000    -0.218870000000    12.000000000000
           C          2.990220000000     1.010110000000    -0.139100000000    12.000000000000
           C          1.552240000000     1.114990000000     0.405460000000    12.000000000000
           O          1.492930000000     0.014940000000     1.328340000000    15.994914619560
           H          0.953870000000    -1.279210000000    -1.616230000000     1.007825032070
           H          0.935460000000     1.012760000000    -1.697080000000     1.007825032070
           H          3.996310000000    -0.883000000000     0.387900000000     1.007825032070
           H          3.305330000000    -0.905160000000    -1.236600000000     1.007825032070
           H          3.692470000000     1.448610000000     0.571390000000     1.007825032070
           H          3.119390000000     1.511500000000    -1.100500000000     1.007825032070

  Charge       = 0
  Multiplicity = 1
  Basis Set: JUN-CC-PVDZ
    Blend: JUN-CC-PVDZ
  Basis Set: (JUN-CC-PVDZ AUX)
    Blend: JUN-CC-PVDZ-JKFIT

    Orbital Energies (a.u.)
    -----------------------

    Doubly Occupied:

       1A    -20.617909     2A    -20.608057     3A    -20.571144
       4A    -20.557060     5A    -20.550079     6A    -11.396676
       7A    -11.390270     8A    -11.300380     9A    -11.298522
      10A    -11.297250    11A    -11.295000    12A    -11.273263
      13A    -11.266897    14A    -11.243304    15A    -11.242536
      16A     -1.475824    17A     -1.463656    18A     -1.406728
      19A     -1.370363    20A     -1.362448    21A     -1.114221
      22A     -1.052903    23A     -1.040602    24A     -0.984456
      25A     -0.972128    26A     -0.893524    27A     -0.824620
      28A     -0.807333    29A     -0.782196    30A     -0.774575
      31A     -0.742101    32A     -0.704211    33A     -0.691486
      34A     -0.680459    35A     -0.674369    36A     -0.668115
      37A     -0.662279    38A     -0.658535    39A     -0.628374
      40A     -0.591176    41A     -0.584402    42A     -0.567412
      43A     -0.563094    44A     -0.553892    45A     -0.536749
      46A     -0.529840    47A     -0.517209    48A     -0.515286
      49A     -0.510229    50A     -0.499517    51A     -0.487612
      52A     -0.482026    53A     -0.469406    54A     -0.456815
      55A     -0.451160    56A     -0.439243    57A     -0.427535

  @DF-RHF Final Energy:  -761.22438492484548

   => Energetics <=

    Nuclear Repulsion Energy =           1118.2016665219452989
    One-Electron Energy =               -3263.7991950922669275
    Two-Electron Energy =                1384.3731436454761479
    DFT Exchange-Correlation Energy =       0.0000000000000000
    Empirical Dispersion Energy =           0.0000000000000000
    PCM Polarization Energy =               0.0000000000000000
    EFP Energy =                            0.0000000000000000
    Total Energy =                       -761.2243849248454808
  Basis Set: (JUN-CC-PVDZ AUX)
    Blend: JUN-CC-PVDZ-JKFIT
  Basis Set: (JUN-CC-PVDZ AUX)
    Blend: JUN-CC-PVDZ-JKFIT
  Basis Set: (JUN-CC-PVDZ AUX)
    Blend: JUN-CC-PVDZ-JKFIT
  Basis Set: (JUN-CC-PVDZ AUX)
    Blend: JUN-CC-PVDZ-JKFIT
  Basis Set: (JUN-CC-PVDZ AUX)
    Blend: JUN-CC-PVDZ-RI

    SAPT Results
  --------------------------------------------------------------------------------------------------------
    Electrostatics                 11.18595660 [mEh]       7.01929403 [kcal/mol]      29.36872906 [kJ/mol]
      Elst10,r                     11.18595660 [mEh]       7.01929403 [kcal/mol]      29.36872906 [kJ/mol]

    Exchange                        8.82903851 [mEh]       5.54030554 [kcal/mol]      23.18064060 [kJ/mol]
      Exch10                        8.82903851 [mEh]       5.54030554 [kcal/mol]      23.18064060 [kJ/mol]
      Exch10(S^2)                   8.79558957 [mEh]       5.51931601 [kcal/mol]      23.09282042 [kJ/mol]

    Induction                      -2.10775653 [mEh]      -1.32263724 [kcal/mol]      -5.53391476 [kJ/mol]
      Ind20,r                      -3.90667854 [mEh]      -2.45147790 [kcal/mol]     -10.25698450 [kJ/mol]
      Exch-Ind20,r                  2.42966216 [mEh]       1.52463609 [kcal/mol]       6.37907800 [kJ/mol]
      delta HF,r (2)               -0.63074015 [mEh]      -0.39579544 [kcal/mol]      -1.65600826 [kJ/mol]
      Induction (A<-B)             -0.60163114 [mEh]      -0.37752925 [kcal/mol]      -1.57958255 [kJ/mol]
      Induction (B<-A)             -1.50612539 [mEh]      -0.94510799 [kcal/mol]      -3.95433221 [kJ/mol]

    Dispersion                     -4.18440638 [mEh]      -2.62575475 [kcal/mol]     -10.98615895 [kJ/mol]
      Disp20                       -4.82122921 [mEh]      -3.02536713 [kcal/mol]     -12.65813730 [kJ/mol]
      Exch-Disp20                   0.63682283 [mEh]       0.39961238 [kcal/mol]       1.67197835 [kJ/mol]

  Total HF                         17.90723858 [mEh]      11.23696233 [kcal/mol]      47.01545490 [kJ/mol]
  Total SAPT0                      13.72283220 [mEh]       8.61120757 [kcal/mol]      36.02929595 [kJ/mol]

  --------------------------------------------------------------------------------------------------------

*** Psi4 exiting successfully. Buy a developer a beer!
