 Q-Chem 5.0, Q-Chem, Inc., Pleasanton, CA (2017)
 Q-Chem 5.0.1 for Intel X86 EM64T Linux

User input:
--------------------------------------------------------------
$molecule
0 1
C -0.51421445 0.97670392 0.52317990
C 0.61494428 -0.09807133 0.68862186
C -1.73596980 0.50684613 -0.24919657
C 0.12763867 -1.52207253 0.46389428
O -2.85197246 0.64398316 0.49850990
O -1.74079948 0.13310345 -1.39467193
O 1.10885777 -2.37113756 0.11733086
O -1.00438602 -1.88071296 0.68427061
C 0.72578621 -3.75280210 -0.03264256
C -4.06962126 0.18337979 -0.11407441
C 0.24503169 2.05902105 -0.28913259
C 1.27062930 2.76340851 0.62502846
C 2.38068457 1.67737892 0.70907762
C 1.78327999 0.53552708 -0.16540438
O 1.06334377 1.28321074 -1.16288091
H -0.84977574 1.35064260 1.48881438
H 0.92681538 -0.11745525 1.73813220
H -0.05568813 -3.84828313 -0.78717026
H -4.28126603 0.74836043 -1.02357726
H 1.63893861 3.67370033 0.14986028
H 0.85031038 3.03461759 1.59579336
H 3.31143677 2.02818140 0.26038129
H 2.60081600 1.35494993 1.72876319
H 1.63026514 -4.26880421 -0.34699768
H 0.36320712 -4.15243480 0.91558001
H -4.84801076 0.34605060 0.62831861
H -3.98534099 -0.87652861 -0.35816372
H -0.39704325 2.71534878 -0.87273139
C 2.81337082 -0.34819739 -0.83451988
H 3.53123073 0.28832287 -1.35752608
H 3.34727139 -0.95079970 -0.09830817
H 2.34835084 -1.01898779 -1.55433868
$end

$rem
sym_ignore      true
jobtype         ts
method          b3lyp
basis           6-311++G(d,p)
dft_d           d3_op
mem_total       62000
MEM_STATIC      4000
ao2mo_disk      350000
max_scf_cycles  200
geom_opt_max_cycles 1000
geom_opt_tol_displacement 1
GEOM_OPT_TOL_GRADIENT       1
GEOM_OPT_TOL_ENERGY         1
$end

--------------------------------------------------------------

   15    -805.1903000532      3.78E-09 Convergence criterion met
 Total energy in the final basis set = -805.19030005
   12    -805.1901104863      5.55E-09 Convergence criterion met
 Total energy in the final basis set = -805.19011049
   12    -805.1901734486      3.23E-09 Convergence criterion met
 Total energy in the final basis set = -805.19017345
   12    -805.1901477362      3.24E-09 Convergence criterion met
 Total energy in the final basis set = -805.19014774
   12    -805.1898234565      5.12E-09 Convergence criterion met
 Total energy in the final basis set = -805.18982346
   11    -805.1900834237      9.47E-09 Convergence criterion met
 Total energy in the final basis set = -805.19008342
   12    -805.1900249497      6.40E-09 Convergence criterion met
 Total energy in the final basis set = -805.19002495
   12    -805.1901262882      4.30E-09 Convergence criterion met
    7    -805.1903173848      5.58E-09 Convergence criterion met
 Total energy in the final basis set = -805.19031738
    7    -805.1903174004      4.07E-09 Convergence criterion met
 Total energy in the final basis set = -805.19031740
    6    -805.1903174156      8.05E-09 Convergence criterion met
 Total energy in the final basis set = -805.19031742
    6    -805.1903174221      5.11E-09 Convergence criterion met
 Total energy in the final basis set = -805.19031742
    6    -805.1903174302      3.49E-09 Convergence criterion met
 Total energy in the final basis set = -805.19031743
    5    -805.1903174297      7.10E-09 Convergence criterion met
 Total energy in the final basis set = -805.19031743
 Final energy is   -805.190317429743
 **  OPTIMIZATION CONVERGED  **
 Total job time:  1858.98s(wall), 31300.30s(cpu)
        *  Thank you very much for using Q-Chem.  Have a nice day.  *

User input: 2 of 2

r0156.ten.osc.edu 10.25.154
Q-Chem Developer Version! Running on 10.25.154.*
                  Welcome to Q-Chem
     A Quantum Leap Into The Future Of Chemistry

 Q-Chem 5.0, Q-Chem, Inc., Pleasanton, CA (2017)

 Yihan Shao,  Zhengting Gan,  E. Epifanovsky,  A. T. B. Gilbert,  M. Wormit,
 J. Kussmann,  A. W. Lange,  A. Behn,  Jia Deng,  Xintian Feng,  D. Ghosh,
 M. Goldey,  P. R. Horn,  L. D. Jacobson,  I. Kaliman,  T. Kus,  A. Landau,
 Jie Liu,  E. I. Proynov,  R. M. Richard,  R. P. Steele,  E. J. Sundstrom,
 H. L. Woodcock III,  P. M. Zimmerman,  D. Zuev,  B. Albrecht,  E. Alguire,
 S. A. Baeppler,  Z. Benda,  Y. A. Bernard,  E. J. Berquist,  K. B. Bravaya,
 D. Casanova,  Chun-Min Chang,  Yunqing Chen,  A. Chien,  K. D. Closser,
 M. P. Coons,  S. Dasgupta,  M. Diedenhofen,  Hainam Do,  R. G. Edgar,
 Po-Tung Fang,  S. Fatehi,  Qingguo Feng,  Qinghui Ge,  A. Ghysels,
 J. Gomes,  J. Gonthier,  A. Gunina,  M. W. D. Hanson-Heine,
 P. H. P. Harbach,  A. W. Hauser,  J. E. Herr,  E. G. Hohenstein,
 Z. C. Holden,  Kerwin Hui,  T.-C. Jagau,  Hyunjun Ji,  B. Kaduk,
 K. Khistyaev,  Jaehoon Kim,  P. Klunzinger,  K. Koh,  D. Kosenkov,
 T. Kowalczyk,  C. M. Krauter,  A. Kunitsa,  Ka Un Lao,  A. Laurent,
 K. V. Lawler,  Joonho Lee,  D. Lefrancois,  S. Lehtola,  D. S. Levine,
 Yi-Pei Li,  You-Sheng Lin,  Fenglai Liu,  E. Livshits,  A. Luenser,
 P. Manohar,  E. Mansoor,  S. F. Manzer,  Shan-Ping Mao,  Yuezhi Mao,
 N. Mardirossian,  A. V. Marenich,  L. A. Martinez-Martinez,  S. A. Maurer,
 N. J. Mayhall,  S. C. McKenzie,  J.-M. Mewes,  A. F. Morrison,  K. Nanda,
 T. S. Nguyen-Beck,  R. Olivares-Amaya,  J. A. Parkhill,  T. M. Perrine,
 F. Plasser,  S. Prager,  A. Prociuk,  D. R. Rehn,  F. Rob,  M. Schneider,
 N. Sergueev,  S. M. Sharada,  S. Sharma,  D. W. Small,  T. Stauch,
 T. Stein,  Yu-Chuan Su,  A. J. W. Thom,  T. Tsuchimochi,  L. Vogt,
 O. Vydrov,  M. A. Watson,  J. Wenzel,  M. de Wergifosse,  T. A. Wesolowski,
 A. White,  J. Witte,  A. Yamada,  Jun Yang,  K. Yao,  S. Yeganeh,
 S. R. Yost,  Zhi-Qiang You,  A. Zech,  Igor Ying Zhang,  Xing Zhang,
 Yan Zhao,  Ying Zhu,  B. R. Brooks,  G. K. L. Chan,  C. J. Cramer,
 M. S. Gordon,  W. J. Hehre,  A. Klamt,  M. W. Schmidt,  C. D. Sherrill,
 D. G. Truhlar,  A. Aspuru-Guzik,  R. Baer,  A. T. Bell,  N. A. Besley,
 Jeng-Da Chai,  A. Dreuw,  B. D. Dunietz,  T. R. Furlani,  Chao-Ping Hsu,
 Yousung Jung,  Jing Kong,  D. S. Lambrecht,  WanZhen Liang,  C. Ochsenfeld,
 V. A. Rassolov,  L. V. Slipchenko,  J. E. Subotnik,  T. Van Voorhis,
 J. M. Herbert,  A. I. Krylov,  P. M. W. Gill,  M. Head-Gordon

 Contributors to earlier versions of Q-Chem not listed above:
 R. D. Adamson,  B. Austin,  J. Baker,  G. J. O. Beran,  K. Brandhorst,
 S. T. Brown,  E. F. C. Byrd,  A. K. Chakraborty,  C.-L. Cheng,
 Siu Hung Chien,  D. M. Chipman,  D. L. Crittenden,  H. Dachsel,
 R. A. DiStasio Jr.,  R. J. Doerksen,  A. D. Dutoi,  L. Fusti-Molnar,
 W. A. Goddard III,  A. Golubeva-Zadorozhnaya,  S. R. Gwaltney,  G. Hawkins,
 A. Heyden,  S. Hirata,  G. Kedziora,  F. J. Keil,  C. Kelley,  Jihan Kim,
 R. A. King,  R. Z. Khaliullin,  P. P. Korambath,  W. Kurlancheek,
 A. M. Lee,  M. S. Lee,  S. V. Levchenko,  Ching Yeh Lin,  D. Liotard,
 R. C. Lochan,  I. Lotan,  P. E. Maslen,  N. Nair,  D. P. O'Neill,
 D. Neuhauser,  E. Neuscamman,  C. M. Oana,  R. Olson,  B. Peters,
 R. Peverati,  P. A. Pieniazek,  Y. M. Rhee,  J. Ritchie,  M. A. Rohrdanz,
 E. Rosta,  N. J. Russ,  H. F. Schaefer III,  N. E. Schultz,  N. Shenvi,
 A. C. Simmonett,  A. Sodt,  D. Stuck,  K. S. Thanthiriwatte,  V. Vanovschi,
 Tao Wang,  A. Warshel,  C. F. Williams,  Q. Wu,  X. Xu,  W. Zhang

 Please cite Q-Chem as follows:
 Y. Shao et al., Mol. Phys. 113, 184-215 (2015)
 DOI: 10.1080/00268976.2014.952696

 Q-Chem 5.0.1 for Intel X86 EM64T Linux

 Parts of Q-Chem use Armadillo 5.200.1 (Boston Tea Smuggler).
 http://arma.sourceforge.net/

 Q-Chem begins on Sun Oct 15 23:39:44 2017

Host: r0156.ten.osc.edu
0

     Scratch files written to /tmp/pbstmp.1310577/15//
Processing $rem in /users/PAS0291/osu6415/.qchemrc.
molden_format             true
The previous job contains 0 fragments, simply inherited here

Checking the input file for inconsistencies... 	...done.

--------------------------------------------------------------
User input:
--------------------------------------------------------------

$molecule
read
$end

$rem
sym_ignore      true
scf_guess       read
jobtype         freq
method          b3lyp
basis           6-311++G(d,p)
dft_d           d3_op
mem_total       62000
MEM_STATIC      4000
ao2mo_disk      350000
max_scf_cycles  200
$end
--------------------------------------------------------------

             Standard Nuclear Orientation (Angstroms)
    I     Atom           X                Y                Z
 ----------------------------------------------------------------
    1      C      -0.5206328175     0.9750611776     0.5263376026
    2      C       0.6073575745    -0.1011889375     0.6750690164
    3      C      -1.7430530694     0.5233879434    -0.2568684295
    4      C       0.1271658902    -1.5256188631     0.4422354620
    5      O      -2.8588628573     0.6478423378     0.4941905614
    6      O      -1.7488079497     0.1707513150    -1.4087185477
    7      O       1.1317771014    -2.3770022056     0.1722614198
    8      O      -1.0150623160    -1.8851645241     0.5965513815
    9      C       0.7632212956    -3.7624263114     0.0206301439
   10      C      -4.0770158354     0.1998112217    -0.1265900290
   11      C       0.2406238475     2.0683460807    -0.2704661348
   12      C       1.2751121879     2.7517840060     0.6505238067
   13      C       2.3853455660     1.6632371208     0.7012424500
   14      C       1.7728867148     0.5369167257    -0.1817286708
   15      O       1.0494054134     1.3025147395    -1.1614894006
   16      H      -0.8559008998     1.3345986549     1.4975853270
   17      H       0.9285851127    -0.1283648526     1.7216723699
   18      H       0.0418484657    -3.8748601771    -0.7894380406
   19      H      -4.2923385278     0.7868773457    -1.0211356338
   20      H       1.6402953421     3.6731255035     0.1946927004
   21      H       0.8627213173     3.0000561983     1.6308432743
   22      H       3.3090422175     2.0196395260     0.2423714795
   23      H       2.6212682328     1.3256088497     1.7124700003
   24      H       1.6896285650    -4.2820770782    -0.2137261424
   25      H       0.3294245119    -4.1445897788     0.9458016546
   26      H      -4.8539905110     0.3423623339     0.6214923252
   27      H      -3.9908755383    -0.8534668285    -0.3971431114
   28      H      -0.4011113189     2.7378379378    -0.8391516413
   29      C       2.7884799582    -0.3475250467    -0.8707268681
   30      H       3.4950263053     0.2878564539    -1.4102527488
   31      H       3.3370600874    -0.9485153820    -0.1442857583
   32      H       2.3094969939    -1.0203655663    -1.5800294785
 ----------------------------------------------------------------

    2    -805.1903174297      3.81E-09 Convergence criterion met
 Total energy in the final basis set = -805.19031743

                    Orbital Energies (a.u.)
 --------------------------------------------------------------

 Alpha MOs
 -- Occupied --
-19.178 -19.163 -19.126 -19.119 -19.102 -10.311 -10.295 -10.242
-10.232 -10.232 -10.218 -10.209 -10.198 -10.179 -10.178 -10.162
 -1.121  -1.103  -1.061  -1.032  -1.015  -0.828  -0.792  -0.780
 -0.745  -0.724  -0.692  -0.647  -0.600  -0.594  -0.569  -0.554
 -0.526  -0.513  -0.501  -0.490  -0.489  -0.484  -0.476  -0.466
 -0.456  -0.436  -0.426  -0.419  -0.413  -0.408  -0.391  -0.380
 -0.371  -0.368  -0.363  -0.359  -0.355  -0.350  -0.334  -0.326
 -0.318  -0.301  -0.292  -0.277  -0.263

          Ground-State Mulliken Net Atomic Charges

     Atom                 Charge (a.u.)
  ----------------------------------------
      1 C                     0.102600
      2 C                     0.331008
      3 C                    -0.765131
      4 C                    -0.726543
      5 O                     0.004877
      6 O                    -0.187074
      7 O                    -0.074878
      8 O                    -0.180024
      9 C                    -0.251587
     10 C                    -0.217848
     11 C                     0.350830
     12 C                    -0.506329
     13 C                    -0.431992
     14 C                    -0.087050
     15 O                    -0.034569
     16 H                     0.305141
     17 H                     0.241688
     18 H                     0.196823
     19 H                     0.165784
     20 H                     0.185231
     21 H                     0.120285
     22 H                     0.169957
     23 H                     0.145811
     24 H                     0.148139
     25 H                     0.176561
     26 H                     0.146721
     27 H                     0.185366
     28 H                     0.275588
     29 C                    -0.317990
     30 H                     0.155672
     31 H                     0.182119
     32 H                     0.190814
  ----------------------------------------
  Sum of atomic charges =    -0.000000

                    Cartesian Multipole Moments
 -----------------------------------------------------------------
    Charge (ESU x 10^10)
                -0.0000
    Dipole Moment (Debye)
         X       1.4749      Y      -0.2026      Z       2.6153
       Tot       3.0093
    Quadrupole Moments (Debye-Ang)
        XX     -88.0211     XY      -4.0075     YY     -83.8149
        XZ       1.6821     YZ       2.9724     ZZ    -100.7720

 Frequency:       -35.60                  43.49                  63.82
 Force Cnst:      0.0048                 0.0041                 0.0092
 Red. Mass:       6.4604                 3.6740                 3.8274
 IR Intens:        3.563                  0.306                  1.574
 Frequency:       106.48                 123.40                 128.26
 Force Cnst:      0.0090                 0.0162                 0.0175
 Red. Mass:       1.3476                 1.8060                 1.8059
 IR Intens:        1.057                  1.999                  0.764
 Frequency:       148.57                 157.65                 179.54
 Force Cnst:      0.0415                 0.0363                 0.0747
 Red. Mass:       3.1911                 2.4812                 3.9317
 IR Intens:        0.118                  0.261                  0.508
 Frequency:       224.17                 247.56                 268.55
 Force Cnst:      0.1530                 0.0991                 0.1645
 Red. Mass:       5.1669                 2.7434                 3.8717
 IR Intens:        1.373                  3.560                  4.722
 Frequency:       275.05                 297.39                 308.75
 Force Cnst:      0.0544                 0.1669                 0.1813
 Red. Mass:       1.2210                 3.2022                 3.2282
 IR Intens:        0.487                  9.176                  2.523
 Frequency:       330.22                 346.84                 370.52
 Force Cnst:      0.1954                 0.2624                 0.2997
 Red. Mass:       3.0420                 3.7017                 3.7050
 IR Intens:        0.665                 15.061                 10.704
 Frequency:       376.03                 457.05                 576.85
 Force Cnst:      0.3588                 0.5257                 0.7891
 Red. Mass:       4.3070                 4.2710                 4.0250
 IR Intens:       12.275                  1.193                  8.665
 Frequency:       584.09                 631.57                 651.53
 Force Cnst:      1.0112                 1.0011                 1.0528
 Red. Mass:       5.0305                 4.2596                 4.2094
 IR Intens:       18.774                  5.346                  2.506
 Frequency:       738.37                 755.36                 794.72
 Force Cnst:      1.8090                 2.2582                 1.3151
 Red. Mass:       5.6316                 6.7174                 3.5341
 IR Intens:        2.458                 10.781                 10.836
 Frequency:       824.68                 833.87                 849.77
 Force Cnst:      1.5161                 1.1886                 1.4897
 Red. Mass:       3.7837                 2.9014                 3.5014
 IR Intens:       15.253                  8.482                  1.852
 Frequency:       863.16                 898.39                 908.31
 Force Cnst:      1.1226                 1.0525                 1.4836
 Red. Mass:       2.5573                 2.2132                 3.0522
 IR Intens:       11.277                  5.984                 12.408
 Frequency:       911.97                 941.63                 956.10
 Force Cnst:      1.5317                 1.6183                 1.7016
 Red. Mass:       3.1258                 3.0978                 3.1594
 IR Intens:        2.323                 19.491                  6.439
 Frequency:       983.19                 998.92                1017.82
 Force Cnst:      2.4219                 1.6440                 2.2881
 Red. Mass:       4.2524                 2.7963                 3.7487
 IR Intens:        4.545                 18.221                 38.821
 Frequency:      1039.49                1061.29                1072.47
 Force Cnst:      1.4280                 2.0167                 1.8143
 Red. Mass:       2.2430                 3.0389                 2.6772
 IR Intens:       20.753                 37.629                 23.577
 Frequency:      1124.05                1139.88                1169.68
 Force Cnst:      1.3217                 1.2868                 1.0337
 Red. Mass:       1.7755                 1.6810                 1.2823
 IR Intens:       18.276                 16.129                  1.753
 Frequency:      1170.63                1176.61                1196.54
 Force Cnst:      1.1227                 1.8977                 1.5200
 Red. Mass:       1.3905                 2.3266                 1.8019
 IR Intens:       53.699                287.841                  7.062
 Frequency:      1203.86                1207.43                1211.70
 Force Cnst:      1.4216                 1.3043                 1.3405
 Red. Mass:       1.6649                 1.5184                 1.5497
 IR Intens:       79.048                  1.710                 12.922
 Frequency:      1214.18                1246.90                1257.57
 Force Cnst:      1.3459                 1.8118                 1.3511
 Red. Mass:       1.5495                 1.9778                 1.4501
 IR Intens:       84.311                127.779                 68.372
 Frequency:      1270.20                1293.23                1315.70
 Force Cnst:      1.5143                 1.8516                 1.4425
 Red. Mass:       1.5930                 1.8791                 1.4143
 IR Intens:       53.108                 43.528                 10.697
 Frequency:      1327.04                1335.73                1361.88
 Force Cnst:      1.6158                 1.9870                 1.6873
 Red. Mass:       1.5573                 1.8902                 1.5441
 IR Intens:        2.091                 29.487                 46.855
 Frequency:      1387.83                1427.10                1467.91
 Force Cnst:      1.9088                 1.5942                 1.5196
 Red. Mass:       1.6820                 1.3286                 1.1970
 IR Intens:       98.710                 14.633                 15.873
 Frequency:      1468.54                1482.14                1483.32
 Force Cnst:      1.5301                 1.3537                 1.3583
 Red. Mass:       1.2042                 1.0459                 1.0478
 IR Intens:       14.816                 11.457                  7.317
 Frequency:      1483.64                1495.58                1495.94
 Force Cnst:      1.3683                 1.4047                 1.3876
 Red. Mass:       1.0551                 1.0659                 1.0524
 IR Intens:        7.847                  1.224                  3.665
 Frequency:      1496.36                1497.55                1513.67
 Force Cnst:      1.3838                 1.3901                 1.4847
 Red. Mass:       1.0489                 1.0521                 1.0998
 IR Intens:       15.041                 10.224                  7.980
 Frequency:      1775.59                1795.49                3044.27
 Force Cnst:     21.8769                20.7208                 5.9023
 Red. Mass:      11.7774                10.9091                 1.0810
 IR Intens:      298.811                165.943                  4.850
 Frequency:      3047.95                3048.85                3051.99
 Force Cnst:      5.6947                 5.6396                 5.6501
 Red. Mass:       1.0404                 1.0297                 1.0295
 IR Intens:       12.764                 36.522                 34.715
 Frequency:      3056.34                3065.28                3092.80
 Force Cnst:      5.8250                 5.8710                 6.2406
 Red. Mass:       1.0584                 1.0605                 1.1073
 IR Intens:       38.272                 35.241                  1.123
 Frequency:      3109.22                3115.64                3117.56
 Force Cnst:      6.2752                 6.2684                 6.2681
 Red. Mass:       1.1017                 1.0960                 1.0946
 IR Intens:       12.897                 13.380                 40.129
 Frequency:      3122.80                3126.95                3132.54
 Force Cnst:      6.3594                 6.3780                 6.3031
 Red. Mass:       1.1068                 1.1071                 1.0902
 IR Intens:       16.965                 15.816                 22.982
 Frequency:      3142.03                3153.71                3157.79
 Force Cnst:      6.4055                 6.4827                 6.5020
 Red. Mass:       1.1012                 1.1063                 1.1067
 IR Intens:       13.163                 16.662                 12.525

 STANDARD THERMODYNAMIC QUANTITIES AT   298.15 K  AND     1.00 ATM

   This Molecule has  1 Imaginary Frequencies
   Zero point vibrational energy:      166.439 kcal/mol

   Atom    1 Element C  Has Mass   12.00000
   Atom    2 Element C  Has Mass   12.00000
   Atom    3 Element C  Has Mass   12.00000
   Atom    4 Element C  Has Mass   12.00000
   Atom    5 Element O  Has Mass   15.99491
   Atom    6 Element O  Has Mass   15.99491
   Atom    7 Element O  Has Mass   15.99491
   Atom    8 Element O  Has Mass   15.99491
   Atom    9 Element C  Has Mass   12.00000
   Atom   10 Element C  Has Mass   12.00000
   Atom   11 Element C  Has Mass   12.00000
   Atom   12 Element C  Has Mass   12.00000
   Atom   13 Element C  Has Mass   12.00000
   Atom   14 Element C  Has Mass   12.00000
   Atom   15 Element O  Has Mass   15.99491
   Atom   16 Element H  Has Mass    1.00783
   Atom   17 Element H  Has Mass    1.00783
   Atom   18 Element H  Has Mass    1.00783
   Atom   19 Element H  Has Mass    1.00783
   Atom   20 Element H  Has Mass    1.00783
   Atom   21 Element H  Has Mass    1.00783
   Atom   22 Element H  Has Mass    1.00783
   Atom   23 Element H  Has Mass    1.00783
   Atom   24 Element H  Has Mass    1.00783
   Atom   25 Element H  Has Mass    1.00783
   Atom   26 Element H  Has Mass    1.00783
   Atom   27 Element H  Has Mass    1.00783
   Atom   28 Element H  Has Mass    1.00783
   Atom   29 Element C  Has Mass   12.00000
   Atom   30 Element H  Has Mass    1.00783
   Atom   31 Element H  Has Mass    1.00783
   Atom   32 Element H  Has Mass    1.00783
   Molecular Mass:   228.099830 amu
   Principal axes and moments of inertia in amu*Bohr^2:
                             1           2           3
    Eigenvalues --     2796.57865  3336.04964  5304.60242
          X               0.99870    -0.05088    -0.00377
          Y               0.05095     0.99843     0.02318
          Z               0.00259    -0.02334     0.99972
   Rotational Symmetry Number is   1
   The Molecule is an Asymmetric Top
   Translational Enthalpy:        0.889 kcal/mol
   Rotational Enthalpy:           0.889 kcal/mol
   Vibrational Enthalpy:        173.972 kcal/mol
   gas constant (RT):             0.592 kcal/mol
   Translational Entropy:        42.176  cal/mol.K
   Rotational Entropy:           32.270  cal/mol.K
   Vibrational Entropy:          46.509  cal/mol.K

   Total Enthalpy:              176.342 kcal/mol
   Total Entropy:               120.955  cal/mol.K

 Total job time:  7890.77s(wall), 28476.13s(cpu)
        *  Thank you very much for using Q-Chem.  Have a nice day.  *
