 Q-Chem 5.0, Q-Chem, Inc., Pleasanton, CA (2017)
 Q-Chem 5.0.1 for Intel X86 EM64T Linux

User input:
--------------------------------------------------------------
$molecule
0 1
C 0.16165274 1.18249095 0.43556834
C 0.56458879 -0.27635041 0.84861920
C -1.24343073 1.36973778 -0.10586788
C -0.43246976 -1.38151952 0.56892815
O -2.15242087 0.93573749 0.79595707
O -1.53557188 1.88699085 -1.15295620
O -0.98260366 -1.28233305 -0.65471109
O -0.66593365 -2.28546492 1.33550822
C -1.92441971 -2.30515785 -1.01950808
C -3.53169917 1.02078809 0.39687904
C 1.26815881 1.53688377 -0.58611504
C 2.56963455 1.85690287 0.17400615
C 2.97962310 0.43599794 0.65853980
C 1.88453757 -0.45408017 0.00542909
O 1.56871663 0.27278341 -1.19263651
H 0.21793349 1.82567260 1.31839712
H 0.77560815 -0.34371784 1.91431679
H -2.74813949 -2.33594904 -0.30441105
H -3.82074094 2.06006414 0.23301787
H 3.31060122 2.27030209 -0.51179962
H 2.42514693 2.57145291 0.98682198
H 3.96220688 0.15020980 0.27934963
H 2.99899795 0.33669588 1.74573311
H -2.27969878 -2.02948698 -2.00980733
H -1.43721151 -3.28128585 -1.04440993
H -4.09912737 0.59009507 1.21894256
H -3.69454823 0.45515751 -0.52218876
H 0.95856947 2.24561128 -1.34890291
C 2.29848569 -1.87307361 -0.31394633
H 3.21131162 -1.86535570 -0.91305976
H 2.48711977 -2.43259302 0.60529462
H 1.52165491 -2.38856174 -0.88132967
$end

$rem
sym_ignore      true
jobtype         opt
method          b3lyp
basis           6-311++G(d,p)
dft_d           d3_op
mem_total       62000
MEM_STATIC      4000
ao2mo_disk      350000
max_scf_cycles  200
geom_opt_max_cycles 1000
geom_opt_tol_displacement 1
GEOM_OPT_TOL_GRADIENT       1
GEOM_OPT_TOL_ENERGY         1
$end

--------------------------------------------------------------

   15    -805.1983214107      3.37E-09 Convergence criterion met
 Total energy in the final basis set = -805.19832141
   10    -805.1983254035      6.97E-09 Convergence criterion met
 Total energy in the final basis set = -805.19832540
   11    -805.1983171163      4.70E-09 Convergence criterion met
 Total energy in the final basis set = -805.19831712
   10    -805.1983261921      6.52E-09 Convergence criterion met
 Total energy in the final basis set = -805.19832619
   10    -805.1983090069      8.87E-09 Convergence criterion met
 Total energy in the final basis set = -805.19830901
   11    -805.1983274560      4.97E-09 Convergence criterion met
 Total energy in the final basis set = -805.19832746
   10    -805.1983223794      7.92E-09 Convergence criterion met
 Total energy in the final basis set = -805.19832238
   10    -805.1983266753      5.02E-09 Convergence criterion met
    7    -805.1983265832      8.81E-09 Convergence criterion met
 Total energy in the final basis set = -805.19832658
    8    -805.1983262926      5.39E-09 Convergence criterion met
 Total energy in the final basis set = -805.19832629
    6    -805.1983263260      4.21E-09 Convergence criterion met
 Total energy in the final basis set = -805.19832633
    5    -805.1983263223      5.34E-09 Convergence criterion met
 Total energy in the final basis set = -805.19832632
    5    -805.1983263351      6.61E-09 Convergence criterion met
 Total energy in the final basis set = -805.19832634
    4    -805.1983263343      7.03E-09 Convergence criterion met
 Total energy in the final basis set = -805.19832633
 Final energy is   -805.198326334282
 **  OPTIMIZATION CONVERGED  **
 Total job time:  737.74s(wall), 12460.35s(cpu)
        *  Thank you very much for using Q-Chem.  Have a nice day.  *

User input: 2 of 2

r0239.ten.osc.edu 10.25.157
Q-Chem Developer Version! Running on 10.25.157.*
                  Welcome to Q-Chem
     A Quantum Leap Into The Future Of Chemistry

 Q-Chem 5.0, Q-Chem, Inc., Pleasanton, CA (2017)

 Yihan Shao,  Zhengting Gan,  E. Epifanovsky,  A. T. B. Gilbert,  M. Wormit,
 J. Kussmann,  A. W. Lange,  A. Behn,  Jia Deng,  Xintian Feng,  D. Ghosh,
 M. Goldey,  P. R. Horn,  L. D. Jacobson,  I. Kaliman,  T. Kus,  A. Landau,
 Jie Liu,  E. I. Proynov,  R. M. Richard,  R. P. Steele,  E. J. Sundstrom,
 H. L. Woodcock III,  P. M. Zimmerman,  D. Zuev,  B. Albrecht,  E. Alguire,
 S. A. Baeppler,  Z. Benda,  Y. A. Bernard,  E. J. Berquist,  K. B. Bravaya,
 D. Casanova,  Chun-Min Chang,  Yunqing Chen,  A. Chien,  K. D. Closser,
 M. P. Coons,  S. Dasgupta,  M. Diedenhofen,  Hainam Do,  R. G. Edgar,
 Po-Tung Fang,  S. Fatehi,  Qingguo Feng,  Qinghui Ge,  A. Ghysels,
 J. Gomes,  J. Gonthier,  A. Gunina,  M. W. D. Hanson-Heine,
 P. H. P. Harbach,  A. W. Hauser,  J. E. Herr,  E. G. Hohenstein,
 Z. C. Holden,  Kerwin Hui,  T.-C. Jagau,  Hyunjun Ji,  B. Kaduk,
 K. Khistyaev,  Jaehoon Kim,  P. Klunzinger,  K. Koh,  D. Kosenkov,
 T. Kowalczyk,  C. M. Krauter,  A. Kunitsa,  Ka Un Lao,  A. Laurent,
 K. V. Lawler,  Joonho Lee,  D. Lefrancois,  S. Lehtola,  D. S. Levine,
 Yi-Pei Li,  You-Sheng Lin,  Fenglai Liu,  E. Livshits,  A. Luenser,
 P. Manohar,  E. Mansoor,  S. F. Manzer,  Shan-Ping Mao,  Yuezhi Mao,
 N. Mardirossian,  A. V. Marenich,  L. A. Martinez-Martinez,  S. A. Maurer,
 N. J. Mayhall,  S. C. McKenzie,  J.-M. Mewes,  A. F. Morrison,  K. Nanda,
 T. S. Nguyen-Beck,  R. Olivares-Amaya,  J. A. Parkhill,  T. M. Perrine,
 F. Plasser,  S. Prager,  A. Prociuk,  D. R. Rehn,  F. Rob,  M. Schneider,
 N. Sergueev,  S. M. Sharada,  S. Sharma,  D. W. Small,  T. Stauch,
 T. Stein,  Yu-Chuan Su,  A. J. W. Thom,  T. Tsuchimochi,  L. Vogt,
 O. Vydrov,  M. A. Watson,  J. Wenzel,  M. de Wergifosse,  T. A. Wesolowski,
 A. White,  J. Witte,  A. Yamada,  Jun Yang,  K. Yao,  S. Yeganeh,
 S. R. Yost,  Zhi-Qiang You,  A. Zech,  Igor Ying Zhang,  Xing Zhang,
 Yan Zhao,  Ying Zhu,  B. R. Brooks,  G. K. L. Chan,  C. J. Cramer,
 M. S. Gordon,  W. J. Hehre,  A. Klamt,  M. W. Schmidt,  C. D. Sherrill,
 D. G. Truhlar,  A. Aspuru-Guzik,  R. Baer,  A. T. Bell,  N. A. Besley,
 Jeng-Da Chai,  A. Dreuw,  B. D. Dunietz,  T. R. Furlani,  Chao-Ping Hsu,
 Yousung Jung,  Jing Kong,  D. S. Lambrecht,  WanZhen Liang,  C. Ochsenfeld,
 V. A. Rassolov,  L. V. Slipchenko,  J. E. Subotnik,  T. Van Voorhis,
 J. M. Herbert,  A. I. Krylov,  P. M. W. Gill,  M. Head-Gordon

 Contributors to earlier versions of Q-Chem not listed above:
 R. D. Adamson,  B. Austin,  J. Baker,  G. J. O. Beran,  K. Brandhorst,
 S. T. Brown,  E. F. C. Byrd,  A. K. Chakraborty,  C.-L. Cheng,
 Siu Hung Chien,  D. M. Chipman,  D. L. Crittenden,  H. Dachsel,
 R. A. DiStasio Jr.,  R. J. Doerksen,  A. D. Dutoi,  L. Fusti-Molnar,
 W. A. Goddard III,  A. Golubeva-Zadorozhnaya,  S. R. Gwaltney,  G. Hawkins,
 A. Heyden,  S. Hirata,  G. Kedziora,  F. J. Keil,  C. Kelley,  Jihan Kim,
 R. A. King,  R. Z. Khaliullin,  P. P. Korambath,  W. Kurlancheek,
 A. M. Lee,  M. S. Lee,  S. V. Levchenko,  Ching Yeh Lin,  D. Liotard,
 R. C. Lochan,  I. Lotan,  P. E. Maslen,  N. Nair,  D. P. O'Neill,
 D. Neuhauser,  E. Neuscamman,  C. M. Oana,  R. Olson,  B. Peters,
 R. Peverati,  P. A. Pieniazek,  Y. M. Rhee,  J. Ritchie,  M. A. Rohrdanz,
 E. Rosta,  N. J. Russ,  H. F. Schaefer III,  N. E. Schultz,  N. Shenvi,
 A. C. Simmonett,  A. Sodt,  D. Stuck,  K. S. Thanthiriwatte,  V. Vanovschi,
 Tao Wang,  A. Warshel,  C. F. Williams,  Q. Wu,  X. Xu,  W. Zhang

 Please cite Q-Chem as follows:
 Y. Shao et al., Mol. Phys. 113, 184-215 (2015)
 DOI: 10.1080/00268976.2014.952696

 Q-Chem 5.0.1 for Intel X86 EM64T Linux

 Parts of Q-Chem use Armadillo 5.200.1 (Boston Tea Smuggler).
 http://arma.sourceforge.net/

 Q-Chem begins on Sat Oct 14 17:28:27 2017

Host: r0239.ten.osc.edu
0

     Scratch files written to /tmp/pbstmp.1310462/09//
Processing $rem in /users/PAS0291/osu6415/.qchemrc.
molden_format             true
The previous job contains 0 fragments, simply inherited here

Checking the input file for inconsistencies... 	...done.

--------------------------------------------------------------
User input:
--------------------------------------------------------------

$molecule
read
$end

$rem
sym_ignore      true
scf_guess       read
jobtype         freq
method          b3lyp
basis           6-311++G(d,p)
dft_d           d3_op
mem_total       62000
MEM_STATIC      4000
ao2mo_disk      350000
max_scf_cycles  200
$end
--------------------------------------------------------------

             Standard Nuclear Orientation (Angstroms)
    I     Atom           X                Y                Z
 ----------------------------------------------------------------
    1      C       0.1620919957     1.1846371948     0.4365542636
    2      C       0.5656478310    -0.2737664330     0.8493081374
    3      C      -1.2426114380     1.3719874392    -0.1056334964
    4      C      -0.4351815829    -1.3766716867     0.5739261208
    5      O      -2.1523257457     0.9280846178     0.7902623703
    6      O      -1.5339693614     1.8991475706    -1.1482182243
    7      O      -0.9742548123    -1.2881586218    -0.6556010256
    8      O      -0.6826855289    -2.2690141395     1.3497074770
    9      C      -1.9219524232    -2.3076456318    -1.0149964900
   10      C      -3.5312925422     1.0146819503     0.3897956896
   11      C       1.2694741329     1.5394990562    -0.5843100299
   12      C       2.5700912276     1.8567596772     0.1791526077
   13      C       2.9827521285     0.4332721382     0.6536006760
   14      C       1.8836224649    -0.4532276550     0.0032217211
   15      O       1.5677916311     0.2763912966    -1.1931582622
   16      H       0.2174987626     1.8276157732     1.3195981475
   17      H       0.7786179634    -0.3406615685     1.9146818689
   18      H      -2.7480966724    -2.3270086654    -0.3023611784
   19      H      -3.8213689858     2.0549769871     0.2346600458
   20      H       3.3117317377     2.2775773215    -0.5013548619
   21      H       2.4217541868     2.5646399713     0.9971065476
   22      H       3.9612067073     0.1496991353     0.2622109649
   23      H       3.0129804414     0.3271370623     1.7398770338
   24      H      -2.2720921534    -2.0378946282    -2.0087685039
   25      H      -1.4412291739    -3.2872116394    -1.0303582859
   26      H      -4.0991596053     0.5759914858     1.2073121129
   27      H      -3.6918100212     0.4567567066    -0.5343510103
   28      H       0.9608878376     2.2510086667    -1.3448996970
   29      C       2.2938887545    -1.8729076970    -0.3175164949
   30      H       3.2024950729    -1.8670227242    -0.9230572751
   31      H       2.4892914215    -2.4308303795     0.6013854460
   32      H       1.5127382692    -2.3891978507    -0.8781178149
 ----------------------------------------------------------------

    2    -805.1983263355      8.23E-09 Convergence criterion met
 Total energy in the final basis set = -805.19832634

                    Orbital Energies (a.u.)
 --------------------------------------------------------------

 Alpha MOs
 -- Occupied --
-19.175 -19.174 -19.129 -19.119 -19.116 -10.309 -10.306 -10.245
-10.232 -10.230 -10.229 -10.206 -10.205 -10.180 -10.179 -10.170
 -1.120  -1.113  -1.062  -1.030  -1.028  -0.832  -0.795  -0.784
 -0.746  -0.729  -0.696  -0.655  -0.606  -0.592  -0.569  -0.561
 -0.532  -0.517  -0.510  -0.491  -0.490  -0.483  -0.476  -0.473
 -0.462  -0.441  -0.434  -0.425  -0.416  -0.405  -0.397  -0.387
 -0.380  -0.374  -0.369  -0.361  -0.355  -0.353  -0.334  -0.332
 -0.320  -0.313  -0.290  -0.281  -0.273

          Ground-State Mulliken Net Atomic Charges

     Atom                 Charge (a.u.)
  ----------------------------------------
      1 C                    -0.193743
      2 C                     1.021902
      3 C                    -0.509195
      4 C                    -0.968999
      5 O                    -0.016355
      6 O                    -0.207356
      7 O                    -0.020176
      8 O                    -0.142338
      9 C                    -0.211106
     10 C                    -0.198381
     11 C                     0.067866
     12 C                    -0.505267
     13 C                    -0.386117
     14 C                    -0.369975
     15 O                    -0.067535
     16 H                     0.241111
     17 H                     0.290898
     18 H                     0.191905
     19 H                     0.173781
     20 H                     0.185651
     21 H                     0.123491
     22 H                     0.162837
     23 H                     0.141029
     24 H                     0.177551
     25 H                     0.172977
     26 H                     0.162433
     27 H                     0.179982
     28 H                     0.293050
     29 C                    -0.314936
     30 H                     0.179560
     31 H                     0.164106
     32 H                     0.181349
  ----------------------------------------
  Sum of atomic charges =     0.000000

                    Cartesian Multipole Moments
 -----------------------------------------------------------------
    Charge (ESU x 10^10)
                 0.0000
    Dipole Moment (Debye)
         X       0.0418      Y       0.4594      Z       1.0960
       Tot       1.1892
    Quadrupole Moments (Debye-Ang)
        XX     -81.6459     XY       2.5487     YY     -96.3824
        XZ       3.0496     YZ      10.9094     ZZ    -102.4061

 Frequency:        39.65                  64.73                  81.04
 Force Cnst:      0.0035                 0.0139                 0.0130
 Red. Mass:       3.7779                 5.6330                 3.3651
 IR Intens:        0.677                  2.458                  0.034
 Frequency:        87.81                 108.33                 139.62
 Force Cnst:      0.0271                 0.0174                 0.0320
 Red. Mass:       5.9741                 2.5167                 2.7896
 IR Intens:        1.048                  1.942                  2.509
 Frequency:       140.18                 143.79                 175.93
 Force Cnst:      0.0148                 0.0151                 0.0598
 Red. Mass:       1.2783                 1.2358                 3.2779
 IR Intens:        0.476                  0.229                  1.749
 Frequency:       221.28                 234.77                 240.76
 Force Cnst:      0.0348                 0.1025                 0.1182
 Red. Mass:       1.2067                 3.1568                 3.4618
 IR Intens:        1.076                  1.006                  6.443
 Frequency:       253.23                 281.25                 311.73
 Force Cnst:      0.1102                 0.2083                 0.2106
 Red. Mass:       2.9170                 4.4688                 3.6776
 IR Intens:        2.480                  4.526                  6.199
 Frequency:       326.07                 351.17                 363.86
 Force Cnst:      0.2002                 0.2346                 0.2957
 Red. Mass:       3.1960                 3.2286                 3.7907
 IR Intens:        0.528                  0.855                  9.852
 Frequency:       391.03                 476.07                 570.98
 Force Cnst:      0.4657                 0.6231                 0.7289
 Red. Mass:       5.1698                 4.6660                 3.7948
 IR Intens:        8.637                 10.171                 14.118
 Frequency:       590.10                 653.16                 657.34
 Force Cnst:      1.0458                 1.2407                 1.1175
 Red. Mass:       5.0976                 4.9360                 4.3894
 IR Intens:       11.235                  4.770                  1.279
 Frequency:       709.22                 733.87                 803.59
 Force Cnst:      1.7388                 1.6344                 1.2176
 Red. Mass:       5.8672                 5.1508                 3.2003
 IR Intens:        4.264                  5.414                  7.423
 Frequency:       822.60                 838.78                 857.96
 Force Cnst:      1.4352                 1.0134                 1.9204
 Red. Mass:       3.5998                 2.4448                 4.4279
 IR Intens:       20.821                  0.316                 10.768
 Frequency:       865.98                 885.08                 894.53
 Force Cnst:      1.6096                 1.5598                 1.0579
 Red. Mass:       3.6429                 3.3796                 2.2438
 IR Intens:        1.195                  1.309                  8.971
 Frequency:       912.21                 917.93                 950.02
 Force Cnst:      1.4201                 1.3730                 1.6336
 Red. Mass:       2.8966                 2.7658                 3.0721
 IR Intens:        4.352                 27.361                  6.133
 Frequency:       982.08                 999.61                1016.79
 Force Cnst:      1.4372                 1.8180                 2.2107
 Red. Mass:       2.5291                 3.0879                 3.6292
 IR Intens:        8.849                 27.661                 34.827
 Frequency:      1049.26                1062.30                1066.07
 Force Cnst:      1.0883                 2.5656                 2.8067
 Red. Mass:       1.6778                 3.8587                 4.1916
 IR Intens:        7.878                 69.668                 29.830
 Frequency:      1126.08                1141.20                1172.23
 Force Cnst:      1.4192                 1.2588                 1.0387
 Red. Mass:       1.8996                 1.6405                 1.2829
 IR Intens:       18.581                  3.991                  0.385
 Frequency:      1173.50                1197.47                1201.16
 Force Cnst:      1.0401                 1.5564                 1.5461
 Red. Mass:       1.2820                 1.8423                 1.8188
 IR Intens:        1.667                 21.874                151.872
 Frequency:      1203.57                1208.56                1211.44
 Force Cnst:      1.4820                 1.2986                 1.4512
 Red. Mass:       1.7364                 1.5090                 1.6784
 IR Intens:        2.471                  4.336                 69.064
 Frequency:      1217.34                1253.19                1268.13
 Force Cnst:      1.6097                 1.3935                 2.1118
 Red. Mass:       1.8436                 1.5060                 2.2288
 IR Intens:       86.655                 74.770                211.030
 Frequency:      1271.17                1294.84                1311.28
 Force Cnst:      1.5555                 1.8601                 1.4765
 Red. Mass:       1.6339                 1.8830                 1.4574
 IR Intens:       11.481                 58.572                  2.535
 Frequency:      1329.72                1343.31                1354.33
 Force Cnst:      1.9762                 1.5965                 1.4610
 Red. Mass:       1.8969                 1.5016                 1.3519
 IR Intens:       33.116                 13.920                  4.552
 Frequency:      1386.54                1416.37                1468.69
 Force Cnst:      1.9849                 1.6014                 1.5195
 Red. Mass:       1.7523                 1.3549                 1.1956
 IR Intens:       35.158                 14.882                 13.654
 Frequency:      1469.42                1482.18                1484.20
 Force Cnst:      1.5181                 1.3658                 1.3621
 Red. Mass:       1.1933                 1.0552                 1.0495
 IR Intens:       15.299                  0.321                  0.190
 Frequency:      1485.23                1492.77                1495.38
 Force Cnst:      1.3622                 1.4112                 1.3816
 Red. Mass:       1.0481                 1.0749                 1.0486
 IR Intens:       16.658                  4.390                 15.491
 Frequency:      1501.85                1505.92                1516.93
 Force Cnst:      1.3945                 1.4041                 1.4909
 Red. Mass:       1.0493                 1.0508                 1.0997
 IR Intens:        3.349                  6.069                  7.141
 Frequency:      1779.32                1798.40                3042.59
 Force Cnst:     19.8922                22.4648                 5.6464
 Red. Mass:      10.6642                11.7890                 1.0352
 IR Intens:      274.948                249.521                 11.635
 Frequency:      3047.76                3048.59                3055.42
 Force Cnst:      5.6362                 5.6403                 5.8372
 Red. Mass:       1.0299                 1.0300                 1.0612
 IR Intens:       11.062                 53.738                 22.529
 Frequency:      3060.85                3067.20                3093.39
 Force Cnst:      5.9463                 5.8970                 6.2459
 Red. Mass:       1.0772                 1.0639                 1.1078
 IR Intens:       15.373                 35.348                  0.020
 Frequency:      3110.40                3112.55                3116.91
 Force Cnst:      6.2937                 6.2854                 6.3102
 Red. Mass:       1.1041                 1.1012                 1.1024
 IR Intens:        5.492                 27.208                 19.102
 Frequency:      3118.79                3120.00                3120.53
 Force Cnst:      6.3429                 6.2515                 6.3483
 Red. Mass:       1.1068                 1.0900                 1.1065
 IR Intens:       36.621                 22.919                  7.824
 Frequency:      3156.49                3156.73                3158.16
 Force Cnst:      6.4563                 6.4366                 6.4989
 Red. Mass:       1.0998                 1.0963                 1.1059
 IR Intens:        3.110                 15.087                 10.912

 STANDARD THERMODYNAMIC QUANTITIES AT   298.15 K  AND     1.00 ATM

   This Molecule has  0 Imaginary Frequencies
   Zero point vibrational energy:      166.430 kcal/mol

   Atom    1 Element C  Has Mass   12.00000
   Atom    2 Element C  Has Mass   12.00000
   Atom    3 Element C  Has Mass   12.00000
   Atom    4 Element C  Has Mass   12.00000
   Atom    5 Element O  Has Mass   15.99491
   Atom    6 Element O  Has Mass   15.99491
   Atom    7 Element O  Has Mass   15.99491
   Atom    8 Element O  Has Mass   15.99491
   Atom    9 Element C  Has Mass   12.00000
   Atom   10 Element C  Has Mass   12.00000
   Atom   11 Element C  Has Mass   12.00000
   Atom   12 Element C  Has Mass   12.00000
   Atom   13 Element C  Has Mass   12.00000
   Atom   14 Element C  Has Mass   12.00000
   Atom   15 Element O  Has Mass   15.99491
   Atom   16 Element H  Has Mass    1.00783
   Atom   17 Element H  Has Mass    1.00783
   Atom   18 Element H  Has Mass    1.00783
   Atom   19 Element H  Has Mass    1.00783
   Atom   20 Element H  Has Mass    1.00783
   Atom   21 Element H  Has Mass    1.00783
   Atom   22 Element H  Has Mass    1.00783
   Atom   23 Element H  Has Mass    1.00783
   Atom   24 Element H  Has Mass    1.00783
   Atom   25 Element H  Has Mass    1.00783
   Atom   26 Element H  Has Mass    1.00783
   Atom   27 Element H  Has Mass    1.00783
   Atom   28 Element H  Has Mass    1.00783
   Atom   29 Element C  Has Mass   12.00000
   Atom   30 Element H  Has Mass    1.00783
   Atom   31 Element H  Has Mass    1.00783
   Atom   32 Element H  Has Mass    1.00783
   Molecular Mass:   228.099830 amu
   Principal axes and moments of inertia in amu*Bohr^2:
                             1           2           3
    Eigenvalues --     2316.89662  3484.84820  4736.90836
          X               0.99942    -0.03395     0.00225
          Y               0.03374     0.99731     0.06504
          Z              -0.00445    -0.06493     0.99788
   Rotational Symmetry Number is   1
   The Molecule is an Asymmetric Top
   Translational Enthalpy:        0.889 kcal/mol
   Rotational Enthalpy:           0.889 kcal/mol
   Vibrational Enthalpy:        174.563 kcal/mol
   gas constant (RT):             0.592 kcal/mol
   Translational Entropy:        42.176  cal/mol.K
   Rotational Entropy:           32.014  cal/mol.K
   Vibrational Entropy:          51.783  cal/mol.K

   Total Enthalpy:              176.933 kcal/mol
   Total Entropy:               125.973  cal/mol.K

 Total job time:  8401.31s(wall), 30049.90s(cpu)
        *  Thank you very much for using Q-Chem.  Have a nice day.  *
