 Q-Chem 5.0, Q-Chem, Inc., Pleasanton, CA (2017)
 Q-Chem 5.0.1 for Intel X86 EM64T Linux

User input:
--------------------------------------------------------------
$molecule
0 1
C          0.71054       -2.38835        0.07915
C         -0.03529       -2.12120        1.43848
C          0.12949       -0.67328        1.88886
C          1.57553       -1.41733       -0.43548
O         -0.90001        0.12783        1.58373
O          1.13719       -0.29818        2.45210
O          2.33174       -1.65975       -1.53020
O          1.36826       -0.30365       -0.00480
C          2.89076       -0.49027       -2.15386
C         -0.66317        1.52952        1.79536
C         -0.47786       -2.90896       -0.80599
C         -0.73239       -4.38475       -0.45052
C         -1.34456       -4.22110        0.96764
C         -1.46088       -2.66765        1.10315
O         -1.61916       -2.24803       -0.26832
H          1.46782       -3.16470        0.19675
H          0.43963       -2.70990        2.22726
H          3.56441        0.02415       -1.46276
H          0.15758        1.85629        1.15224
H         -1.45639       -4.81371       -1.14909
H          0.17377       -4.99723       -0.47574
H         -2.33800       -4.67391        1.03101
H         -0.72849       -4.66051        1.75840
H          3.43707       -0.85524       -3.02421
H          2.09800        0.20020       -2.45516
H         -0.41318        1.72819        2.84109
H         -1.59298        2.02635        1.51689
H         -0.38450       -2.68329       -1.86947
C         -2.63292       -2.22334        1.95475
H         -3.54807       -2.69937        1.58815
H         -2.47866       -2.53477        2.99429
H         -2.75914       -1.14233        1.92497
$end

$rem
sym_ignore      true
jobtype         ts
method          b3lyp
basis           6-311++G(d,p)
dft_d           d3_op
mem_total       62000
MEM_STATIC      4000
ao2mo_disk      350000
max_scf_cycles  200
geom_opt_max_cycles 1000
geom_opt_tol_displacement 1
GEOM_OPT_TOL_GRADIENT       1
GEOM_OPT_TOL_ENERGY         1
$end

--------------------------------------------------------------

   15    -805.1526523129      4.29E-09 Convergence criterion met
 Total energy in the final basis set = -805.15265231
   13    -805.1661166016      3.47E-09 Convergence criterion met
 Total energy in the final basis set = -805.16611660
   12    -805.1812804947      9.90E-09 Convergence criterion met
 Total energy in the final basis set = -805.18128049
   13    -805.1872634879      3.31E-09 Convergence criterion met
 Total energy in the final basis set = -805.18726349
   12    -805.1891901351      7.57E-09 Convergence criterion met
 Total energy in the final basis set = -805.18919014
   13    -805.1891715587      3.19E-09 Convergence criterion met
 Total energy in the final basis set = -805.18917156
   12    -805.1886156504      9.94E-09 Convergence criterion met
 Total energy in the final basis set = -805.18861565
   12    -805.1883273886      6.85E-09 Convergence criterion met
    8    -805.1925219489      7.69E-09 Convergence criterion met
 Total energy in the final basis set = -805.19252195
    7    -805.1925218485      6.39E-09 Convergence criterion met
 Total energy in the final basis set = -805.19252185
    7    -805.1925218904      3.89E-09 Convergence criterion met
 Total energy in the final basis set = -805.19252189
    6    -805.1925218901      4.18E-09 Convergence criterion met
 Total energy in the final basis set = -805.19252189
    5    -805.1925218891      7.50E-09 Convergence criterion met
 Total energy in the final basis set = -805.19252189
    5    -805.1925218851      3.95E-09 Convergence criterion met
 Total energy in the final basis set = -805.19252189
 Final energy is   -805.192521885051
 **  OPTIMIZATION CONVERGED  **
 Total job time:  2644.05s(wall), 45190.18s(cpu)
        *  Thank you very much for using Q-Chem.  Have a nice day.  *

User input: 2 of 2

r0110.ten.osc.edu 10.25.153
Q-Chem Developer Version! Running on 10.25.153.*
                  Welcome to Q-Chem
     A Quantum Leap Into The Future Of Chemistry

 Q-Chem 5.0, Q-Chem, Inc., Pleasanton, CA (2017)

 Yihan Shao,  Zhengting Gan,  E. Epifanovsky,  A. T. B. Gilbert,  M. Wormit,
 J. Kussmann,  A. W. Lange,  A. Behn,  Jia Deng,  Xintian Feng,  D. Ghosh,
 M. Goldey,  P. R. Horn,  L. D. Jacobson,  I. Kaliman,  T. Kus,  A. Landau,
 Jie Liu,  E. I. Proynov,  R. M. Richard,  R. P. Steele,  E. J. Sundstrom,
 H. L. Woodcock III,  P. M. Zimmerman,  D. Zuev,  B. Albrecht,  E. Alguire,
 S. A. Baeppler,  Z. Benda,  Y. A. Bernard,  E. J. Berquist,  K. B. Bravaya,
 D. Casanova,  Chun-Min Chang,  Yunqing Chen,  A. Chien,  K. D. Closser,
 M. P. Coons,  S. Dasgupta,  M. Diedenhofen,  Hainam Do,  R. G. Edgar,
 Po-Tung Fang,  S. Fatehi,  Qingguo Feng,  Qinghui Ge,  A. Ghysels,
 J. Gomes,  J. Gonthier,  A. Gunina,  M. W. D. Hanson-Heine,
 P. H. P. Harbach,  A. W. Hauser,  J. E. Herr,  E. G. Hohenstein,
 Z. C. Holden,  Kerwin Hui,  T.-C. Jagau,  Hyunjun Ji,  B. Kaduk,
 K. Khistyaev,  Jaehoon Kim,  P. Klunzinger,  K. Koh,  D. Kosenkov,
 T. Kowalczyk,  C. M. Krauter,  A. Kunitsa,  Ka Un Lao,  A. Laurent,
 K. V. Lawler,  Joonho Lee,  D. Lefrancois,  S. Lehtola,  D. S. Levine,
 Yi-Pei Li,  You-Sheng Lin,  Fenglai Liu,  E. Livshits,  A. Luenser,
 P. Manohar,  E. Mansoor,  S. F. Manzer,  Shan-Ping Mao,  Yuezhi Mao,
 N. Mardirossian,  A. V. Marenich,  L. A. Martinez-Martinez,  S. A. Maurer,
 N. J. Mayhall,  S. C. McKenzie,  J.-M. Mewes,  A. F. Morrison,  K. Nanda,
 T. S. Nguyen-Beck,  R. Olivares-Amaya,  J. A. Parkhill,  T. M. Perrine,
 F. Plasser,  S. Prager,  A. Prociuk,  D. R. Rehn,  F. Rob,  M. Schneider,
 N. Sergueev,  S. M. Sharada,  S. Sharma,  D. W. Small,  T. Stauch,
 T. Stein,  Yu-Chuan Su,  A. J. W. Thom,  T. Tsuchimochi,  L. Vogt,
 O. Vydrov,  M. A. Watson,  J. Wenzel,  M. de Wergifosse,  T. A. Wesolowski,
 A. White,  J. Witte,  A. Yamada,  Jun Yang,  K. Yao,  S. Yeganeh,
 S. R. Yost,  Zhi-Qiang You,  A. Zech,  Igor Ying Zhang,  Xing Zhang,
 Yan Zhao,  Ying Zhu,  B. R. Brooks,  G. K. L. Chan,  C. J. Cramer,
 M. S. Gordon,  W. J. Hehre,  A. Klamt,  M. W. Schmidt,  C. D. Sherrill,
 D. G. Truhlar,  A. Aspuru-Guzik,  R. Baer,  A. T. Bell,  N. A. Besley,
 Jeng-Da Chai,  A. Dreuw,  B. D. Dunietz,  T. R. Furlani,  Chao-Ping Hsu,
 Yousung Jung,  Jing Kong,  D. S. Lambrecht,  WanZhen Liang,  C. Ochsenfeld,
 V. A. Rassolov,  L. V. Slipchenko,  J. E. Subotnik,  T. Van Voorhis,
 J. M. Herbert,  A. I. Krylov,  P. M. W. Gill,  M. Head-Gordon

 Contributors to earlier versions of Q-Chem not listed above:
 R. D. Adamson,  B. Austin,  J. Baker,  G. J. O. Beran,  K. Brandhorst,
 S. T. Brown,  E. F. C. Byrd,  A. K. Chakraborty,  C.-L. Cheng,
 Siu Hung Chien,  D. M. Chipman,  D. L. Crittenden,  H. Dachsel,
 R. A. DiStasio Jr.,  R. J. Doerksen,  A. D. Dutoi,  L. Fusti-Molnar,
 W. A. Goddard III,  A. Golubeva-Zadorozhnaya,  S. R. Gwaltney,  G. Hawkins,
 A. Heyden,  S. Hirata,  G. Kedziora,  F. J. Keil,  C. Kelley,  Jihan Kim,
 R. A. King,  R. Z. Khaliullin,  P. P. Korambath,  W. Kurlancheek,
 A. M. Lee,  M. S. Lee,  S. V. Levchenko,  Ching Yeh Lin,  D. Liotard,
 R. C. Lochan,  I. Lotan,  P. E. Maslen,  N. Nair,  D. P. O'Neill,
 D. Neuhauser,  E. Neuscamman,  C. M. Oana,  R. Olson,  B. Peters,
 R. Peverati,  P. A. Pieniazek,  Y. M. Rhee,  J. Ritchie,  M. A. Rohrdanz,
 E. Rosta,  N. J. Russ,  H. F. Schaefer III,  N. E. Schultz,  N. Shenvi,
 A. C. Simmonett,  A. Sodt,  D. Stuck,  K. S. Thanthiriwatte,  V. Vanovschi,
 Tao Wang,  A. Warshel,  C. F. Williams,  Q. Wu,  X. Xu,  W. Zhang

 Please cite Q-Chem as follows:
 Y. Shao et al., Mol. Phys. 113, 184-215 (2015)
 DOI: 10.1080/00268976.2014.952696

 Q-Chem 5.0.1 for Intel X86 EM64T Linux

 Parts of Q-Chem use Armadillo 5.200.1 (Boston Tea Smuggler).
 http://arma.sourceforge.net/

 Q-Chem begins on Tue Oct 17 13:36:50 2017

Host: r0110.ten.osc.edu
0

     Scratch files written to /tmp/pbstmp.1311523/17//
Processing $rem in /users/PAS0291/osu6415/.qchemrc.
molden_format             true
The previous job contains 0 fragments, simply inherited here

Checking the input file for inconsistencies... 	...done.

--------------------------------------------------------------
User input:
--------------------------------------------------------------

$molecule
read
$end

$rem
sym_ignore      true
scf_guess       read
jobtype         freq
method          b3lyp
basis           6-311++G(d,p)
dft_d           d3_op
mem_total       62000
MEM_STATIC      4000
ao2mo_disk      350000
max_scf_cycles  200
$end
--------------------------------------------------------------

             Standard Nuclear Orientation (Angstroms)
    I     Atom           X                Y                Z
 ----------------------------------------------------------------
    1      C       0.7325930672    -2.3513885048     0.1086232325
    2      C      -0.0302377231    -2.1224619946     1.4590904017
    3      C       0.0948022464    -0.7106059784     2.0222638006
    4      C       1.4143110027    -1.1673607862    -0.5456392821
    5      O      -0.8449961103     0.1360077047     1.5850193932
    6      O       0.9633228038    -0.4100679834     2.8075413297
    7      O       2.2067575389    -1.6173932859    -1.5479494738
    8      O       1.2937021061     0.0006691278    -0.2790744429
    9      C       2.8979535576    -0.6080422440    -2.3082864495
   10      C      -0.6586959785     1.5178556965     1.9376465266
   11      C      -0.4200406866    -2.9105543394    -0.7963659729
   12      C      -0.6644149122    -4.3825211217    -0.4209423022
   13      C      -1.3451274752    -4.2091469212     0.9642969299
   14      C      -1.4569813236    -2.6577565581     1.0883095304
   15      O      -1.5795462219    -2.2518392747    -0.2930281680
   16      H       1.5017240239    -3.1144814382     0.2289553397
   17      H       0.4202151069    -2.7520842850     2.2263816427
   18      H       3.5296249492    -0.0053618998    -1.6545016852
   19      H       0.2673741150     1.8821148047     1.4916747730
   20      H      -1.3420765333    -4.8432029474    -1.1416467261
   21      H       0.2542176372    -4.9712655225    -0.3922259232
   22      H      -2.3420672703    -4.6520069317     0.9776257359
   23      H      -0.7734059546    -4.6458568777     1.7855243525
   24      H       3.5013802624    -1.1531706407    -3.0306757008
   25      H       2.1839818787     0.0417019819    -2.8171417724
   26      H      -0.6196684796     1.6388794433     3.0210388173
   27      H      -1.5170709259     2.0402302437     1.5207041923
   28      H      -0.3003342385    -2.7027122610    -1.8570511870
   29      C      -2.6397038688    -2.1944795028     1.9104506963
   30      H      -3.5480522248    -2.6841721120     1.5521833780
   31      H      -2.4949086040    -2.4709268116     2.9590108590
   32      H      -2.7684917645    -1.1168687796     1.8468581548
 ----------------------------------------------------------------

    2    -805.1925218950      1.53E-09 Convergence criterion met
 Total energy in the final basis set = -805.19252189

                    Orbital Energies (a.u.)
 --------------------------------------------------------------

 Alpha MOs
 -- Occupied --
-19.178 -19.161 -19.131 -19.123 -19.104 -10.312 -10.298 -10.242
-10.238 -10.233 -10.216 -10.208 -10.201 -10.181 -10.180 -10.164
 -1.120  -1.105  -1.064  -1.033  -1.016  -0.830  -0.796  -0.781
 -0.746  -0.722  -0.691  -0.651  -0.604  -0.592  -0.570  -0.560
 -0.527  -0.511  -0.503  -0.493  -0.487  -0.486  -0.479  -0.466
 -0.457  -0.437  -0.424  -0.421  -0.415  -0.409  -0.393  -0.384
 -0.374  -0.368  -0.363  -0.362  -0.357  -0.351  -0.338  -0.328
 -0.321  -0.301  -0.290  -0.277  -0.269

          Ground-State Mulliken Net Atomic Charges

     Atom                 Charge (a.u.)
  ----------------------------------------
      1 C                    -0.055996
      2 C                     0.310845
      3 C                    -0.413638
      4 C                    -0.790891
      5 O                     0.026506
      6 O                    -0.173620
      7 O                    -0.060434
      8 O                    -0.199393
      9 C                    -0.245859
     10 C                    -0.207146
     11 C                     0.368999
     12 C                    -0.441901
     13 C                    -0.454359
     14 C                    -0.194557
     15 O                    -0.055217
     16 H                     0.251769
     17 H                     0.278740
     18 H                     0.179494
     19 H                     0.188895
     20 H                     0.184111
     21 H                     0.128661
     22 H                     0.162793
     23 H                     0.142526
     24 H                     0.154609
     25 H                     0.179633
     26 H                     0.170146
     27 H                     0.152033
     28 H                     0.277393
     29 C                    -0.356441
     30 H                     0.160183
     31 H                     0.155563
     32 H                     0.176554
  ----------------------------------------
  Sum of atomic charges =    -0.000000

                    Cartesian Multipole Moments
 -----------------------------------------------------------------
    Charge (ESU x 10^10)
                -0.0000
    Dipole Moment (Debye)
         X      -0.0186      Y      -1.9576      Z      -1.7897
       Tot       2.6525
    Quadrupole Moments (Debye-Ang)
        XX     -93.7906     XY      -0.9948     YY     -82.0250
        XZ     -11.6672     YZ      -0.7666     ZZ     -95.7449

 Frequency:       -22.43                  44.94                  88.24
 Force Cnst:      0.0021                 0.0044                 0.0157
 Red. Mass:       7.0880                 3.6740                 3.4253
 IR Intens:        2.102                  0.656                  2.279
 Frequency:       102.58                 111.22                 123.79
 Force Cnst:      0.0118                 0.0205                 0.0138
 Red. Mass:       1.9102                 2.8160                 1.5233
 IR Intens:        0.734                  2.013                  0.219
 Frequency:       134.75                 144.71                 179.01
 Force Cnst:      0.0144                 0.0463                 0.0700
 Red. Mass:       1.3424                 3.7512                 3.7071
 IR Intens:        0.617                  1.374                  0.314
 Frequency:       213.96                 223.08                 242.65
 Force Cnst:      0.0668                 0.0435                 0.1097
 Red. Mass:       2.4768                 1.4821                 3.1618
 IR Intens:        0.798                  2.080                  4.791
 Frequency:       256.40                 302.08                 308.89
 Force Cnst:      0.1429                 0.1867                 0.1937
 Red. Mass:       3.6896                 3.4731                 3.4453
 IR Intens:        1.522                 10.516                 13.394
 Frequency:       335.89                 360.74                 365.75
 Force Cnst:      0.2358                 0.2533                 0.2525
 Red. Mass:       3.5476                 3.3039                 3.2034
 IR Intens:        1.583                 10.947                  4.153
 Frequency:       391.19                 449.53                 577.40
 Force Cnst:      0.5059                 0.4657                 0.8463
 Red. Mass:       5.6111                 3.9111                 4.3084
 IR Intens:        7.740                  2.561                 21.085
 Frequency:       616.03                 644.85                 656.46
 Force Cnst:      1.0124                 1.2648                 1.1033
 Red. Mass:       4.5281                 5.1626                 4.3452
 IR Intens:        4.480                  6.628                  1.929
 Frequency:       706.32                 753.07                 800.62
 Force Cnst:      1.5897                 2.1230                 1.1971
 Red. Mass:       5.4085                 6.3538                 3.1698
 IR Intens:        6.474                  6.072                  8.371
 Frequency:       812.74                 841.40                 850.57
 Force Cnst:      1.6345                 1.8635                 1.0800
 Red. Mass:       4.1998                 4.4675                 2.5336
 IR Intens:       16.210                  8.065                  4.291
 Frequency:       858.63                 890.00                 896.54
 Force Cnst:      1.1467                 1.5249                 1.1693
 Red. Mass:       2.6399                 3.2675                 2.4691
 IR Intens:        5.878                  3.192                 10.983
 Frequency:       917.74                 941.17                 961.31
 Force Cnst:      1.3585                 1.4531                 2.5973
 Red. Mass:       2.7377                 2.7843                 4.7704
 IR Intens:       19.379                 13.007                 10.585
 Frequency:       973.93                 997.28                1015.16
 Force Cnst:      1.8791                 1.6587                 2.0965
 Red. Mass:       3.3624                 2.8307                 3.4528
 IR Intens:        0.550                  7.385                 38.478
 Frequency:      1032.94                1063.60                1073.61
 Force Cnst:      1.2818                 2.3719                 1.9486
 Red. Mass:       2.0390                 3.5586                 2.8693
 IR Intens:       31.052                 55.468                 47.149
 Frequency:      1127.56                1137.79                1169.36
 Force Cnst:      1.4717                 1.2870                 1.0767
 Red. Mass:       1.9646                 1.6873                 1.3364
 IR Intens:       27.041                 27.595                 27.798
 Frequency:      1172.18                1180.06                1193.86
 Force Cnst:      1.0694                 1.7286                 1.6343
 Red. Mass:       1.3210                 2.1069                 1.9462
 IR Intens:       22.189                220.474                 96.050
 Frequency:      1206.45                1210.48                1212.32
 Force Cnst:      1.2752                 1.2663                 1.2996
 Red. Mass:       1.4869                 1.4667                 1.5008
 IR Intens:       25.162                 11.761                 22.489
 Frequency:      1223.36                1254.09                1265.40
 Force Cnst:      1.3273                 1.2671                 1.6257
 Red. Mass:       1.5053                 1.3675                 1.7232
 IR Intens:       45.506                  6.610                 74.200
 Frequency:      1282.95                1296.53                1319.08
 Force Cnst:      2.1809                 1.6659                 1.4493
 Red. Mass:       2.2489                 1.6820                 1.4138
 IR Intens:      141.217                 28.779                 13.239
 Frequency:      1327.86                1336.23                1365.03
 Force Cnst:      2.3812                 1.6398                 1.4994
 Red. Mass:       2.2921                 1.5587                 1.3658
 IR Intens:       38.040                 30.065                 14.364
 Frequency:      1382.05                1418.58                1466.39
 Force Cnst:      1.8281                 1.5897                 1.5353
 Red. Mass:       1.6244                 1.3408                 1.2118
 IR Intens:       57.397                 16.315                 18.775
 Frequency:      1468.13                1481.95                1483.91
 Force Cnst:      1.4975                 1.3517                 1.3666
 Red. Mass:       1.1792                 1.0446                 1.0533
 IR Intens:       12.787                  7.860                  9.190
 Frequency:      1486.90                1496.04                1497.66
 Force Cnst:      1.3773                 1.3794                 1.3861
 Red. Mass:       1.0573                 1.0461                 1.0489
 IR Intens:        0.151                  5.893                 12.568
 Frequency:      1498.25                1511.04                1518.52
 Force Cnst:      1.4211                 1.4179                 1.4912
 Red. Mass:       1.0745                 1.0540                 1.0976
 IR Intens:        2.550                  8.476                  9.992
 Frequency:      1771.79                1801.97                3041.49
 Force Cnst:     19.5092                21.8223                 5.6722
 Red. Mass:      10.5479                11.4066                 1.0407
 IR Intens:      283.889                255.727                 16.395
 Frequency:      3049.71                3051.54                3058.10
 Force Cnst:      5.6430                 5.6460                 5.8331
 Red. Mass:       1.0298                 1.0291                 1.0586
 IR Intens:       33.664                 40.228                 29.436
 Frequency:      3067.61                3089.59                3096.53
 Force Cnst:      5.8797                 6.1401                 6.2143
 Red. Mass:       1.0605                 1.0918                 1.1000
 IR Intens:       34.096                  4.064                  4.149
 Frequency:      3099.88                3103.44                3116.10
 Force Cnst:      6.2358                 6.1746                 6.3109
 Red. Mass:       1.1014                 1.0881                 1.1031
 IR Intens:       13.732                  6.490                 44.672
 Frequency:      3123.61                3129.25                3137.53
 Force Cnst:      6.3645                 6.3865                 6.3228
 Red. Mass:       1.1071                 1.1070                 1.0901
 IR Intens:       17.826                 13.952                 18.988
 Frequency:      3155.39                3157.39                3158.04
 Force Cnst:      6.4905                 6.4976                 6.4481
 Red. Mass:       1.1064                 1.1062                 1.0974
 IR Intens:       15.200                 13.484                  4.095

 STANDARD THERMODYNAMIC QUANTITIES AT   298.15 K  AND     1.00 ATM

   This Molecule has  1 Imaginary Frequencies
   Zero point vibrational energy:      166.487 kcal/mol

   Atom    1 Element C  Has Mass   12.00000
   Atom    2 Element C  Has Mass   12.00000
   Atom    3 Element C  Has Mass   12.00000
   Atom    4 Element C  Has Mass   12.00000
   Atom    5 Element O  Has Mass   15.99491
   Atom    6 Element O  Has Mass   15.99491
   Atom    7 Element O  Has Mass   15.99491
   Atom    8 Element O  Has Mass   15.99491
   Atom    9 Element C  Has Mass   12.00000
   Atom   10 Element C  Has Mass   12.00000
   Atom   11 Element C  Has Mass   12.00000
   Atom   12 Element C  Has Mass   12.00000
   Atom   13 Element C  Has Mass   12.00000
   Atom   14 Element C  Has Mass   12.00000
   Atom   15 Element O  Has Mass   15.99491
   Atom   16 Element H  Has Mass    1.00783
   Atom   17 Element H  Has Mass    1.00783
   Atom   18 Element H  Has Mass    1.00783
   Atom   19 Element H  Has Mass    1.00783
   Atom   20 Element H  Has Mass    1.00783
   Atom   21 Element H  Has Mass    1.00783
   Atom   22 Element H  Has Mass    1.00783
   Atom   23 Element H  Has Mass    1.00783
   Atom   24 Element H  Has Mass    1.00783
   Atom   25 Element H  Has Mass    1.00783
   Atom   26 Element H  Has Mass    1.00783
   Atom   27 Element H  Has Mass    1.00783
   Atom   28 Element H  Has Mass    1.00783
   Atom   29 Element C  Has Mass   12.00000
   Atom   30 Element H  Has Mass    1.00783
   Atom   31 Element H  Has Mass    1.00783
   Atom   32 Element H  Has Mass    1.00783
   Molecular Mass:   228.099830 amu
   Principal axes and moments of inertia in amu*Bohr^2:
                             1           2           3
    Eigenvalues --     2794.19406  3279.53845  5147.12662
          X               0.76488     0.01027     0.64409
          Y               0.35496     0.82765    -0.43473
          Z              -0.53755     0.56115     0.62941
   Rotational Symmetry Number is   1
   The Molecule is an Asymmetric Top
   Translational Enthalpy:        0.889 kcal/mol
   Rotational Enthalpy:           0.889 kcal/mol
   Vibrational Enthalpy:        174.084 kcal/mol
   gas constant (RT):             0.592 kcal/mol
   Translational Entropy:        42.176  cal/mol.K
   Rotational Entropy:           32.222  cal/mol.K
   Vibrational Entropy:          46.902  cal/mol.K

   Total Enthalpy:              176.454 kcal/mol
   Total Entropy:               121.300  cal/mol.K

 Total job time:  8129.43s(wall), 28774.73s(cpu)
        *  Thank you very much for using Q-Chem.  Have a nice day.  *
