 Q-Chem 5.0, Q-Chem, Inc., Pleasanton, CA (2017)
 Q-Chem 5.0.1 for Intel X86 EM64T Linux

User input:
--------------------------------------------------------------
$molecule
0  1
--
0  1
C        +0.22270000        +1.04488000        +0.58595000
C        +0.62626000        -0.41353000        +0.99871000
C        +1.33008000        +1.39974000        -0.43491000
C        +2.63070000        +1.71700000        +0.32855000
C        +3.04336000        +0.29351000        +0.80300000
C        +1.94423000        -0.59299000        +0.15262000
O        +1.62840000        +0.13663000        -1.04376000
H        +3.37234000        +2.13782000        -0.35195000
H        +2.48236000        +2.42488000        +1.14651000
H        +4.02182000        +0.00994000        +0.41161000
H        +3.07359000        +0.18738000        +1.88928000
H        +1.03270000        +2.19943000        -1.08064000
H        +2.24339000        -1.61496000        +0.04786000
H        +0.81693000        -0.48905000        +2.04887000
H        -0.12524000        -1.15356000        +0.81843000
H        -0.74673000        +1.06811000        +0.13365000
H        +0.15552000        +1.72617000        +1.40828000
--
0  1
C        +4.96343000        +3.80474000        +4.93435000
C        +5.36699000        +2.34633000        +5.34711000
C        +6.07081000        +4.15960000        +3.91349000
C        +7.37143000        +4.47686000        +4.67695000
C        +7.78409000        +3.05337000        +5.15140000
C        +6.68496000        +2.16687000        +4.50102000
O        +6.36913000        +2.89649000        +3.30464000
H        +8.11307000        +4.89768000        +3.99645000
H        +7.22309000        +5.18474000        +5.49491000
H        +8.76255000        +2.76980000        +4.76001000
H        +7.81432000        +2.94724000        +6.23768000
H        +5.77343000        +4.95929000        +3.26776000
H        +6.98412000        +1.14490000        +4.39626000
H        +5.55766000        +2.27081000        +6.39727000
H        +4.61549000        +1.60630000        +5.16683000
H        +3.99400000        +3.82797000        +4.48205000
H        +4.89625000        +4.48603000        +5.75668000
$end

$rem
JOBTYPE                   SP
METHOD                    B3LYP
DFT_D                     d3_op
BASIS                     6-311++G(d,p)
SYMMETRY                  False
THRESH                    12
SCF_CONVERGENCE           8
MAX_SUB_FILE_NUM          128
MEM_STATIC                400
MEM_TOTAL                 4000
$end
--------------------------------------------------------------

             Standard Nuclear Orientation (Angstroms)
    I     Atom           X                Y                Z
 ----------------------------------------------------------------
    1      C       4.0586607623    -0.4746685095     1.2858161397
    2      C       4.1054439524     1.0452937278     0.9014759913
    3      C       3.7673088451    -1.1354453253    -0.0827083517
    4      C       2.2801769717    -0.9294461284    -0.4307609131
    5      C       2.2696491774     0.5887306675    -0.7724380123
    6      C       3.7735507418     0.9587988683    -0.6371872715
    7      O       4.4264214966    -0.2647559142    -1.0114766107
    8      H       2.0108467086    -1.5324035367    -1.2991520606
    9      H       1.6100511168    -1.1981842130     0.3883047693
   10      H       1.9397161064     0.7652488404    -1.7976050972
   11      H       1.6350858614     1.1806711221    -0.1097785489
   12      H       4.0474655462    -2.1680773365    -0.0921712123
   13      H       4.0327425842     1.8461333949    -1.1760296146
   14      H       3.3694233841     1.6108152087     1.4337856029
   15      H       5.0269900158     1.5371289336     1.1333132463
   16      H       4.9941770706    -0.8045384273     1.6869451988
   17      H       3.3401519374    -0.7092705199     2.0431818445
   18      C      -2.9393675714    -0.4275965078     1.4449210754
   19      C      -2.8925843812     1.0923657295     1.0605809270
   20      C      -3.2307194885    -1.0883733237     0.0763965840
   21      C      -4.7178513620    -0.8823741267    -0.2716559774
   22      C      -4.7283791562     0.6358026692    -0.6133330767
   23      C      -3.2244775919     1.0058708699    -0.4780823359
   24      O      -2.5716068370    -0.2176839126    -0.8523716750
   25      H      -4.9871816250    -1.4853315351    -1.1400471250
   26      H      -5.3879772168    -1.1511122114     0.5474097050
   27      H      -5.0583122272     0.8123208421    -1.6385001616
   28      H      -5.3629424722     1.2277431238     0.0493263867
   29      H      -2.9505627874    -2.1210053348     0.0669337234
   30      H      -2.9652857494     1.8932053966    -1.0169246790
   31      H      -3.6286049495     1.6578872103     1.5928905386
   32      H      -1.9710383179     1.5842009353     1.2924181820
   33      H      -2.0038512631    -0.7574664257     1.8460501345
   34      H      -3.6578763962    -0.6621985182     2.2022867801
 ----------------------------------------------------------------

   13    -619.9195723570      5.74E-09 Convergence criterion met
 Total energy in the final basis set = -619.91957236

                    Orbital Energies (a.u.)
 --------------------------------------------------------------

 Alpha MOs
 -- Occupied --
-19.125 -19.119 -10.224 -10.221 -10.217 -10.214 -10.170 -10.169
-10.167 -10.166 -10.162 -10.162 -10.161 -10.160  -1.052  -1.046
 -0.800  -0.793  -0.751  -0.749  -0.745  -0.743  -0.616  -0.610
 -0.580  -0.576  -0.574  -0.569  -0.529  -0.523  -0.480  -0.473
 -0.467  -0.461  -0.433  -0.427  -0.408  -0.402  -0.397  -0.391
 -0.367  -0.362  -0.360  -0.355  -0.354  -0.347  -0.341  -0.335
 -0.320  -0.313  -0.307  -0.300  -0.266  -0.260

          Ground-State Mulliken Net Atomic Charges

     Atom                 Charge (a.u.)
  ----------------------------------------
      1 C                    -0.447499
      2 C                    -0.423659
      3 C                     0.114674
      4 C                    -0.371630
      5 C                    -0.365112
      6 C                     0.118548
      7 O                    -0.153240
      8 H                     0.167989
      9 H                     0.081809
     10 H                     0.160093
     11 H                     0.075046
     12 H                     0.229854
     13 H                     0.232764
     14 H                     0.115769
     15 H                     0.171271
     16 H                     0.165265
     17 H                     0.122603
     18 C                    -0.370531
     19 C                    -0.438079
     20 C                     0.149256
     21 C                    -0.522616
     22 C                    -0.445188
     23 C                     0.189414
     24 O                    -0.124468
     25 H                     0.167388
     26 H                     0.123748
     27 H                     0.164603
     28 H                     0.125423
     29 H                     0.218821
     30 H                     0.223128
     31 H                     0.122476
     32 H                     0.149264
     33 H                     0.139519
     34 H                     0.133296
  ----------------------------------------
  Sum of atomic charges =     0.000000

                    Cartesian Multipole Moments
 -----------------------------------------------------------------
    Charge (ESU x 10^10)
                 0.0000
    Dipole Moment (Debye)
         X      -2.6487      Y       0.6276      Z       2.4366
       Tot       3.6532
    Quadrupole Moments (Debye-Ang)
        XX     -91.8463     XY       1.1615     YY     -81.5215
        XZ       3.8799     YZ      -2.5955     ZZ     -89.9799

 Total job time:  90.69s(wall), 360.99s(cpu)
        *  Thank you very much for using Q-Chem.  Have a nice day.  *
