 Q-Chem 5.0, Q-Chem, Inc., Pleasanton, CA (2017)
 Q-Chem 5.0.1 for Intel X86 EM64T Linux

User input:
--------------------------------------------------------------
$molecule
0  1
C        +0.22270000        +1.04488000        +0.58595000
C        +0.62626000        -0.41353000        +0.99871000
C        +1.33008000        +1.39974000        -0.43491000
C        +2.63070000        +1.71700000        +0.32855000
C        +3.04336000        +0.29351000        +0.80300000
C        +1.94423000        -0.59299000        +0.15262000
O        +1.62840000        +0.13663000        -1.04376000
H        +3.37234000        +2.13782000        -0.35195000
H        +2.48236000        +2.42488000        +1.14651000
H        +4.02182000        +0.00994000        +0.41161000
H        +3.07359000        +0.18738000        +1.88928000
H        +1.03270000        +2.19943000        -1.08064000
H        +2.24339000        -1.61496000        +0.04786000
H        +0.81693000        -0.48905000        +2.04887000
H        -0.12524000        -1.15356000        +0.81843000
H        -0.74673000        +1.06811000        +0.13365000
H        +0.15552000        +1.72617000        +1.40828000
@C        +2.59307000        +2.42481000        +2.76015000
@C        +2.99663000        +0.96640000        +3.17291000
@C        +3.70045000        +2.77967000        +1.73929000
@C        +5.00107000        +3.09693000        +2.50275000
@C        +5.41373000        +1.67344000        +2.97720000
@C        +4.31460000        +0.78694000        +2.32682000
@O        +3.99877000        +1.51656000        +1.13044000
@H        +5.74271000        +3.51775000        +1.82225000
@H        +4.85273000        +3.80481000        +3.32071000
@H        +6.39219000        +1.38987000        +2.58581000
@H        +5.44396000        +1.56731000        +4.06348000
@H        +3.40307000        +3.57936000        +1.09356000
@H        +4.61376000        -0.23503000        +2.22206000
@H        +3.18730000        +0.89088000        +4.22307000
@H        +2.24513000        +0.22637000        +2.99263000
@H        +1.62364000        +2.44804000        +2.30785000
@H        +2.52589000        +3.10610000        +3.58248000
$end

$rem
JOBTYPE                   SP
METHOD                    B3LYP
DFT_D                     d3_op
BASIS                     6-311++G(d,p)
SYMMETRY                  False
THRESH                    12
SCF_CONVERGENCE           8
MAX_SUB_FILE_NUM          128
MEM_STATIC                400
MEM_TOTAL                 4000
$end
--------------------------------------------------------------

             Standard Nuclear Orientation (Angstroms)
    I     Atom           X                Y                Z
 ----------------------------------------------------------------
    1      C       0.2227000000     1.0448800000     0.5859500000
    2      C       0.6262600000    -0.4135300000     0.9987100000
    3      C       1.3300800000     1.3997400000    -0.4349100000
    4      C       2.6307000000     1.7170000000     0.3285500000
    5      C       3.0433600000     0.2935100000     0.8030000000
    6      C       1.9442300000    -0.5929900000     0.1526200000
    7      O       1.6284000000     0.1366300000    -1.0437600000
    8      H       3.3723400000     2.1378200000    -0.3519500000
    9      H       2.4823600000     2.4248800000     1.1465100000
   10      H       4.0218200000     0.0099400000     0.4116100000
   11      H       3.0735900000     0.1873800000     1.8892800000
   12      H       1.0327000000     2.1994300000    -1.0806400000
   13      H       2.2433900000    -1.6149600000     0.0478600000
   14      H       0.8169300000    -0.4890500000     2.0488700000
   15      H      -0.1252400000    -1.1535600000     0.8184300000
   16      H      -0.7467300000     1.0681100000     0.1336500000
   17      H       0.1555200000     1.7261700000     1.4082800000
   18      GH      2.5930700000     2.4248100000     2.7601500000
   19      GH      2.9966300000     0.9664000000     3.1729100000
   20      GH      3.7004500000     2.7796700000     1.7392900000
   21      GH      5.0010700000     3.0969300000     2.5027500000
   22      GH      5.4137300000     1.6734400000     2.9772000000
   23      GH      4.3146000000     0.7869400000     2.3268200000
   24      GH      3.9987700000     1.5165600000     1.1304400000
   25      GH      5.7427100000     3.5177500000     1.8222500000
   26      GH      4.8527300000     3.8048100000     3.3207100000
   27      GH      6.3921900000     1.3898700000     2.5858100000
   28      GH      5.4439600000     1.5673100000     4.0634800000
   29      GH      3.4030700000     3.5793600000     1.0935600000
   30      GH      4.6137600000    -0.2350300000     2.2220600000
   31      GH      3.1873000000     0.8908800000     4.2230700000
   32      GH      2.2451300000     0.2263700000     2.9926300000
   33      GH      1.6236400000     2.4480400000     2.3078500000
   34      GH      2.5258900000     3.1061000000     3.5824800000
 ----------------------------------------------------------------

   12    -309.9604088198      6.54E-09 Convergence criterion met
 Total energy in the final basis set = -309.96040882

                    Orbital Energies (a.u.)
 --------------------------------------------------------------

 Alpha MOs
 -- Occupied --
-19.123 -10.221 -10.218 -10.168 -10.167 -10.165 -10.163  -1.050
 -0.798  -0.749  -0.747  -0.614  -0.578  -0.574  -0.527  -0.478
 -0.465  -0.431  -0.406  -0.395  -0.364  -0.360  -0.351  -0.339
 -0.317  -0.304  -0.264

          Ground-State Mulliken Net Atomic Charges

     Atom                 Charge (a.u.)
  ----------------------------------------
      1 C                    -0.276716
      2 C                    -0.304109
      3 C                    -0.237532
      4 C                    -0.215084
      5 C                    -0.248031
      6 C                    -0.152621
      7 O                    -0.102739
      8 H                     0.203142
      9 H                     0.077871
     10 H                     0.205318
     11 H                     0.072655
     12 H                     0.226003
     13 H                     0.223377
     14 H                     0.094009
     15 H                     0.198404
     16 H                     0.189466
     17 H                     0.109045
     18 GH                   -0.020617
     19 GH                   -0.010176
     20 GH                   -0.059135
     21 GH                    0.011405
     22 GH                   -0.020617
     23 GH                   -0.028527
     24 GH                   -0.007356
     25 GH                   -0.000110
     26 GH                    0.000639
     27 GH                   -0.000446
     28 GH                    0.000782
     29 GH                    0.016057
     30 GH                    0.014024
     31 GH                    0.001922
     32 GH                    0.026066
     33 GH                    0.013825
     34 GH                   -0.000191
  ----------------------------------------
  Sum of atomic charges =     0.000000

                    Cartesian Multipole Moments
 -----------------------------------------------------------------
    Charge (ESU x 10^10)
                 0.0000
    Dipole Moment (Debye)
         X      -0.0125      Y       0.5138      Z       1.7093
       Tot       1.7849
    Quadrupole Moments (Debye-Ang)
        XX     -43.2255     XY      -0.0504     YY     -40.6387
        XZ       2.7736     YZ      -0.8453     ZZ     -46.1981

 Total job time:  181.62s(wall), 721.83s(cpu)
        *  Thank you very much for using Q-Chem.  Have a nice day.  *
