 Q-Chem 5.0, Q-Chem, Inc., Pleasanton, CA (2017)
 Q-Chem 5.0.1 for Intel X86 EM64T Linux

User input:
--------------------------------------------------------------
$molecule
0  1
C        +4.96343000        +3.80474000        +4.93435000
C        +5.36699000        +2.34633000        +5.34711000
C        +6.07081000        +4.15960000        +3.91349000
C        +7.37143000        +4.47686000        +4.67695000
C        +7.78409000        +3.05337000        +5.15140000
C        +6.68496000        +2.16687000        +4.50102000
O        +6.36913000        +2.89649000        +3.30464000
H        +8.11307000        +4.89768000        +3.99645000
H        +7.22309000        +5.18474000        +5.49491000
H        +8.76255000        +2.76980000        +4.76001000
H        +7.81432000        +2.94724000        +6.23768000
H        +5.77343000        +4.95929000        +3.26776000
H        +6.98412000        +1.14490000        +4.39626000
H        +5.55766000        +2.27081000        +6.39727000
H        +4.61549000        +1.60630000        +5.16683000
H        +3.99400000        +3.82797000        +4.48205000
H        +4.89625000        +4.48603000        +5.75668000
@C        +0.22270000        +1.04488000        +0.58595000
@C        +0.62626000        -0.41353000        +0.99871000
@C        +1.33008000        +1.39974000        -0.43491000
@C        +2.63070000        +1.71700000        +0.32855000
@C        +3.04336000        +0.29351000        +0.80300000
@C        +1.94423000        -0.59299000        +0.15262000
@O        +1.62840000        +0.13663000        -1.04376000
@H        +3.37234000        +2.13782000        -0.35195000
@H        +2.48236000        +2.42488000        +1.14651000
@H        +4.02182000        +0.00994000        +0.41161000
@H        +3.07359000        +0.18738000        +1.88928000
@H        +1.03270000        +2.19943000        -1.08064000
@H        +2.24339000        -1.61496000        +0.04786000
@H        +0.81693000        -0.48905000        +2.04887000
@H        -0.12524000        -1.15356000        +0.81843000
@H        -0.74673000        +1.06811000        +0.13365000
@H        +0.15552000        +1.72617000        +1.40828000
$end

$rem
JOBTYPE                   SP
METHOD                    B3LYP
DFT_D                     d3_op
BASIS                     6-311++G(d,p)
SYMMETRY                  False
THRESH                    12
SCF_CONVERGENCE           8
MAX_SUB_FILE_NUM          128
MEM_STATIC                400
MEM_TOTAL                 4000
$end
--------------------------------------------------------------

             Standard Nuclear Orientation (Angstroms)
    I     Atom           X                Y                Z
 ----------------------------------------------------------------
    1      C       4.9634300000     3.8047400000     4.9343500000
    2      C       5.3669900000     2.3463300000     5.3471100000
    3      C       6.0708100000     4.1596000000     3.9134900000
    4      C       7.3714300000     4.4768600000     4.6769500000
    5      C       7.7840900000     3.0533700000     5.1514000000
    6      C       6.6849600000     2.1668700000     4.5010200000
    7      O       6.3691300000     2.8964900000     3.3046400000
    8      H       8.1130700000     4.8976800000     3.9964500000
    9      H       7.2230900000     5.1847400000     5.4949100000
   10      H       8.7625500000     2.7698000000     4.7600100000
   11      H       7.8143200000     2.9472400000     6.2376800000
   12      H       5.7734300000     4.9592900000     3.2677600000
   13      H       6.9841200000     1.1449000000     4.3962600000
   14      H       5.5576600000     2.2708100000     6.3972700000
   15      H       4.6154900000     1.6063000000     5.1668300000
   16      H       3.9940000000     3.8279700000     4.4820500000
   17      H       4.8962500000     4.4860300000     5.7566800000
   18      GH      0.2227000000     1.0448800000     0.5859500000
   19      GH      0.6262600000    -0.4135300000     0.9987100000
   20      GH      1.3300800000     1.3997400000    -0.4349100000
   21      GH      2.6307000000     1.7170000000     0.3285500000
   22      GH      3.0433600000     0.2935100000     0.8030000000
   23      GH      1.9442300000    -0.5929900000     0.1526200000
   24      GH      1.6284000000     0.1366300000    -1.0437600000
   25      GH      3.3723400000     2.1378200000    -0.3519500000
   26      GH      2.4823600000     2.4248800000     1.1465100000
   27      GH      4.0218200000     0.0099400000     0.4116100000
   28      GH      3.0735900000     0.1873800000     1.8892800000
   29      GH      1.0327000000     2.1994300000    -1.0806400000
   30      GH      2.2433900000    -1.6149600000     0.0478600000
   31      GH      0.8169300000    -0.4890500000     2.0488700000
   32      GH     -0.1252400000    -1.1535600000     0.8184300000
   33      GH     -0.7467300000     1.0681100000     0.1336500000
   34      GH      0.1555200000     1.7261700000     1.4082800000
 ----------------------------------------------------------------

   12    -309.9595203626      6.19E-09 Convergence criterion met
 Total energy in the final basis set = -309.95952036

                    Orbital Energies (a.u.)
 --------------------------------------------------------------

 Alpha MOs
 -- Occupied --
-19.123 -10.221 -10.218 -10.168 -10.167 -10.165 -10.163  -1.050
 -0.798  -0.749  -0.747  -0.614  -0.578  -0.574  -0.527  -0.478
 -0.465  -0.431  -0.406  -0.395  -0.364  -0.360  -0.351  -0.339
 -0.317  -0.304  -0.264

          Ground-State Mulliken Net Atomic Charges

     Atom                 Charge (a.u.)
  ----------------------------------------
      1 C                    -0.369590
      2 C                    -0.440386
      3 C                     0.146846
      4 C                    -0.521193
      5 C                    -0.444077
      6 C                     0.190000
      7 O                    -0.123002
      8 H                     0.166540
      9 H                     0.123628
     10 H                     0.163850
     11 H                     0.124997
     12 H                     0.218231
     13 H                     0.222589
     14 H                     0.121724
     15 H                     0.150138
     16 H                     0.140712
     17 H                     0.132128
     18 GH                    0.000681
     19 GH                    0.000148
     20 GH                   -0.000181
     21 GH                   -0.004074
     22 GH                   -0.006354
     23 GH                   -0.001623
     24 GH                    0.000013
     25 GH                    0.000546
     26 GH                    0.003527
     27 GH                    0.001708
     28 GH                    0.002643
     29 GH                    0.000043
     30 GH                    0.000016
     31 GH                   -0.000179
     32 GH                    0.000018
     33 GH                    0.000026
     34 GH                   -0.000095
  ----------------------------------------
  Sum of atomic charges =     0.000000

                    Cartesian Multipole Moments
 -----------------------------------------------------------------
    Charge (ESU x 10^10)
                 0.0000
    Dipole Moment (Debye)
         X      -0.0134      Y       0.5184      Z       1.7263
       Tot       1.8025
    Quadrupole Moments (Debye-Ang)
        XX     -43.3490     XY       2.3653     YY     -37.7594
        XZ      10.9004     YZ       6.1517     ZZ     -31.2293

 Total job time:  80.37s(wall), 319.85s(cpu)
        *  Thank you very much for using Q-Chem.  Have a nice day.  *
