 Q-Chem 5.0, Q-Chem, Inc., Pleasanton, CA (2017)
 Q-Chem 5.0.1 for Intel X86 EM64T Linux

User input:
--------------------------------------------------------------
$molecule
0  1
C        +0.22270000        +1.04488000        +0.58595000
C        +0.62626000        -0.41353000        +0.99871000
C        +1.33008000        +1.39974000        -0.43491000
C        +2.63070000        +1.71700000        +0.32855000
C        +3.04336000        +0.29351000        +0.80300000
C        +1.94423000        -0.59299000        +0.15262000
O        +1.62840000        +0.13663000        -1.04376000
H        +3.37234000        +2.13782000        -0.35195000
H        +2.48236000        +2.42488000        +1.14651000
H        +4.02182000        +0.00994000        +0.41161000
H        +3.07359000        +0.18738000        +1.88928000
H        +1.03270000        +2.19943000        -1.08064000
H        +2.24339000        -1.61496000        +0.04786000
H        +0.81693000        -0.48905000        +2.04887000
H        -0.12524000        -1.15356000        +0.81843000
H        -0.74673000        +1.06811000        +0.13365000
H        +0.15552000        +1.72617000        +1.40828000
@C        +3.54121000        +2.97678000        +3.62983000
@C        +3.94477000        +1.51837000        +4.04259000
@C        +4.64859000        +3.33164000        +2.60897000
@C        +5.94921000        +3.64890000        +3.37243000
@C        +6.36187000        +2.22541000        +3.84688000
@C        +5.26274000        +1.33891000        +3.19650000
@O        +4.94691000        +2.06853000        +2.00012000
@H        +6.69085000        +4.06972000        +2.69193000
@H        +5.80087000        +4.35678000        +4.19039000
@H        +7.34033000        +1.94184000        +3.45549000
@H        +6.39210000        +2.11928000        +4.93316000
@H        +4.35121000        +4.13133000        +1.96324000
@H        +5.56190000        +0.31694000        +3.09174000
@H        +4.13544000        +1.44285000        +5.09275000
@H        +3.19327000        +0.77834000        +3.86231000
@H        +2.57178000        +3.00001000        +3.17753000
@H        +3.47403000        +3.65807000        +4.45216000
$end

$rem
JOBTYPE                   SP
METHOD                    B3LYP
DFT_D                     d3_op
BASIS                     6-311++G(d,p)
SYMMETRY                  False
THRESH                    12
SCF_CONVERGENCE           8
MAX_SUB_FILE_NUM          128
MEM_STATIC                400
MEM_TOTAL                 4000
$end
--------------------------------------------------------------

             Standard Nuclear Orientation (Angstroms)
    I     Atom           X                Y                Z
 ----------------------------------------------------------------
    1      C       0.2227000000     1.0448800000     0.5859500000
    2      C       0.6262600000    -0.4135300000     0.9987100000
    3      C       1.3300800000     1.3997400000    -0.4349100000
    4      C       2.6307000000     1.7170000000     0.3285500000
    5      C       3.0433600000     0.2935100000     0.8030000000
    6      C       1.9442300000    -0.5929900000     0.1526200000
    7      O       1.6284000000     0.1366300000    -1.0437600000
    8      H       3.3723400000     2.1378200000    -0.3519500000
    9      H       2.4823600000     2.4248800000     1.1465100000
   10      H       4.0218200000     0.0099400000     0.4116100000
   11      H       3.0735900000     0.1873800000     1.8892800000
   12      H       1.0327000000     2.1994300000    -1.0806400000
   13      H       2.2433900000    -1.6149600000     0.0478600000
   14      H       0.8169300000    -0.4890500000     2.0488700000
   15      H      -0.1252400000    -1.1535600000     0.8184300000
   16      H      -0.7467300000     1.0681100000     0.1336500000
   17      H       0.1555200000     1.7261700000     1.4082800000
   18      GH      3.5412100000     2.9767800000     3.6298300000
   19      GH      3.9447700000     1.5183700000     4.0425900000
   20      GH      4.6485900000     3.3316400000     2.6089700000
   21      GH      5.9492100000     3.6489000000     3.3724300000
   22      GH      6.3618700000     2.2254100000     3.8468800000
   23      GH      5.2627400000     1.3389100000     3.1965000000
   24      GH      4.9469100000     2.0685300000     2.0001200000
   25      GH      6.6908500000     4.0697200000     2.6919300000
   26      GH      5.8008700000     4.3567800000     4.1903900000
   27      GH      7.3403300000     1.9418400000     3.4554900000
   28      GH      6.3921000000     2.1192800000     4.9331600000
   29      GH      4.3512100000     4.1313300000     1.9632400000
   30      GH      5.5619000000     0.3169400000     3.0917400000
   31      GH      4.1354400000     1.4428500000     5.0927500000
   32      GH      3.1932700000     0.7783400000     3.8623100000
   33      GH      2.5717800000     3.0000100000     3.1775300000
   34      GH      3.4740300000     3.6580700000     4.4521600000
 ----------------------------------------------------------------

   12    -309.9597040095      6.28E-09 Convergence criterion met
 Total energy in the final basis set = -309.95970401

                    Orbital Energies (a.u.)
 --------------------------------------------------------------

 Alpha MOs
 -- Occupied --
-19.123 -10.221 -10.218 -10.168 -10.167 -10.165 -10.163  -1.050
 -0.798  -0.749  -0.747  -0.614  -0.578  -0.574  -0.527  -0.478
 -0.465  -0.431  -0.406  -0.395  -0.364  -0.360  -0.351  -0.339
 -0.317  -0.304  -0.264

          Ground-State Mulliken Net Atomic Charges

     Atom                 Charge (a.u.)
  ----------------------------------------
      1 C                    -0.445211
      2 C                    -0.424554
      3 C                    -0.002657
      4 C                    -0.306556
      5 C                    -0.254016
      6 C                    -0.031454
      7 O                    -0.121303
      8 H                     0.191162
      9 H                     0.073944
     10 H                     0.183348
     11 H                     0.067028
     12 H                     0.231179
     13 H                     0.231954
     14 H                     0.103463
     15 H                     0.183160
     16 H                     0.175177
     17 H                     0.111656
     18 GH                   -0.004618
     19 GH                    0.005104
     20 GH                   -0.007097
     21 GH                    0.000543
     22 GH                   -0.005092
     23 GH                   -0.006447
     24 GH                    0.022908
     25 GH                   -0.000366
     26 GH                    0.000428
     27 GH                   -0.000183
     28 GH                    0.000200
     29 GH                    0.004584
     30 GH                    0.004842
     31 GH                   -0.000788
     32 GH                    0.011272
     33 GH                    0.009665
     34 GH                   -0.001276
  ----------------------------------------
  Sum of atomic charges =     0.000000

                    Cartesian Multipole Moments
 -----------------------------------------------------------------
    Charge (ESU x 10^10)
                 0.0000
    Dipole Moment (Debye)
         X      -0.0142      Y       0.5160      Z       1.7184
       Tot       1.7942
    Quadrupole Moments (Debye-Ang)
        XX     -43.2333     XY      -0.0543     YY     -40.6263
        XZ       2.7822     YZ      -0.8568     ZZ     -46.2269

 Total job time:  141.86s(wall), 564.11s(cpu)
        *  Thank you very much for using Q-Chem.  Have a nice day.  *
