 Q-Chem 5.0, Q-Chem, Inc., Pleasanton, CA (2017)
 Q-Chem 5.0.1 for Intel X86 EM64T Linux

User input:
--------------------------------------------------------------
$molecule
0  1
--
0  1
C        +0.20238000        +1.04766000        +0.59128000
C        +0.63819000        -0.38392000        +1.03507000
C        +1.32502000        +1.40342000        -0.40773000
C        +2.63024000        +1.71632000        +0.35656000
C        +3.06844000        +0.28546000        +0.80025000
C        +1.92879000        -0.57154000        +0.20725000
O        +1.61715000        +0.12844000        -1.01410000
H        +3.36771000        +2.16806000        -0.30914000
H        +2.46905000        +2.39751000        +1.19495000
H        +4.02649000        +0.00980000        +0.35668000
H        +3.15140000        +0.17666000        +1.88393000
H        +1.05332000        +2.11810000        -1.18255000
H        +2.19020000        -1.60239000        -0.02473000
H        +0.81538000        -0.46660000        +2.10960000
H        -0.10758000        -1.13032000        +0.75591000
H        -0.76622000        +1.02844000        +0.08894000
H        +0.14243000        +1.75630000        +1.41989000
--
0  1
C        +0.23706000        +2.09374000        +3.93112000
C        +0.67287000        +0.66216000        +4.37491000
C        +1.35970000        +2.44950000        +2.93211000
C        +2.66492000        +2.76240000        +3.69640000
C        +3.10312000        +1.33154000        +4.14009000
C        +1.96347000        +0.47454000        +3.54709000
O        +1.65183000        +1.17452000        +2.32574000
H        +3.40239000        +3.21414000        +3.03070000
H        +2.50373000        +3.44359000        +4.53479000
H        +4.06117000        +1.05588000        +3.69652000
H        +3.18608000        +1.22274000        +5.22377000
H        +1.08800000        +3.16418000        +2.15729000
H        +2.22488000        -0.55631000        +3.31511000
H        +0.85006000        +0.57948000        +5.44944000
H        -0.07290000        -0.08424000        +4.09575000
H        -0.73154000        +2.07452000        +3.42878000
H        +0.17711000        +2.80238000        +4.75973000
$end

$rem
JOBTYPE                   SP
METHOD                    B3LYP
DFT_D                     d3_op
BASIS                     6-311++G(d,p)
SYMMETRY                  False
THRESH                    12
SCF_CONVERGENCE           8
MAX_SUB_FILE_NUM          128
MEM_STATIC                400
MEM_TOTAL                 4000
$end
--------------------------------------------------------------

             Standard Nuclear Orientation (Angstroms)
    I     Atom           X                Y                Z
 ----------------------------------------------------------------
    1      C      -1.2860785574     1.2641542360    -0.7815206792
    2      C      -1.2862775308     1.2659652816     0.7793437919
    3      C      -2.1218012475    -0.0004175397    -1.0770414680
    4      C      -1.2859633777    -1.2650162188    -0.7807137796
    5      C      -1.2860187125    -1.2656990704     0.7801321213
    6      C      -2.1194338835    -0.0001032811     1.0777670877
    7      O      -3.0786834415     0.0002586409     0.0013714973
    8      H      -1.7787782203    -2.1543055731    -1.1774321856
    9      H      -0.2839102611    -1.2126605058    -1.2120468935
   10      H      -1.7821532683    -2.1535559887     1.1753069915
   11      H      -0.2836639922    -1.2158172418     1.2112689464
   12      H      -2.6501752565    -0.0007824463    -2.0287531882
   13      H      -2.6463868748     0.0002441663     2.0301966417
   14      H      -0.2839063364     1.2176368686     1.2103465212
   15      H      -1.7832352162     2.1533909340     1.1752287862
   16      H      -1.7808066270     2.1522677609    -1.1782565459
   17      H      -0.2841426823     1.2111605887    -1.2124213171
   18      C       2.2139238916     1.2644154161    -0.7812322414
   19      C       2.2137249182     1.2662264617     0.7796322297
   20      C       1.3782012015    -0.0001563596    -1.0767530302
   21      C       2.2140390713    -1.2647550386    -0.7804253418
   22      C       2.2139837365    -1.2654378902     0.7804205591
   23      C       1.3805685655     0.0001578991     1.0780555255
   24      O       0.4213190075     0.0005198211     0.0016599351
   25      H       1.7212242287    -2.1540443930    -1.1771437478
   26      H       3.2160921879    -1.2123993256    -1.2117584557
   27      H       1.7178491807    -2.1532948086     1.1755954293
   28      H       3.2163384568    -1.2155560617     1.2115573842
   29      H       0.8498271925    -0.0005212662    -2.0284647504
   30      H       0.8536155742     0.0005053464     2.0304850795
   31      H       3.2160961125     1.2178980487     1.2106349590
   32      H       1.7167672328     2.1536521142     1.1755172240
   33      H       1.7191958220     2.1525289411    -1.1779681081
   34      H       3.2158597667     1.2114217688    -1.2121328793
 ----------------------------------------------------------------

   13    -619.8268410808      6.62E-09 Convergence criterion met
 Total energy in the final basis set = -619.82684108

                    Orbital Energies (a.u.)
 --------------------------------------------------------------

 Alpha MOs
 -- Occupied --
-19.119 -19.099 -10.233 -10.233 -10.201 -10.201 -10.184 -10.184
-10.183 -10.183 -10.144 -10.144 -10.144 -10.144  -1.077  -1.027
 -0.823  -0.774  -0.773  -0.768  -0.732  -0.726  -0.629  -0.605
 -0.592  -0.592  -0.567  -0.543  -0.541  -0.517  -0.510  -0.484
 -0.449  -0.440  -0.439  -0.423  -0.410  -0.399  -0.395  -0.392
 -0.371  -0.371  -0.357  -0.354  -0.343  -0.343  -0.340  -0.321
 -0.318  -0.306  -0.292  -0.286  -0.267  -0.238

          Ground-State Mulliken Net Atomic Charges

     Atom                 Charge (a.u.)
  ----------------------------------------
      1 C                    -0.177716
      2 C                    -0.181403
      3 C                    -0.293590
      4 C                    -0.177909
      5 C                    -0.180476
      6 C                    -0.291701
      7 O                    -0.164089
      8 H                     0.203835
      9 H                     0.073839
     10 H                     0.204296
     11 H                     0.072686
     12 H                     0.215745
     13 H                     0.215879
     14 H                     0.072772
     15 H                     0.204145
     16 H                     0.204003
     17 H                     0.073431
     18 C                    -0.544355
     19 C                    -0.549086
     20 C                     0.275460
     21 C                    -0.545913
     22 C                    -0.547945
     23 C                     0.282024
     24 O                    -0.172980
     25 H                     0.163197
     26 H                     0.148188
     27 H                     0.162999
     28 H                     0.148556
     29 H                     0.241857
     30 H                     0.241513
     31 H                     0.148444
     32 H                     0.162981
     33 H                     0.163029
     34 H                     0.148283
  ----------------------------------------
  Sum of atomic charges =     0.000000

                    Cartesian Multipole Moments
 -----------------------------------------------------------------
    Charge (ESU x 10^10)
                 0.0000
    Dipole Moment (Debye)
         X       4.8994      Y      -0.0031      Z      -0.0026
       Tot       4.8994
    Quadrupole Moments (Debye-Ang)
        XX     -96.0173     XY      -0.0031     YY     -88.7689
        XZ       0.0075     YZ       0.0060     ZZ     -83.3783

 Total job time:  167.10s(wall), 658.29s(cpu)
        *  Thank you very much for using Q-Chem.  Have a nice day.  *
