 Q-Chem 5.0, Q-Chem, Inc., Pleasanton, CA (2017)
 Q-Chem 5.0.1 for Intel X86 EM64T Linux

User input:
--------------------------------------------------------------
$molecule
0  1
--
0  1
C        +0.22270000        +1.04488000        +0.58595000
C        +0.62626000        -0.41353000        +0.99871000
C        +1.33008000        +1.39974000        -0.43491000
C        +2.63070000        +1.71700000        +0.32855000
C        +3.04336000        +0.29351000        +0.80300000
C        +1.94423000        -0.59299000        +0.15262000
O        +1.62840000        +0.13663000        -1.04376000
H        +3.37234000        +2.13782000        -0.35195000
H        +2.48236000        +2.42488000        +1.14651000
H        +4.02182000        +0.00994000        +0.41161000
H        +3.07359000        +0.18738000        +1.88928000
H        +1.03270000        +2.19943000        -1.08064000
H        +2.24339000        -1.61496000        +0.04786000
H        +0.81693000        -0.48905000        +2.04887000
H        -0.12524000        -1.15356000        +0.81843000
H        -0.74673000        +1.06811000        +0.13365000
H        +0.15552000        +1.72617000        +1.40828000
--
0  1
C        +2.59307000        +2.42481000        +2.76015000
C        +2.99663000        +0.96640000        +3.17291000
C        +3.70045000        +2.77967000        +1.73929000
C        +5.00107000        +3.09693000        +2.50275000
C        +5.41373000        +1.67344000        +2.97720000
C        +4.31460000        +0.78694000        +2.32682000
O        +3.99877000        +1.51656000        +1.13044000
H        +5.74271000        +3.51775000        +1.82225000
H        +4.85273000        +3.80481000        +3.32071000
H        +6.39219000        +1.38987000        +2.58581000
H        +5.44396000        +1.56731000        +4.06348000
H        +3.40307000        +3.57936000        +1.09356000
H        +4.61376000        -0.23503000        +2.22206000
H        +3.18730000        +0.89088000        +4.22307000
H        +2.24513000        +0.22637000        +2.99263000
H        +1.62364000        +2.44804000        +2.30785000
H        +2.52589000        +3.10610000        +3.58248000
$end

$rem
JOBTYPE                   SP
METHOD                    B3LYP
DFT_D                     d3_op
BASIS                     6-311++G(d,p)
SYMMETRY                  False
THRESH                    12
SCF_CONVERGENCE           8
MAX_SUB_FILE_NUM          128
MEM_STATIC                400
MEM_TOTAL                 4000
$end
--------------------------------------------------------------

             Standard Nuclear Orientation (Angstroms)
    I     Atom           X                Y                Z
 ----------------------------------------------------------------
    1      C       2.3837325805    -0.6276183385     1.1079665672
    2      C       2.4351890014     0.9231277231     0.8783361939
    3      C       1.9870790981    -1.1398120087    -0.2972718050
    4      C       0.4842794978    -0.8793866313    -0.5184266103
    5      C       0.4814199164     0.6659403541    -0.7019237200
    6      C       1.9982182161     1.0001867699    -0.6343559548
    7      O       2.5993218976    -0.1867540491    -1.1758953291
    8      H       0.1446191766    -1.3859500181    -1.4229839679
    9      H      -0.1341745150    -1.2222960631     0.3134899524
   10      H       0.0864943418     0.9515976672    -1.6783538192
   11      H      -0.0947035246     1.1947059564     0.0600935940
   12      H       2.2449655532    -2.1695707092    -0.4314276413
   13      H       2.2382717869     1.9348645413    -1.0965742916
   14      H       1.7485028992     1.4404023099     1.5153476096
   15      H       3.3800934840     1.3762114443     1.0945957363
   16      H       3.3373776204    -1.0094308561     1.4074490995
   17      H       1.7135318552    -0.9295737790     1.8854945378
   18      C      -1.1006771869    -0.5661944612     1.4321918930
   19      C      -1.0492207660     0.9845516005     1.2025615197
   20      C      -1.4973306693    -1.0783881314     0.0269535208
   21      C      -3.0001302696    -0.8179627540    -0.1942012844
   22      C      -3.0029898510     0.7273642314    -0.3776983942
   23      C      -1.4861915513     1.0616106472    -0.3101306290
   24      O      -0.8850878698    -0.1253301718    -0.8516700033
   25      H      -3.3397905908    -1.3245261408    -1.0987586421
   26      H      -3.6185842824    -1.1608721857     0.6377152782
   27      H      -3.3979154256     1.0130215445    -1.3541284934
   28      H      -3.5791132920     1.2561298338     0.3843189198
   29      H      -1.2394442142    -2.1081468319    -0.1072023155
   30      H      -1.2461379805     1.9962884186    -0.7723489658
   31      H      -1.7359068682     1.5018261873     1.8395729354
   32      H      -0.1043162834     1.4376353217     1.4188210621
   33      H      -0.1470321470    -0.9480069787     1.7316744253
   34      H      -1.7708779122    -0.8681499017     2.2097198636
 ----------------------------------------------------------------

   15    -619.3648181087      5.92E-09 Convergence criterion met
 Total energy in the final basis set = -619.36481811

                    Orbital Energies (a.u.)
 --------------------------------------------------------------

 Alpha MOs
 -- Occupied --
-19.158 -19.088 -10.252 -10.249 -10.195 -10.193 -10.181 -10.181
-10.170 -10.169 -10.144 -10.143 -10.135 -10.133  -1.169  -1.013
 -0.857  -0.848  -0.816  -0.759  -0.731  -0.711  -0.663  -0.655
 -0.640  -0.598  -0.576  -0.570  -0.540  -0.528  -0.506  -0.486
 -0.483  -0.453  -0.442  -0.427  -0.422  -0.415  -0.411  -0.399
 -0.396  -0.375  -0.369  -0.351  -0.345  -0.343  -0.334  -0.322
 -0.318  -0.282  -0.271  -0.241  -0.240  -0.148

          Ground-State Mulliken Net Atomic Charges

     Atom                 Charge (a.u.)
  ----------------------------------------
      1 C                    -0.287432
      2 C                    -0.315317
      3 C                    -0.164359
      4 C                    -0.229372
      5 C                    -0.381970
      6 C                    -0.122515
      7 O                    -0.115779
      8 H                     0.121167
      9 H                     0.180782
     10 H                     0.063783
     11 H                     0.192498
     12 H                     0.183269
     13 H                     0.182753
     14 H                     0.051280
     15 H                     0.192021
     16 H                     0.184211
     17 H                     0.072719
     18 C                    -0.387935
     19 C                    -0.390995
     20 C                    -0.162796
     21 C                    -0.509003
     22 C                    -0.598179
     23 C                    -0.035225
     24 O                     0.552470
     25 H                     0.169002
     26 H                     0.123306
     27 H                     0.178150
     28 H                     0.115596
     29 H                     0.232583
     30 H                     0.241192
     31 H                     0.195756
     32 H                     0.139802
     33 H                     0.126382
     34 H                     0.202153
  ----------------------------------------
  Sum of atomic charges =    -0.000000

                    Cartesian Multipole Moments
 -----------------------------------------------------------------
    Charge (ESU x 10^10)
                -0.0000
    Dipole Moment (Debye)
         X      -5.0187      Y       0.3775      Z       2.7047
       Tot       5.7136
    Quadrupole Moments (Debye-Ang)
        XX     -96.8741     XY       0.8925     YY     -82.2487
        XZ       5.0354     YZ      -1.5729     ZZ     -91.6351

 Total job time:  243.99s(wall), 971.56s(cpu)
        *  Thank you very much for using Q-Chem.  Have a nice day.  *
