 Q-Chem 5.0, Q-Chem, Inc., Pleasanton, CA (2017)
 Q-Chem 5.0.1 for Intel X86 EM64T Linux

User input:
--------------------------------------------------------------
$molecule
0  1
--
0  1
C        +0.22270000        +1.04488000        +0.58595000
C        +0.62626000        -0.41353000        +0.99871000
C        +1.33008000        +1.39974000        -0.43491000
C        +2.63070000        +1.71700000        +0.32855000
C        +3.04336000        +0.29351000        +0.80300000
C        +1.94423000        -0.59299000        +0.15262000
O        +1.62840000        +0.13663000        -1.04376000
H        +3.37234000        +2.13782000        -0.35195000
H        +2.48236000        +2.42488000        +1.14651000
H        +4.02182000        +0.00994000        +0.41161000
H        +3.07359000        +0.18738000        +1.88928000
H        +1.03270000        +2.19943000        -1.08064000
H        +2.24339000        -1.61496000        +0.04786000
H        +0.81693000        -0.48905000        +2.04887000
H        -0.12524000        -1.15356000        +0.81843000
H        -0.74673000        +1.06811000        +0.13365000
H        +0.15552000        +1.72617000        +1.40828000
--
0  1
C        +3.54121000        +2.97678000        +3.62983000
C        +3.94477000        +1.51837000        +4.04259000
C        +4.64859000        +3.33164000        +2.60897000
C        +5.94921000        +3.64890000        +3.37243000
C        +6.36187000        +2.22541000        +3.84688000
C        +5.26274000        +1.33891000        +3.19650000
O        +4.94691000        +2.06853000        +2.00012000
H        +6.69085000        +4.06972000        +2.69193000
H        +5.80087000        +4.35678000        +4.19039000
H        +7.34033000        +1.94184000        +3.45549000
H        +6.39210000        +2.11928000        +4.93316000
H        +4.35121000        +4.13133000        +1.96324000
H        +5.56190000        +0.31694000        +3.09174000
H        +4.13544000        +1.44285000        +5.09275000
H        +3.19327000        +0.77834000        +3.86231000
H        +2.57178000        +3.00001000        +3.17753000
H        +3.47403000        +3.65807000        +4.45216000
$end

$rem
JOBTYPE                   SP
METHOD                    B3LYP
DFT_D                     d3_op
BASIS                     6-311++G(d,p)
SYMMETRY                  False
THRESH                    12
SCF_CONVERGENCE           8
MAX_SUB_FILE_NUM          128
MEM_STATIC                400
MEM_TOTAL                 4000
$end
--------------------------------------------------------------

             Standard Nuclear Orientation (Angstroms)
    I     Atom           X                Y                Z
 ----------------------------------------------------------------
    1      C       3.0357192153    -0.5448781889     1.2146009781
    2      C       3.0840983299     0.9907556998     0.8988807848
    3      C       2.7074424241    -1.1406735900    -0.1752311744
    4      C       1.2139826568    -0.9101342634    -0.4778315806
    5      C       1.2060645476     0.6221074179    -0.7496543020
    6      C       2.7153115349     0.9766490878    -0.6337367161
    7      O       3.3505199511    -0.2323857622    -1.0788929105
    8      H       0.9199547871    -1.4711601198    -1.3660867310
    9      H       0.5615381648    -1.2120311852     0.3439541853
   10      H       0.8532316111     0.8472546302    -1.7575231925
   11      H       0.5915313855     1.1869109112    -0.0457170358
   12      H       2.9800214362    -2.1734434445    -0.2384237624
   13      H       2.9679279993     1.8861242912    -1.1376551820
   14      H       2.3648703709     1.5357295309     1.4738668816
   15      H       4.0143082552     1.4659872124     1.1307471978
   16      H       3.9781145608    -0.8982988381     1.5777735339
   17      H       2.3336877036    -0.8095674683     1.9774818255
   18      C      -1.8585421971    -0.4878921297     1.4446216308
   19      C      -1.8101630825     1.0477417590     1.1289014376
   20      C      -2.1868189883    -1.0836875308     0.0547894784
   21      C      -3.6802787556    -0.8531482042    -0.2478109278
   22      C      -3.6881968648     0.6790934771    -0.5196336493
   23      C      -2.1789498774     1.0336351469    -0.4037160633
   24      O      -1.5437414613    -0.1753997030    -0.8488722577
   25      H      -3.9743066253    -1.4141740606    -1.1360660783
   26      H      -4.3327232476    -1.1550451260     0.5739748381
   27      H      -4.0410298013     0.9042406893    -1.5275025397
   28      H      -4.3027300269     1.2438969704     0.1843036170
   29      H      -1.9142399762    -2.1164573853    -0.0084031096
   30      H      -1.9263334131     1.9431103504    -0.9076345292
   31      H      -2.5293910415     1.5927155900     1.7038875343
   32      H      -0.8799531572     1.5229732716     1.3607678506
   33      H      -0.9161468516    -0.8413127789     1.8077941866
   34      H      -2.5605737088    -0.7525814091     2.2075024782
 ----------------------------------------------------------------

   13    -619.9185334125      6.32E-09 Convergence criterion met
 Total energy in the final basis set = -619.91853341

                    Orbital Energies (a.u.)
 --------------------------------------------------------------

 Alpha MOs
 -- Occupied --
-19.126 -19.113 -10.226 -10.223 -10.211 -10.208 -10.172 -10.171
-10.171 -10.170 -10.158 -10.156 -10.153 -10.153  -1.056  -1.040
 -0.803  -0.787  -0.755  -0.753  -0.738  -0.737  -0.620  -0.604
 -0.584  -0.579  -0.569  -0.563  -0.533  -0.516  -0.486  -0.474
 -0.464  -0.453  -0.436  -0.421  -0.412  -0.402  -0.395  -0.385
 -0.372  -0.365  -0.357  -0.353  -0.349  -0.345  -0.340  -0.328
 -0.323  -0.309  -0.307  -0.293  -0.270  -0.251

          Ground-State Mulliken Net Atomic Charges

     Atom                 Charge (a.u.)
  ----------------------------------------
      1 C                    -0.449089
      2 C                    -0.430456
      3 C                    -0.017978
      4 C                    -0.275162
      5 C                    -0.221401
      6 C                    -0.069585
      7 O                    -0.126488
      8 H                     0.205741
      9 H                     0.047575
     10 H                     0.203109
     11 H                     0.033459
     12 H                     0.225347
     13 H                     0.225499
     14 H                     0.096026
     15 H                     0.178904
     16 H                     0.171761
     17 H                     0.105299
     18 C                    -0.338060
     19 C                    -0.381764
     20 C                     0.117771
     21 C                    -0.594685
     22 C                    -0.526419
     23 C                     0.161324
     24 O                     0.018893
     25 H                     0.169565
     26 H                     0.127042
     27 H                     0.170315
     28 H                     0.124863
     29 H                     0.222062
     30 H                     0.227103
     31 H                     0.155836
     32 H                     0.145600
     33 H                     0.130579
     34 H                     0.167417
  ----------------------------------------
  Sum of atomic charges =     0.000000

                    Cartesian Multipole Moments
 -----------------------------------------------------------------
    Charge (ESU x 10^10)
                 0.0000
    Dipole Moment (Debye)
         X      -2.9932      Y       0.5007      Z       2.3508
       Tot       3.8387
    Quadrupole Moments (Debye-Ang)
        XX     -92.3254     XY       0.9574     YY     -81.6974
        XZ       3.8364     YZ      -2.1624     ZZ     -90.4294

 Total job time:  130.16s(wall), 518.29s(cpu)
        *  Thank you very much for using Q-Chem.  Have a nice day.  *
