 Q-Chem 5.0, Q-Chem, Inc., Pleasanton, CA (2017)
 Q-Chem 5.0.1 for Intel X86 EM64T Linux

User input:
--------------------------------------------------------------
$molecule
0  1
C        +0.20238000        +1.04766000        +0.59128000
C        +0.63819000        -0.38392000        +1.03507000
C        +1.32502000        +1.40342000        -0.40773000
C        +2.63024000        +1.71632000        +0.35656000
C        +3.06844000        +0.28546000        +0.80025000
C        +1.92879000        -0.57154000        +0.20725000
O        +1.61715000        +0.12844000        -1.01410000
H        +3.36771000        +2.16806000        -0.30914000
H        +2.46905000        +2.39751000        +1.19495000
H        +4.02649000        +0.00980000        +0.35668000
H        +3.15140000        +0.17666000        +1.88393000
H        +1.05332000        +2.11810000        -1.18255000
H        +2.19020000        -1.60239000        -0.02473000
H        +0.81538000        -0.46660000        +2.10960000
H        -0.10758000        -1.13032000        +0.75591000
H        -0.76622000        +1.02844000        +0.08894000
H        +0.14243000        +1.75630000        +1.41989000
@C        +0.23706000        +2.09374000        +3.93112000
@C        +0.67287000        +0.66216000        +4.37491000
@C        +1.35970000        +2.44950000        +2.93211000
@C        +2.66492000        +2.76240000        +3.69640000
@C        +3.10312000        +1.33154000        +4.14009000
@C        +1.96347000        +0.47454000        +3.54709000
@O        +1.65183000        +1.17452000        +2.32574000
@H        +3.40239000        +3.21414000        +3.03070000
@H        +2.50373000        +3.44359000        +4.53479000
@H        +4.06117000        +1.05588000        +3.69652000
@H        +3.18608000        +1.22274000        +5.22377000
@H        +1.08800000        +3.16418000        +2.15729000
@H        +2.22488000        -0.55631000        +3.31511000
@H        +0.85006000        +0.57948000        +5.44944000
@H        -0.07290000        -0.08424000        +4.09575000
@H        -0.73154000        +2.07452000        +3.42878000
@H        +0.17711000        +2.80238000        +4.75973000
$end

$rem
JOBTYPE                   SP
METHOD                    B3LYP
DFT_D                     d3_op
BASIS                     6-311++G(d,p)
SYMMETRY                  False
THRESH                    12
SCF_CONVERGENCE           8
MAX_SUB_FILE_NUM          128
MEM_STATIC                400
MEM_TOTAL                 4000
$end
--------------------------------------------------------------

             Standard Nuclear Orientation (Angstroms)
    I     Atom           X                Y                Z
 ----------------------------------------------------------------
    1      C       0.2023800000     1.0476600000     0.5912800000
    2      C       0.6381900000    -0.3839200000     1.0350700000
    3      C       1.3250200000     1.4034200000    -0.4077300000
    4      C       2.6302400000     1.7163200000     0.3565600000
    5      C       3.0684400000     0.2854600000     0.8002500000
    6      C       1.9287900000    -0.5715400000     0.2072500000
    7      O       1.6171500000     0.1284400000    -1.0141000000
    8      H       3.3677100000     2.1680600000    -0.3091400000
    9      H       2.4690500000     2.3975100000     1.1949500000
   10      H       4.0264900000     0.0098000000     0.3566800000
   11      H       3.1514000000     0.1766600000     1.8839300000
   12      H       1.0533200000     2.1181000000    -1.1825500000
   13      H       2.1902000000    -1.6023900000    -0.0247300000
   14      H       0.8153800000    -0.4666000000     2.1096000000
   15      H      -0.1075800000    -1.1303200000     0.7559100000
   16      H      -0.7662200000     1.0284400000     0.0889400000
   17      H       0.1424300000     1.7563000000     1.4198900000
   18      GH      0.2370600000     2.0937400000     3.9311200000
   19      GH      0.6728700000     0.6621600000     4.3749100000
   20      GH      1.3597000000     2.4495000000     2.9321100000
   21      GH      2.6649200000     2.7624000000     3.6964000000
   22      GH      3.1031200000     1.3315400000     4.1400900000
   23      GH      1.9634700000     0.4745400000     3.5470900000
   24      GH      1.6518300000     1.1745200000     2.3257400000
   25      GH      3.4023900000     3.2141400000     3.0307000000
   26      GH      2.5037300000     3.4435900000     4.5347900000
   27      GH      4.0611700000     1.0558800000     3.6965200000
   28      GH      3.1860800000     1.2227400000     5.2237700000
   29      GH      1.0880000000     3.1641800000     2.1572900000
   30      GH      2.2248800000    -0.5563100000     3.3151100000
   31      GH      0.8500600000     0.5794800000     5.4494400000
   32      GH     -0.0729000000    -0.0842400000     4.0957500000
   33      GH     -0.7315400000     2.0745200000     3.4287800000
   34      GH      0.1771100000     2.8023800000     4.7597300000
 ----------------------------------------------------------------

   11    -309.9689278560      9.91E-09 Convergence criterion met
 Total energy in the final basis set = -309.96892786

                    Orbital Energies (a.u.)
 --------------------------------------------------------------

 Alpha MOs
 -- Occupied --
-19.118 -10.219 -10.219 -10.170 -10.170 -10.170 -10.170  -1.046
 -0.798  -0.751  -0.745  -0.612  -0.572  -0.571  -0.524  -0.478
 -0.468  -0.418  -0.408  -0.389  -0.367  -0.361  -0.348  -0.342
 -0.323  -0.306  -0.263

          Ground-State Mulliken Net Atomic Charges

     Atom                 Charge (a.u.)
  ----------------------------------------
      1 C                    -0.252943
      2 C                    -0.261478
      3 C                    -0.241644
      4 C                    -0.254607
      5 C                    -0.257178
      6 C                    -0.240047
      7 O                    -0.157977
      8 H                     0.221193
      9 H                     0.105610
     10 H                     0.221293
     11 H                     0.103906
     12 H                     0.227091
     13 H                     0.227641
     14 H                     0.104542
     15 H                     0.221383
     16 H                     0.221099
     17 H                     0.104920
     18 GH                   -0.014836
     19 GH                   -0.014783
     20 GH                   -0.033277
     21 GH                   -0.015567
     22 GH                   -0.014542
     23 GH                   -0.034816
     24 GH                    0.003380
     25 GH                    0.000759
     26 GH                   -0.000916
     27 GH                    0.000634
     28 GH                   -0.000895
     29 GH                    0.016501
     30 GH                    0.015921
     31 GH                   -0.000931
     32 GH                    0.000716
     33 GH                    0.000725
     34 GH                   -0.000879
  ----------------------------------------
  Sum of atomic charges =     0.000000

                    Cartesian Multipole Moments
 -----------------------------------------------------------------
    Charge (ESU x 10^10)
                 0.0000
    Dipole Moment (Debye)
         X       0.0181      Y       0.5255      Z       1.6716
       Tot       1.7524
    Quadrupole Moments (Debye-Ang)
        XX     -43.1085     XY       0.2886     YY     -41.2753
        XZ       2.8709     YZ      -0.6951     ZZ     -45.9124

 Total job time:  139.65s(wall), 555.52s(cpu)
        *  Thank you very much for using Q-Chem.  Have a nice day.  *
