 Q-Chem 5.0, Q-Chem, Inc., Pleasanton, CA (2017)
 Q-Chem 5.0.1 for Intel X86 EM64T Linux

User input:
--------------------------------------------------------------
$molecule
0  1
C        +2.75381000        +2.29245000        +2.65647000
C        +3.15737000        +0.83404000        +3.06923000
C        +3.86119000        +2.64731000        +1.63561000
C        +5.16181000        +2.96457000        +2.39907000
C        +5.57447000        +1.54108000        +2.87352000
C        +4.47534000        +0.65458000        +2.22314000
O        +4.15951000        +1.38420000        +1.02676000
H        +5.90345000        +3.38539000        +1.71857000
H        +5.01347000        +3.67245000        +3.21703000
H        +6.55293000        +1.25751000        +2.48213000
H        +5.60470000        +1.43495000        +3.95980000
H        +3.56381000        +3.44700000        +0.98988000
C        +4.88561000        -0.76510000        +1.90240000
H        +5.78854000        -0.75438000        +1.32837000
H        +4.11062000        -1.24175000        +1.33929000
H        +5.04798000        -1.30372000        +2.81258000
H        +1.78438000        +2.31568000        +2.20417000
H        +2.68663000        +2.97374000        +3.47880000
H        +3.34804000        +0.75852000        +4.11939000
H        +2.40587000        +0.09401000        +2.88895000
@C        +0.22270000        +1.04488000        +0.58595000
@C        +0.62626000        -0.41353000        +0.99871000
@C        +1.33008000        +1.39974000        -0.43491000
@C        +2.63070000        +1.71700000        +0.32855000
@C        +3.04336000        +0.29351000        +0.80300000
@C        +1.94423000        -0.59299000        +0.15262000
@O        +1.62840000        +0.13663000        -1.04376000
@H        +3.37234000        +2.13782000        -0.35195000
@H        +2.48236000        +2.42488000        +1.14651000
@H        +4.02182000        +0.00994000        +0.41161000
@H        +3.07359000        +0.18738000        +1.88928000
@H        +1.03270000        +2.19943000        -1.08064000
@C        +2.35450000        -2.01267000        -0.16812000
@H        +3.25743000        -2.00195000        -0.74215000
@H        +1.57951000        -2.48932000        -0.73123000
@H        +2.51687000        -2.55129000        +0.74206000
@H        -0.74673000        +1.06811000        +0.13365000
@H        +0.15552000        +1.72617000        +1.40828000
@H        +0.81693000        -0.48905000        +2.04887000
@H        -0.12524000        -1.15356000        +0.81843000
$end

$rem
JOBTYPE                   SP
METHOD                    B3LYP
DFT_D                     d3_op
BASIS                     6-311++G(d,p)
SYMMETRY                  False
THRESH                    12
SCF_CONVERGENCE           8
MAX_SUB_FILE_NUM          128
MEM_STATIC                400
MEM_TOTAL                 4000
$end
--------------------------------------------------------------

             Standard Nuclear Orientation (Angstroms)
    I     Atom           X                Y                Z
 ----------------------------------------------------------------
    1      C       2.7538100000     2.2924500000     2.6564700000
    2      C       3.1573700000     0.8340400000     3.0692300000
    3      C       3.8611900000     2.6473100000     1.6356100000
    4      C       5.1618100000     2.9645700000     2.3990700000
    5      C       5.5744700000     1.5410800000     2.8735200000
    6      C       4.4753400000     0.6545800000     2.2231400000
    7      O       4.1595100000     1.3842000000     1.0267600000
    8      H       5.9034500000     3.3853900000     1.7185700000
    9      H       5.0134700000     3.6724500000     3.2170300000
   10      H       6.5529300000     1.2575100000     2.4821300000
   11      H       5.6047000000     1.4349500000     3.9598000000
   12      H       3.5638100000     3.4470000000     0.9898800000
   13      C       4.8856100000    -0.7651000000     1.9024000000
   14      H       5.7885400000    -0.7543800000     1.3283700000
   15      H       4.1106200000    -1.2417500000     1.3392900000
   16      H       5.0479800000    -1.3037200000     2.8125800000
   17      H       1.7843800000     2.3156800000     2.2041700000
   18      H       2.6866300000     2.9737400000     3.4788000000
   19      H       3.3480400000     0.7585200000     4.1193900000
   20      H       2.4058700000     0.0940100000     2.8889500000
   21      GH      0.2227000000     1.0448800000     0.5859500000
   22      GH      0.6262600000    -0.4135300000     0.9987100000
   23      GH      1.3300800000     1.3997400000    -0.4349100000
   24      GH      2.6307000000     1.7170000000     0.3285500000
   25      GH      3.0433600000     0.2935100000     0.8030000000
   26      GH      1.9442300000    -0.5929900000     0.1526200000
   27      GH      1.6284000000     0.1366300000    -1.0437600000
   28      GH      3.3723400000     2.1378200000    -0.3519500000
   29      GH      2.4823600000     2.4248800000     1.1465100000
   30      GH      4.0218200000     0.0099400000     0.4116100000
   31      GH      3.0735900000     0.1873800000     1.8892800000
   32      GH      1.0327000000     2.1994300000    -1.0806400000
   33      GH      2.3545000000    -2.0126700000    -0.1681200000
   34      GH      3.2574300000    -2.0019500000    -0.7421500000
   35      GH      1.5795100000    -2.4893200000    -0.7312300000
   36      GH      2.5168700000    -2.5512900000     0.7420600000
   37      GH     -0.7467300000     1.0681100000     0.1336500000
   38      GH      0.1555200000     1.7261700000     1.4082800000
   39      GH      0.8169300000    -0.4890500000     2.0488700000
   40      GH     -0.1252400000    -1.1535600000     0.8184300000
 ----------------------------------------------------------------

   13    -349.2984463597      2.64E-09 Convergence criterion met
 Total energy in the final basis set = -349.29844636

                    Orbital Energies (a.u.)
 --------------------------------------------------------------

 Alpha MOs
 -- Occupied --
-19.119 -10.225 -10.216 -10.166 -10.166 -10.163 -10.162 -10.154
 -1.048  -0.798  -0.775  -0.748  -0.683  -0.614  -0.575  -0.556
 -0.503  -0.482  -0.464  -0.440  -0.417  -0.405  -0.392  -0.377
 -0.360  -0.348  -0.343  -0.336  -0.316  -0.301  -0.262

          Ground-State Mulliken Net Atomic Charges

     Atom                 Charge (a.u.)
  ----------------------------------------
      1 C                    -0.329345
      2 C                    -0.457108
      3 C                     0.293597
      4 C                    -0.530863
      5 C                    -0.461977
      6 C                     0.466846
      7 O                    -0.158830
      8 H                     0.161460
      9 H                     0.123135
     10 H                     0.154279
     11 H                     0.136453
     12 H                     0.212406
     13 C                    -0.570744
     14 H                     0.148225
     15 H                     0.040196
     16 H                     0.161599
     17 H                     0.112706
     18 H                     0.207725
     19 H                     0.177227
     20 H                     0.212946
     21 GH                   -0.017356
     22 GH                   -0.025234
     23 GH                   -0.163489
     24 GH                   -0.153547
     25 GH                    0.170849
     26 GH                   -0.053223
     27 GH                   -0.012204
     28 GH                   -0.028490
     29 GH                    0.043406
     30 GH                    0.011110
     31 GH                    0.099772
     32 GH                   -0.004527
     33 GH                    0.054229
     34 GH                   -0.000004
     35 GH                    0.000890
     36 GH                    0.008592
     37 GH                    0.000239
     38 GH                   -0.006223
     39 GH                   -0.023970
     40 GH                   -0.000751
  ----------------------------------------
  Sum of atomic charges =     0.000000

                    Cartesian Multipole Moments
 -----------------------------------------------------------------
    Charge (ESU x 10^10)
                 0.0000
    Dipole Moment (Debye)
         X      -0.0174      Y       0.3894      Z       1.5745
       Tot       1.6220
    Quadrupole Moments (Debye-Ang)
        XX     -49.9336     XY       0.8812     YY     -46.7039
        XZ       6.4786     YZ       2.1285     ZZ     -46.0335

 Total job time:  330.83s(wall), 1313.70s(cpu)
        *  Thank you very much for using Q-Chem.  Have a nice day.  *
