 Q-Chem 5.0, Q-Chem, Inc., Pleasanton, CA (2017)
 Q-Chem 5.0.1 for Intel X86 EM64T Linux

User input:
--------------------------------------------------------------
$molecule
0  1
--
0  1
C        +0.22270000        +1.04488000        +0.58595000
C        +0.62626000        -0.41353000        +0.99871000
C        +1.33008000        +1.39974000        -0.43491000
C        +2.63070000        +1.71700000        +0.32855000
C        +3.04336000        +0.29351000        +0.80300000
C        +1.94423000        -0.59299000        +0.15262000
O        +1.62840000        +0.13663000        -1.04376000
H        +3.37234000        +2.13782000        -0.35195000
H        +2.48236000        +2.42488000        +1.14651000
H        +4.02182000        +0.00994000        +0.41161000
H        +3.07359000        +0.18738000        +1.88928000
H        +1.03270000        +2.19943000        -1.08064000
C        +2.35450000        -2.01267000        -0.16812000
H        +3.25743000        -2.00195000        -0.74215000
H        +1.57951000        -2.48932000        -0.73123000
H        +2.51687000        -2.55129000        +0.74206000
H        -0.74673000        +1.06811000        +0.13365000
H        +0.15552000        +1.72617000        +1.40828000
H        +0.81693000        -0.48905000        +2.04887000
H        -0.12524000        -1.15356000        +0.81843000
--
0  1
C        +5.28493000        +3.54001000        +4.72698000
C        +5.68849000        +2.08160000        +5.13974000
C        +6.39231000        +3.89487000        +3.70612000
C        +7.69293000        +4.21213000        +4.46958000
C        +8.10559000        +2.78864000        +4.94403000
C        +7.00646000        +1.90214000        +4.29365000
O        +6.69063000        +2.63176000        +3.09727000
H        +8.43457000        +4.63295000        +3.78908000
H        +7.54459000        +4.92001000        +5.28754000
H        +9.08405000        +2.50507000        +4.55264000
H        +8.13582000        +2.68251000        +6.03031000
H        +6.09493000        +4.69456000        +3.06039000
C        +7.41673000        +0.48246000        +3.97291000
H        +8.31966000        +0.49318000        +3.39888000
H        +6.64174000        +0.00581000        +3.40980000
H        +7.57910000        -0.05616000        +4.88309000
H        +4.31550000        +3.56324000        +4.27468000
H        +5.21775000        +4.22130000        +5.54931000
H        +5.87916000        +2.00608000        +6.18990000
H        +4.93699000        +1.34157000        +4.95946000
$end

$rem
JOBTYPE                   SP
METHOD                    B3LYP
DFT_D                     d3_op
BASIS                     6-311++G(d,p)
SYMMETRY                  False
THRESH                    12
SCF_CONVERGENCE           8
MAX_SUB_FILE_NUM          128
MEM_STATIC                400
MEM_TOTAL                 4000
$end
--------------------------------------------------------------

             Standard Nuclear Orientation (Angstroms)
    I     Atom           X                Y                Z
 ----------------------------------------------------------------
    1      C       4.0381470275    -1.4890162277     0.8370280856
    2      C       4.0488820429     0.0014102592     1.3256024055
    3      C       3.6878824271    -1.3254467367    -0.6612812800
    4      C       2.1832994520    -1.0185136605    -0.7922760175
    5      C       2.1388972587     0.4455443231    -0.2666549333
    6      C       3.6433131644     0.7393522084    -0.0070921075
    7      O       4.2909779383    -0.0701621851    -1.0013937846
    8      H       1.8787752633    -1.0727956595    -1.8384682059
    9      H       1.5570256549    -1.7073303904    -0.2217761882
   10      H       1.7573574661     1.1310068395    -1.0253054285
   11      H       1.5307496425     0.5682639872     0.6318315881
   12      H       3.9789362158    -2.1821797248    -1.2324226571
   13      C       4.0571922252     2.1884887862    -0.1311655732
   14      H       3.7264045660     2.5745317977    -1.0726846978
   15      H       5.1229633914     2.2614934200    -0.0703400909
   16      H       3.6150641268     2.7548375138     0.6617247200
   17      H       4.9958013381    -1.9486087296     0.9658007584
   18      H       3.3601534662    -2.1177466709     1.3754689888
   19      H       3.3333442203     0.1679086729     2.1035344382
   20      H       4.9750052057     0.3255727713     1.7523483281
   21      C      -2.9600815419    -1.4065830037     0.9711079323
   22      C      -2.9493465264     0.0838434831     1.4596822521
   23      C      -3.3103461422    -1.2430135128    -0.5272014333
   24      C      -4.8149291174    -0.9360804365    -0.6581961709
   25      C      -4.8593313107     0.5279775470    -0.1325750867
   26      C      -3.3549154050     0.8217854323     0.1269877391
   27      O      -2.7072506311     0.0122710389    -0.8673139380
   28      H      -5.1194533060    -0.9903624355    -1.7043883593
   29      H      -5.4412029145    -1.6248971664    -0.0876963415
   30      H      -5.2408711033     1.2134400634    -0.8912255819
   31      H      -5.4674789268     0.6506972112     0.7659114348
   32      H      -3.0192923536    -2.0997465008    -1.0983428105
   33      C      -2.9410363442     2.2709220101     0.0029142735
   34      H      -3.2718240033     2.6569650216    -0.9386048512
   35      H      -1.8752651779     2.3439266439     0.0637397557
   36      H      -3.3831644426     2.8372707377     0.7958045666
   37      H      -2.0024272312    -1.8661755056     1.0998806050
   38      H      -3.6380751031    -2.0353134469     1.5095488354
   39      H      -3.6648843490     0.2503418968     2.2376142849
   40      H      -2.0232233637     0.4080059952     1.8864281748
 ----------------------------------------------------------------

   13    -698.5930577775      4.29E-09 Convergence criterion met
 Total energy in the final basis set = -698.59305778

                    Orbital Energies (a.u.)
 --------------------------------------------------------------

 Alpha MOs
 -- Occupied --
-19.121 -19.116 -10.227 -10.222 -10.218 -10.213 -10.168 -10.167
-10.165 -10.165 -10.162 -10.161 -10.161 -10.160 -10.156 -10.152
 -1.051  -1.046  -0.800  -0.795  -0.777  -0.772  -0.750  -0.745
 -0.685  -0.681  -0.617  -0.611  -0.577  -0.572  -0.558  -0.553
 -0.505  -0.500  -0.484  -0.479  -0.466  -0.461  -0.442  -0.437
 -0.419  -0.415  -0.407  -0.401  -0.394  -0.389  -0.379  -0.375
 -0.362  -0.357  -0.350  -0.345  -0.345  -0.340  -0.338  -0.333
 -0.318  -0.313  -0.303  -0.298  -0.264  -0.259

          Ground-State Mulliken Net Atomic Charges

     Atom                 Charge (a.u.)
  ----------------------------------------
      1 C                    -0.611309
      2 C                    -0.278791
      3 C                     0.378365
      4 C                    -0.610586
      5 C                    -0.172092
      6 C                     0.000923
      7 O                    -0.089520
      8 H                     0.166335
      9 H                     0.091093
     10 H                     0.154326
     11 H                     0.071841
     12 H                     0.248733
     13 C                    -0.387062
     14 H                     0.147179
     15 H                     0.155670
     16 H                     0.134632
     17 H                     0.168674
     18 H                     0.121308
     19 H                     0.136443
     20 H                     0.165715
     21 C                    -0.495993
     22 C                    -0.360358
     23 C                     0.240849
     24 C                    -0.587455
     25 C                    -0.440097
     26 C                     0.215027
     27 O                    -0.076178
     28 H                     0.165549
     29 H                     0.125051
     30 H                     0.150873
     31 H                     0.142820
     32 H                     0.232580
     33 C                    -0.305132
     34 H                     0.151190
     35 H                     0.144674
     36 H                     0.136277
     37 H                     0.136345
     38 H                     0.135290
     39 H                     0.138077
     40 H                     0.158735
  ----------------------------------------
  Sum of atomic charges =     0.000000

                    Cartesian Multipole Moments
 -----------------------------------------------------------------
    Charge (ESU x 10^10)
                 0.0000
    Dipole Moment (Debye)
         X      -2.3112      Y      -0.6655      Z       2.3487
       Tot       3.3617
    Quadrupole Moments (Debye-Ang)
        XX    -103.8134     XY      -0.2544     YY     -95.1380
        XZ       3.4051     YZ       1.6007     ZZ    -103.0698

 Total job time:  138.79s(wall), 552.52s(cpu)
        *  Thank you very much for using Q-Chem.  Have a nice day.  *
