 Q-Chem 5.0, Q-Chem, Inc., Pleasanton, CA (2017)
 Q-Chem 5.0.1 for Intel X86 EM64T Linux

User input:
--------------------------------------------------------------
$molecule
0  1
--
0  1
C        +0.22270000        +1.04488000        +0.58595000
C        +0.62626000        -0.41353000        +0.99871000
C        +1.33008000        +1.39974000        -0.43491000
C        +2.63070000        +1.71700000        +0.32855000
C        +3.04336000        +0.29351000        +0.80300000
C        +1.94423000        -0.59299000        +0.15262000
O        +1.62840000        +0.13663000        -1.04376000
H        +3.37234000        +2.13782000        -0.35195000
H        +2.48236000        +2.42488000        +1.14651000
H        +4.02182000        +0.00994000        +0.41161000
H        +3.07359000        +0.18738000        +1.88928000
H        +1.03270000        +2.19943000        -1.08064000
C        +2.35450000        -2.01267000        -0.16812000
H        +3.25743000        -2.00195000        -0.74215000
H        +1.57951000        -2.48932000        -0.73123000
H        +2.51687000        -2.55129000        +0.74206000
H        -0.74673000        +1.06811000        +0.13365000
H        +0.15552000        +1.72617000        +1.40828000
H        +0.81693000        -0.48905000        +2.04887000
H        -0.12524000        -1.15356000        +0.81843000
--
0  1
C        +3.76626000        +2.79147000        +3.48467000
C        +4.16982000        +1.33306000        +3.89743000
C        +4.87364000        +3.14633000        +2.46381000
C        +6.17426000        +3.46359000        +3.22727000
C        +6.58692000        +2.04010000        +3.70172000
C        +5.48779000        +1.15360000        +3.05134000
O        +5.17196000        +1.88322000        +1.85496000
H        +6.91590000        +3.88441000        +2.54677000
H        +6.02592000        +4.17147000        +4.04523000
H        +7.56538000        +1.75653000        +3.31033000
H        +6.61715000        +1.93397000        +4.78800000
H        +4.57626000        +3.94602000        +1.81808000
C        +5.89806000        -0.26608000        +2.73060000
H        +6.80099000        -0.25536000        +2.15657000
H        +5.12307000        -0.74273000        +2.16749000
H        +6.06043000        -0.80470000        +3.64078000
H        +2.79683000        +2.81470000        +3.03237000
H        +3.69908000        +3.47276000        +4.30700000
H        +4.36049000        +1.25754000        +4.94759000
H        +3.41832000        +0.59303000        +3.71715000
$end

$rem
JOBTYPE                   SP
METHOD                    B3LYP
DFT_D                     d3_op
BASIS                     6-311++G(d,p)
SYMMETRY                  False
THRESH                    12
SCF_CONVERGENCE           8
MAX_SUB_FILE_NUM          128
MEM_STATIC                400
MEM_TOTAL                 4000
$end
--------------------------------------------------------------

             Standard Nuclear Orientation (Angstroms)
    I     Atom           X                Y                Z
 ----------------------------------------------------------------
    1      C       2.9835937348    -1.5214297777     0.7932302532
    2      C       3.0249088167    -0.0330558168     1.2864109866
    3      C       2.6062912469    -1.3476146026    -0.6973408927
    4      C       1.1038948075    -1.0191655095    -0.7976583670
    5      C       1.0904455737     0.4434827855    -0.2664390698
    6      C       2.6036587309     0.7152546514    -0.0355946521
    7      O       3.2201990215    -0.0996952523    -1.0451261089
    8      H       0.7781369029    -1.0654358997    -1.8378220323
    9      H       0.4793175887    -1.7011749932    -0.2172070138
   10      H       0.7037591693     1.1369308390    -1.0151616288
   11      H       0.5018593056     0.5714985767     0.6442528816
   12      H       2.8739754529    -2.2062943884    -1.2769272837
   13      C       3.0353797497     2.1588845808    -0.1630172245
   14      H       2.6916218845     2.5528869989    -1.0965591725
   15      H       4.1030625147     2.2167322376    -0.1229578097
   16      H       2.6169348753     2.7285344835     0.6402921985
   17      H       3.9370285158    -1.9948516772     0.9015966286
   18      H       2.3075277803    -2.1425200504     1.3428460680
   19      H       2.3272110509     0.1406696316     2.0788323651
   20      H       3.9637108338     0.2765720819     1.6958970869
   21      C      -1.9110763945    -1.3954337677     0.9837586526
   22      C      -1.8697613126     0.0929401932     1.4769393860
   23      C      -2.2883788824    -1.2216185925    -0.5068124933
   24      C      -3.7907753218    -0.8931694994    -0.6071299676
   25      C      -3.8042245556     0.5694787955    -0.0759106704
   26      C      -2.2910113984     0.8412506615     0.1549337472
   27      O      -1.6744711078     0.0263007577    -0.8545977095
   28      H      -4.1165332264    -0.9394398897    -1.6472936329
   29      H      -4.4153525406    -1.5751789831    -0.0266786144
   30      H      -4.1909109600     1.2629268490    -0.8246332294
   31      H      -4.3928108237     0.6974945868     0.8347812810
   32      H      -2.0206946764    -2.0802983784    -1.0863988843
   33      C      -1.8592903796     2.2848805908     0.0275111749
   34      H      -2.2030482448     2.6788830090    -0.9060307731
   35      H      -0.7916076146     2.3427282476     0.0675705896
   36      H      -2.2777352540     2.8545304936     0.8308205979
   37      H      -0.9576416135    -1.8688556671     1.0921250280
   38      H      -2.5871423490    -2.0165240403     1.5333744674
   39      H      -2.5674590783     0.2666656416     2.2693607645
   40      H      -0.9309592955     0.4025680919     1.8864254863
 ----------------------------------------------------------------

   13    -698.5901975115      6.94E-09 Convergence criterion met
 Total energy in the final basis set = -698.59019751

                    Orbital Energies (a.u.)
 --------------------------------------------------------------

 Alpha MOs
 -- Occupied --
-19.122 -19.110 -10.230 -10.220 -10.216 -10.207 -10.170 -10.169
-10.168 -10.167 -10.157 -10.157 -10.157 -10.154 -10.152 -10.149
 -1.054  -1.041  -0.803  -0.790  -0.780  -0.768  -0.754  -0.739
 -0.688  -0.677  -0.621  -0.606  -0.580  -0.567  -0.562  -0.547
 -0.508  -0.495  -0.490  -0.476  -0.467  -0.454  -0.446  -0.433
 -0.422  -0.413  -0.411  -0.398  -0.395  -0.384  -0.382  -0.371
 -0.366  -0.354  -0.350  -0.349  -0.342  -0.339  -0.334  -0.326
 -0.320  -0.308  -0.304  -0.291  -0.268  -0.251

          Ground-State Mulliken Net Atomic Charges

     Atom                 Charge (a.u.)
  ----------------------------------------
      1 C                    -0.589301
      2 C                    -0.182260
      3 C                     0.054464
      4 C                    -0.248910
      5 C                    -0.116085
      6 C                    -0.135777
      7 O                    -0.048668
      8 H                     0.212497
      9 H                     0.043064
     10 H                     0.203675
     11 H                    -0.084080
     12 H                     0.239366
     13 C                    -0.519708
     14 H                     0.147352
     15 H                     0.163589
     16 H                     0.148092
     17 H                     0.170663
     18 H                     0.112670
     19 H                     0.126808
     20 H                     0.169806
     21 C                    -0.376194
     22 C                    -0.407399
     23 C                     0.192988
     24 C                    -0.673377
     25 C                    -0.469745
     26 C                     0.266016
     27 O                     0.062702
     28 H                     0.163836
     29 H                     0.129776
     30 H                     0.157812
     31 H                     0.135797
     32 H                     0.234271
     33 C                    -0.364277
     34 H                     0.158618
     35 H                     0.128338
     36 H                     0.142761
     37 H                     0.117175
     38 H                     0.173120
     39 H                     0.168353
     40 H                     0.192174
  ----------------------------------------
  Sum of atomic charges =     0.000000

                    Cartesian Multipole Moments
 -----------------------------------------------------------------
    Charge (ESU x 10^10)
                 0.0000
    Dipole Moment (Debye)
         X      -2.6483      Y      -0.6039      Z       2.2268
       Tot       3.5124
    Quadrupole Moments (Debye-Ang)
        XX    -104.4429     XY      -0.0135     YY     -95.6173
        XZ       3.3459     YZ       1.5299     ZZ    -103.2311

 Total job time:  206.44s(wall), 821.03s(cpu)
        *  Thank you very much for using Q-Chem.  Have a nice day.  *
