 Q-Chem 5.0, Q-Chem, Inc., Pleasanton, CA (2017)
 Q-Chem 5.0.1 for Intel X86 EM64T Linux

User input:
--------------------------------------------------------------
$molecule
0  1
C        +5.28493000        +3.54001000        +4.72698000
C        +5.68849000        +2.08160000        +5.13974000
C        +6.39231000        +3.89487000        +3.70612000
C        +7.69293000        +4.21213000        +4.46958000
C        +8.10559000        +2.78864000        +4.94403000
C        +7.00646000        +1.90214000        +4.29365000
O        +6.69063000        +2.63176000        +3.09727000
H        +8.43457000        +4.63295000        +3.78908000
H        +7.54459000        +4.92001000        +5.28754000
H        +9.08405000        +2.50507000        +4.55264000
H        +8.13582000        +2.68251000        +6.03031000
H        +6.09493000        +4.69456000        +3.06039000
C        +7.41673000        +0.48246000        +3.97291000
H        +8.31966000        +0.49318000        +3.39888000
H        +6.64174000        +0.00581000        +3.40980000
H        +7.57910000        -0.05616000        +4.88309000
H        +4.31550000        +3.56324000        +4.27468000
H        +5.21775000        +4.22130000        +5.54931000
H        +5.87916000        +2.00608000        +6.18990000
H        +4.93699000        +1.34157000        +4.95946000
@C        +0.22270000        +1.04488000        +0.58595000
@C        +0.62626000        -0.41353000        +0.99871000
@C        +1.33008000        +1.39974000        -0.43491000
@C        +2.63070000        +1.71700000        +0.32855000
@C        +3.04336000        +0.29351000        +0.80300000
@C        +1.94423000        -0.59299000        +0.15262000
@O        +1.62840000        +0.13663000        -1.04376000
@H        +3.37234000        +2.13782000        -0.35195000
@H        +2.48236000        +2.42488000        +1.14651000
@H        +4.02182000        +0.00994000        +0.41161000
@H        +3.07359000        +0.18738000        +1.88928000
@H        +1.03270000        +2.19943000        -1.08064000
@C        +2.35450000        -2.01267000        -0.16812000
@H        +3.25743000        -2.00195000        -0.74215000
@H        +1.57951000        -2.48932000        -0.73123000
@H        +2.51687000        -2.55129000        +0.74206000
@H        -0.74673000        +1.06811000        +0.13365000
@H        +0.15552000        +1.72617000        +1.40828000
@H        +0.81693000        -0.48905000        +2.04887000
@H        -0.12524000        -1.15356000        +0.81843000
$end

$rem
JOBTYPE                   SP
METHOD                    B3LYP
DFT_D                     d3_op
BASIS                     6-311++G(d,p)
SYMMETRY                  False
THRESH                    12
SCF_CONVERGENCE           8
MAX_SUB_FILE_NUM          128
MEM_STATIC                400
MEM_TOTAL                 4000
$end
--------------------------------------------------------------

             Standard Nuclear Orientation (Angstroms)
    I     Atom           X                Y                Z
 ----------------------------------------------------------------
    1      C       5.2849300000     3.5400100000     4.7269800000
    2      C       5.6884900000     2.0816000000     5.1397400000
    3      C       6.3923100000     3.8948700000     3.7061200000
    4      C       7.6929300000     4.2121300000     4.4695800000
    5      C       8.1055900000     2.7886400000     4.9440300000
    6      C       7.0064600000     1.9021400000     4.2936500000
    7      O       6.6906300000     2.6317600000     3.0972700000
    8      H       8.4345700000     4.6329500000     3.7890800000
    9      H       7.5445900000     4.9200100000     5.2875400000
   10      H       9.0840500000     2.5050700000     4.5526400000
   11      H       8.1358200000     2.6825100000     6.0303100000
   12      H       6.0949300000     4.6945600000     3.0603900000
   13      C       7.4167300000     0.4824600000     3.9729100000
   14      H       8.3196600000     0.4931800000     3.3988800000
   15      H       6.6417400000     0.0058100000     3.4098000000
   16      H       7.5791000000    -0.0561600000     4.8830900000
   17      H       4.3155000000     3.5632400000     4.2746800000
   18      H       5.2177500000     4.2213000000     5.5493100000
   19      H       5.8791600000     2.0060800000     6.1899000000
   20      H       4.9369900000     1.3415700000     4.9594600000
   21      GH      0.2227000000     1.0448800000     0.5859500000
   22      GH      0.6262600000    -0.4135300000     0.9987100000
   23      GH      1.3300800000     1.3997400000    -0.4349100000
   24      GH      2.6307000000     1.7170000000     0.3285500000
   25      GH      3.0433600000     0.2935100000     0.8030000000
   26      GH      1.9442300000    -0.5929900000     0.1526200000
   27      GH      1.6284000000     0.1366300000    -1.0437600000
   28      GH      3.3723400000     2.1378200000    -0.3519500000
   29      GH      2.4823600000     2.4248800000     1.1465100000
   30      GH      4.0218200000     0.0099400000     0.4116100000
   31      GH      3.0735900000     0.1873800000     1.8892800000
   32      GH      1.0327000000     2.1994300000    -1.0806400000
   33      GH      2.3545000000    -2.0126700000    -0.1681200000
   34      GH      3.2574300000    -2.0019500000    -0.7421500000
   35      GH      1.5795100000    -2.4893200000    -0.7312300000
   36      GH      2.5168700000    -2.5512900000     0.7420600000
   37      GH     -0.7467300000     1.0681100000     0.1336500000
   38      GH      0.1555200000     1.7261700000     1.4082800000
   39      GH      0.8169300000    -0.4890500000     2.0488700000
   40      GH     -0.1252400000    -1.1535600000     0.8184300000
 ----------------------------------------------------------------

   13    -349.2960435378      2.61E-09 Convergence criterion met
 Total energy in the final basis set = -349.29604354

                    Orbital Energies (a.u.)
 --------------------------------------------------------------

 Alpha MOs
 -- Occupied --
-19.119 -10.225 -10.216 -10.166 -10.166 -10.163 -10.162 -10.154
 -1.049  -0.798  -0.775  -0.748  -0.684  -0.615  -0.575  -0.556
 -0.503  -0.482  -0.465  -0.441  -0.418  -0.405  -0.392  -0.378
 -0.360  -0.348  -0.344  -0.336  -0.316  -0.301  -0.262

          Ground-State Mulliken Net Atomic Charges

     Atom                 Charge (a.u.)
  ----------------------------------------
      1 C                    -0.498105
      2 C                    -0.359837
      3 C                     0.239925
      4 C                    -0.587226
      5 C                    -0.438435
      6 C                     0.218601
      7 O                    -0.075188
      8 H                     0.164902
      9 H                     0.124893
     10 H                     0.150348
     11 H                     0.142337
     12 H                     0.231997
     13 C                    -0.306141
     14 H                     0.150252
     15 H                     0.142214
     16 H                     0.136077
     17 H                     0.137231
     18 H                     0.134507
     19 H                     0.137464
     20 H                     0.158690
     21 GH                    0.000803
     22 GH                   -0.000549
     23 GH                   -0.002151
     24 GH                    0.005932
     25 GH                   -0.016482
     26 GH                    0.001020
     27 GH                    0.000017
     28 GH                    0.000516
     29 GH                    0.001262
     30 GH                    0.005166
     31 GH                   -0.000233
     32 GH                   -0.000067
     33 GH                    0.000285
     34 GH                   -0.000140
     35 GH                    0.000003
     36 GH                    0.000147
     37 GH                    0.000019
     38 GH                   -0.000001
     39 GH                   -0.000049
     40 GH                   -0.000004
  ----------------------------------------
  Sum of atomic charges =     0.000000

                    Cartesian Multipole Moments
 -----------------------------------------------------------------
    Charge (ESU x 10^10)
                 0.0000
    Dipole Moment (Debye)
         X      -0.0067      Y       0.4051      Z       1.6194
       Tot       1.6693
    Quadrupole Moments (Debye-Ang)
        XX     -49.8523     XY       1.9603     YY     -45.5863
        XZ      10.7196     YZ       5.0405     ZZ     -39.2525

 Total job time:  136.38s(wall), 542.78s(cpu)
        *  Thank you very much for using Q-Chem.  Have a nice day.  *
