 Q-Chem 5.0, Q-Chem, Inc., Pleasanton, CA (2017)
 Q-Chem 5.0.1 for Intel X86 EM64T Linux

User input:
--------------------------------------------------------------
$molecule
0  1
--
0  1
C        +0.20553000        +1.04146000        +0.58269000
C        +0.65000000        -0.38925000        +1.00740000
C        +1.32948000        +1.41743000        -0.40725000
C        +2.62919000        +1.72756000        +0.36622000
C        +3.06783000        +0.29650000        +0.79479000
C        +1.94651000        -0.57906000        +0.17708000
O        +1.63056000        +0.15702000        -1.03120000
H        +3.36767000        +2.18673000        -0.29348000
H        +2.46319000        +2.40269000        +1.20873000
H        +4.03298000        +0.02999000        +0.35944000
H        +3.13919000        +0.17160000        +1.87760000
H        +1.05575000        +2.14422000        -1.17046000
C        +2.32428000        -2.00466000        -0.15206000
H        +3.19961000        -2.02906000        -0.80581000
H        +1.50021000        -2.51513000        -0.65630000
H        +2.56254000        -2.55434000        +0.76296000
H        -0.76025000        +1.02051000        +0.07473000
H        +0.13481000        +1.74083000        +1.41846000
H        +0.82947000        -0.48542000        +2.08050000
H        -0.09122000        -1.13848000        +0.72072000
--
0  1
C        +0.21830000        +2.04514000        +3.93567000
C        +0.66277000        +0.61443000        +4.36038000
C        +1.34225000        +2.42111000        +2.94573000
C        +2.64196000        +2.73124000        +3.71920000
C        +3.08060000        +1.30018000        +4.14777000
C        +1.95928000        +0.42462000        +3.53006000
O        +1.64333000        +1.16070000        +2.32178000
H        +3.38044000        +3.19041000        +3.05950000
H        +2.47596000        +3.40637000        +4.56171000
H        +4.04575000        +1.03367000        +3.71242000
H        +3.15196000        +1.17528000        +5.23058000
H        +1.06852000        +3.14790000        +2.18252000
C        +2.33705000        -1.00098000        +3.20092000
H        +3.21238000        -1.02538000        +2.54717000
H        +1.51298000        -1.51145000        +2.69668000
H        +2.57531000        -1.55066000        +4.11594000
H        -0.74748000        +2.02419000        +3.42771000
H        +0.14758000        +2.74451000        +4.77144000
H        +0.84224000        +0.51826000        +5.43348000
H        -0.07845000        -0.13480000        +4.07370000
$end

$rem
JOBTYPE                   SP
METHOD                    B3LYP
DFT_D                     d3_op
BASIS                     6-311++G(d,p)
SYMMETRY                  False
THRESH                    12
SCF_CONVERGENCE           8
MAX_SUB_FILE_NUM          128
MEM_STATIC                400
MEM_TOTAL                 4000
$end
--------------------------------------------------------------

             Standard Nuclear Orientation (Angstroms)
    I     Atom           X                Y                Z
 ----------------------------------------------------------------
    1      C       0.9506061741     1.2720020149    -1.2627877519
    2      C       1.1839779073    -0.2676086183    -1.2628213008
    3      C       1.7338089314     1.6886751442     0.0011644590
    4      C       0.9527784930     1.2698749087     1.2653955925
    5      C       1.1825711758    -0.2699850841     1.2593504533
    6      C       2.0668988327    -0.4554296097    -0.0012463988
    7      O       2.8407799819     0.7704114135    -0.0005534664
    8      H       1.3866417786     1.7311017129     2.1544548559
    9      H      -0.1011734381     1.5530074201     1.2184815764
   10      H       1.7267561641    -0.5937121874     2.1488082579
   11      H       0.2561357437    -0.8457768944     1.2014631760
   12      H       2.1097286644     2.7105974374     0.0018730135
   13      C       2.9789804672    -1.6602047015     0.0004096509
   14      H       3.6159507302    -1.6587056355     0.8883587870
   15      H       3.6185872514    -1.6605999348    -0.8854977758
   16      H       2.3896327745    -2.5815333296     0.0010313983
   17      H       1.3823953252     1.7369375727    -2.1508115853
   18      H      -0.1037170067     1.5519544435    -1.2112079466
   19      H       0.2584759417    -0.8450952345    -1.2084422636
   20      H       1.7298824990    -0.5880119489    -2.1529156701
   21      C      -2.5104669927     0.7514407551    -1.2627218267
   22      C      -2.2770952595    -0.7881698782    -1.2627553756
   23      C      -1.7272642355     1.1681138843     0.0012303842
   24      C      -2.5082946739     0.7493136489     1.2654615177
   25      C      -2.2785019910    -0.7905463439     1.2594163785
   26      C      -1.3941743342    -0.9759908695    -0.0011804735
   27      O      -0.6202931849     0.2498501537    -0.0004875412
   28      H      -2.0744313882     1.2105404531     2.1545207811
   29      H      -3.5622466050     1.0324461603     1.2185475016
   30      H      -1.7343170027    -1.1142734472     2.1488741831
   31      H      -3.2049374231    -1.3663381542     1.2015291012
   32      H      -1.3513445024     2.1900361775     0.0019389387
   33      C      -0.4820926997    -2.1807659614     0.0004755761
   34      H       0.1548775634    -2.1792668953     0.8884247122
   35      H       0.1575140846    -2.1811611946    -0.8854318506
   36      H      -1.0714403923    -3.1020945895     0.0010973236
   37      H      -2.0786778416     1.2163763128    -2.1507456601
   38      H      -3.5647901736     1.0313931837    -1.2111420214
   39      H      -3.2025972251    -1.3656564943    -1.2083763383
   40      H      -1.7311906678    -1.1085732087    -2.1528497448
 ----------------------------------------------------------------

   13    -698.4530946610      9.23E-09 Convergence criterion met
 Total energy in the final basis set = -698.45309466

                    Orbital Energies (a.u.)
 --------------------------------------------------------------

 Alpha MOs
 -- Occupied --
-19.116 -19.098 -10.239 -10.231 -10.207 -10.198 -10.182 -10.182
-10.181 -10.181 -10.166 -10.151 -10.141 -10.141 -10.137 -10.137
 -1.076  -1.026  -0.823  -0.807  -0.774  -0.768  -0.756  -0.731
 -0.698  -0.666  -0.631  -0.603  -0.597  -0.579  -0.549  -0.536
 -0.526  -0.521  -0.493  -0.477  -0.461  -0.459  -0.438  -0.438
 -0.421  -0.421  -0.403  -0.403  -0.392  -0.392  -0.376  -0.374
 -0.364  -0.358  -0.351  -0.349  -0.326  -0.326  -0.323  -0.317
 -0.314  -0.297  -0.290  -0.281  -0.262  -0.235

          Ground-State Mulliken Net Atomic Charges

     Atom                 Charge (a.u.)
  ----------------------------------------
      1 C                    -0.212887
      2 C                     0.033220
      3 C                    -0.191598
      4 C                    -0.214578
      5 C                     0.035831
      6 C                    -0.607027
      7 O                    -0.004237
      8 H                     0.202779
      9 H                     0.075091
     10 H                     0.211941
     11 H                    -0.055397
     12 H                     0.223937
     13 C                    -0.476749
     14 H                     0.155489
     15 H                     0.155347
     16 H                     0.124422
     17 H                     0.202957
     18 H                     0.074305
     19 H                    -0.054019
     20 H                     0.211759
     21 C                    -0.656986
     22 C                    -0.329578
     23 C                     0.422250
     24 C                    -0.661346
     25 C                    -0.323676
     26 C                     0.133267
     27 O                    -0.124480
     28 H                     0.157157
     29 H                     0.156355
     30 H                     0.187861
     31 H                     0.154264
     32 H                     0.284927
     33 C                    -0.587641
     34 H                     0.229290
     35 H                     0.229247
     36 H                     0.182551
     37 H                     0.157726
     38 H                     0.156120
     39 H                     0.154143
     40 H                     0.187966
  ----------------------------------------
  Sum of atomic charges =     0.000000

                    Cartesian Multipole Moments
 -----------------------------------------------------------------
    Charge (ESU x 10^10)
                 0.0000
    Dipole Moment (Debye)
         X      -4.6233      Y      -0.9928      Z       0.0051
       Tot       4.7287
    Quadrupole Moments (Debye-Ang)
        XX    -107.1573     XY      -3.3924     YY     -98.0437
        XZ      -0.0032     YZ       0.0098     ZZ    -102.2299

 Total job time:  297.27s(wall), 1170.75s(cpu)
        *  Thank you very much for using Q-Chem.  Have a nice day.  *
