 Q-Chem 5.0, Q-Chem, Inc., Pleasanton, CA (2017)
 Q-Chem 5.0.1 for Intel X86 EM64T Linux

User input:
--------------------------------------------------------------
$molecule
0  1
--
0  1
C        +0.22270000        +1.04488000        +0.58595000
C        +0.62626000        -0.41353000        +0.99871000
C        +1.33008000        +1.39974000        -0.43491000
C        +2.63070000        +1.71700000        +0.32855000
C        +3.04336000        +0.29351000        +0.80300000
C        +1.94423000        -0.59299000        +0.15262000
O        +1.62840000        +0.13663000        -1.04376000
H        +3.37234000        +2.13782000        -0.35195000
H        +2.48236000        +2.42488000        +1.14651000
H        +4.02182000        +0.00994000        +0.41161000
H        +3.07359000        +0.18738000        +1.88928000
H        +1.03270000        +2.19943000        -1.08064000
C        +2.35450000        -2.01267000        -0.16812000
H        +3.25743000        -2.00195000        -0.74215000
H        +1.57951000        -2.48932000        -0.73123000
H        +2.51687000        -2.55129000        +0.74206000
H        -0.74673000        +1.06811000        +0.13365000
H        +0.15552000        +1.72617000        +1.40828000
H        +0.81693000        -0.48905000        +2.04887000
H        -0.12524000        -1.15356000        +0.81843000
--
0  1
C        +2.75381000        +2.29245000        +2.65647000
C        +3.15737000        +0.83404000        +3.06923000
C        +3.86119000        +2.64731000        +1.63561000
C        +5.16181000        +2.96457000        +2.39907000
C        +5.57447000        +1.54108000        +2.87352000
C        +4.47534000        +0.65458000        +2.22314000
O        +4.15951000        +1.38420000        +1.02676000
H        +5.90345000        +3.38539000        +1.71857000
H        +5.01347000        +3.67245000        +3.21703000
H        +6.55293000        +1.25751000        +2.48213000
H        +5.60470000        +1.43495000        +3.95980000
H        +3.56381000        +3.44700000        +0.98988000
C        +4.88561000        -0.76510000        +1.90240000
H        +5.78854000        -0.75438000        +1.32837000
H        +4.11062000        -1.24175000        +1.33929000
H        +5.04798000        -1.30372000        +2.81258000
H        +1.78438000        +2.31568000        +2.20417000
H        +2.68663000        +2.97374000        +3.47880000
H        +3.34804000        +0.75852000        +4.11939000
H        +2.40587000        +0.09401000        +2.88895000
$end

$rem
JOBTYPE                   SP
METHOD                    B3LYP
DFT_D                     d3_op
BASIS                     6-311++G(d,p)
SYMMETRY                  False
THRESH                    12
SCF_CONVERGENCE           8
MAX_SUB_FILE_NUM          128
MEM_STATIC                400
MEM_TOTAL                 4000
$end
--------------------------------------------------------------

             Standard Nuclear Orientation (Angstroms)
    I     Atom           X                Y                Z
 ----------------------------------------------------------------
    1      C       2.2618847347    -1.5832153096     0.7273335814
    2      C       2.3697138625    -0.1008082169     1.2283658260
    3      C       1.8370634761    -1.3857647021    -0.7474244935
    4      C       0.3436083066    -1.0078469197    -0.7910967976
    5      C       0.3972640330     0.4503382985    -0.2502347165
    6      C       1.9259049704     0.6709507801    -0.0726110448
    7      O       2.4786429957    -0.1558435490    -1.1091007218
    8      H      -0.0207301965    -1.0354978174    -1.8190522903
    9      H      -0.2816938459    -1.6736157240    -0.1928439007
   10      H       0.0068191180     1.1617346181    -0.9799264963
   11      H      -0.1536376485     0.5904326984     0.6820005352
   12      H       2.0554049873    -2.2482189162    -1.3419040192
   13      C       2.3998655176     2.1007068956    -0.2061991161
   14      H       2.0358246031     2.5128488242    -1.1240886451
   15      H       3.4696207093     2.1234767173    -0.2044787398
   16      H       2.0295192305     2.6774782754     0.6154343526
   17      H       3.2025654346    -2.0882259851     0.7979981845
   18      H       1.5860424025    -2.1861867345     1.2970338957
   19      H       1.7070708666     0.0894293410     2.0466617850
   20      H       3.3322983437     0.1749548111     1.6055705426
   21      C      -1.2223113097    -1.3805710087     0.9906110374
   22      C      -1.1144821819     0.1018360840     1.4916432821
   23      C      -1.6471325683    -1.1831204012    -0.4841470375
   24      C      -3.1405877378    -0.8052026187    -0.5278193416
   25      C      -3.0869320114     0.6529825994     0.0130427395
   26      C      -1.5582910740     0.8735950810     0.1906664112
   27      O      -1.0055530487     0.0468007519    -0.8458232658
   28      H      -3.5049262410    -0.8328535164    -1.5557748343
   29      H      -3.7658898903    -1.4709714231     0.0704335553
   30      H      -3.4773769264     1.3643789190    -0.7166490402
   31      H      -3.6378336929     0.7930769993     0.9452779913
   32      H      -1.4287910571    -2.0455746153    -1.0786265632
   33      C      -1.0843305268     2.3033511965     0.0570783400
   34      H      -1.4483714413     2.7154931251    -0.8608111891
   35      H      -0.0145753351     2.3261210182     0.0587987162
   36      H      -1.4546768139     2.8801225763     0.8787118086
   37      H      -0.2816306098    -1.8855816842     1.0612756405
   38      H      -1.8981536419    -1.9835424336     1.5603113518
   39      H      -1.7771251778     0.2920736420     2.3099392410
   40      H      -0.1518977007     0.3775991120     1.8688479986
 ----------------------------------------------------------------

   15    -697.9886674766      3.71E-09 Convergence criterion met
 Total energy in the final basis set = -697.98866748

                    Orbital Energies (a.u.)
 --------------------------------------------------------------

 Alpha MOs
 -- Occupied --
-19.155 -19.087 -10.254 -10.241 -10.199 -10.191 -10.182 -10.178
-10.176 -10.173 -10.167 -10.145 -10.145 -10.135 -10.122 -10.117
 -1.160  -1.015  -0.864  -0.856  -0.825  -0.762  -0.747  -0.740
 -0.714  -0.674  -0.660  -0.652  -0.612  -0.587  -0.572  -0.553
 -0.546  -0.537  -0.492  -0.482  -0.476  -0.459  -0.452  -0.443
 -0.428  -0.425  -0.413  -0.413  -0.409  -0.401  -0.393  -0.372
 -0.364  -0.356  -0.352  -0.348  -0.343  -0.338  -0.327  -0.319
 -0.310  -0.279  -0.260  -0.240  -0.233  -0.153

          Ground-State Mulliken Net Atomic Charges

     Atom                 Charge (a.u.)
  ----------------------------------------
      1 C                    -0.408940
      2 C                    -0.036232
      3 C                    -0.035495
      4 C                    -0.121246
      5 C                    -0.444965
      6 C                    -0.025156
      7 O                     0.017583
      8 H                     0.086445
      9 H                     0.200511
     10 H                     0.079081
     11 H                    -0.085276
     12 H                     0.207712
     13 C                    -0.664685
     14 H                     0.150516
     15 H                     0.165966
     16 H                     0.144382
     17 H                     0.178342
     18 H                     0.101905
     19 H                     0.082629
     20 H                     0.171254
     21 C                    -0.299194
     22 C                    -0.325717
     23 C                    -0.193095
     24 C                    -0.558211
     25 C                    -0.440091
     26 C                     0.195543
     27 O                     0.520555
     28 H                     0.171144
     29 H                     0.119102
     30 H                     0.160345
     31 H                     0.137004
     32 H                     0.251217
     33 C                    -0.670351
     34 H                     0.184735
     35 H                     0.123386
     36 H                     0.145888
     37 H                     0.089880
     38 H                     0.221195
     39 H                     0.171859
     40 H                     0.230475
  ----------------------------------------
  Sum of atomic charges =    -0.000000

                    Cartesian Multipole Moments
 -----------------------------------------------------------------
    Charge (ESU x 10^10)
                -0.0000
    Dipole Moment (Debye)
         X      -4.6351      Y      -0.5977      Z       2.4044
       Tot       5.2557
    Quadrupole Moments (Debye-Ang)
        XX    -108.6055     XY       0.6049     YY     -96.5953
        XZ       4.7070     YZ       1.0552     ZZ    -104.2292

 Total job time:  393.57s(wall), 1563.96s(cpu)
        *  Thank you very much for using Q-Chem.  Have a nice day.  *
