 Q-Chem 5.0, Q-Chem, Inc., Pleasanton, CA (2017)
 Q-Chem 5.0.1 for Intel X86 EM64T Linux

User input:
--------------------------------------------------------------
$molecule
0  1
C        +3.76626000        +2.79147000        +3.48467000
C        +4.16982000        +1.33306000        +3.89743000
C        +4.87364000        +3.14633000        +2.46381000
C        +6.17426000        +3.46359000        +3.22727000
C        +6.58692000        +2.04010000        +3.70172000
C        +5.48779000        +1.15360000        +3.05134000
O        +5.17196000        +1.88322000        +1.85496000
H        +6.91590000        +3.88441000        +2.54677000
H        +6.02592000        +4.17147000        +4.04523000
H        +7.56538000        +1.75653000        +3.31033000
H        +6.61715000        +1.93397000        +4.78800000
H        +4.57626000        +3.94602000        +1.81808000
C        +5.89806000        -0.26608000        +2.73060000
H        +6.80099000        -0.25536000        +2.15657000
H        +5.12307000        -0.74273000        +2.16749000
H        +6.06043000        -0.80470000        +3.64078000
H        +2.79683000        +2.81470000        +3.03237000
H        +3.69908000        +3.47276000        +4.30700000
H        +4.36049000        +1.25754000        +4.94759000
H        +3.41832000        +0.59303000        +3.71715000
@C        +0.22270000        +1.04488000        +0.58595000
@C        +0.62626000        -0.41353000        +0.99871000
@C        +1.33008000        +1.39974000        -0.43491000
@C        +2.63070000        +1.71700000        +0.32855000
@C        +3.04336000        +0.29351000        +0.80300000
@C        +1.94423000        -0.59299000        +0.15262000
@O        +1.62840000        +0.13663000        -1.04376000
@H        +3.37234000        +2.13782000        -0.35195000
@H        +2.48236000        +2.42488000        +1.14651000
@H        +4.02182000        +0.00994000        +0.41161000
@H        +3.07359000        +0.18738000        +1.88928000
@H        +1.03270000        +2.19943000        -1.08064000
@C        +2.35450000        -2.01267000        -0.16812000
@H        +3.25743000        -2.00195000        -0.74215000
@H        +1.57951000        -2.48932000        -0.73123000
@H        +2.51687000        -2.55129000        +0.74206000
@H        -0.74673000        +1.06811000        +0.13365000
@H        +0.15552000        +1.72617000        +1.40828000
@H        +0.81693000        -0.48905000        +2.04887000
@H        -0.12524000        -1.15356000        +0.81843000
$end

$rem
JOBTYPE                   SP
METHOD                    B3LYP
DFT_D                     d3_op
BASIS                     6-311++G(d,p)
SYMMETRY                  False
THRESH                    12
SCF_CONVERGENCE           8
MAX_SUB_FILE_NUM          128
MEM_STATIC                400
MEM_TOTAL                 4000
$end
--------------------------------------------------------------

             Standard Nuclear Orientation (Angstroms)
    I     Atom           X                Y                Z
 ----------------------------------------------------------------
    1      C       3.7662600000     2.7914700000     3.4846700000
    2      C       4.1698200000     1.3330600000     3.8974300000
    3      C       4.8736400000     3.1463300000     2.4638100000
    4      C       6.1742600000     3.4635900000     3.2272700000
    5      C       6.5869200000     2.0401000000     3.7017200000
    6      C       5.4877900000     1.1536000000     3.0513400000
    7      O       5.1719600000     1.8832200000     1.8549600000
    8      H       6.9159000000     3.8844100000     2.5467700000
    9      H       6.0259200000     4.1714700000     4.0452300000
   10      H       7.5653800000     1.7565300000     3.3103300000
   11      H       6.6171500000     1.9339700000     4.7880000000
   12      H       4.5762600000     3.9460200000     1.8180800000
   13      C       5.8980600000    -0.2660800000     2.7306000000
   14      H       6.8009900000    -0.2553600000     2.1565700000
   15      H       5.1230700000    -0.7427300000     2.1674900000
   16      H       6.0604300000    -0.8047000000     3.6407800000
   17      H       2.7968300000     2.8147000000     3.0323700000
   18      H       3.6990800000     3.4727600000     4.3070000000
   19      H       4.3604900000     1.2575400000     4.9475900000
   20      H       3.4183200000     0.5930300000     3.7171500000
   21      GH      0.2227000000     1.0448800000     0.5859500000
   22      GH      0.6262600000    -0.4135300000     0.9987100000
   23      GH      1.3300800000     1.3997400000    -0.4349100000
   24      GH      2.6307000000     1.7170000000     0.3285500000
   25      GH      3.0433600000     0.2935100000     0.8030000000
   26      GH      1.9442300000    -0.5929900000     0.1526200000
   27      GH      1.6284000000     0.1366300000    -1.0437600000
   28      GH      3.3723400000     2.1378200000    -0.3519500000
   29      GH      2.4823600000     2.4248800000     1.1465100000
   30      GH      4.0218200000     0.0099400000     0.4116100000
   31      GH      3.0735900000     0.1873800000     1.8892800000
   32      GH      1.0327000000     2.1994300000    -1.0806400000
   33      GH      2.3545000000    -2.0126700000    -0.1681200000
   34      GH      3.2574300000    -2.0019500000    -0.7421500000
   35      GH      1.5795100000    -2.4893200000    -0.7312300000
   36      GH      2.5168700000    -2.5512900000     0.7420600000
   37      GH     -0.7467300000     1.0681100000     0.1336500000
   38      GH      0.1555200000     1.7261700000     1.4082800000
   39      GH      0.8169300000    -0.4890500000     2.0488700000
   40      GH     -0.1252400000    -1.1535600000     0.8184300000
 ----------------------------------------------------------------

   13    -349.2966179240      2.62E-09 Convergence criterion met
 Total energy in the final basis set = -349.29661792

                    Orbital Energies (a.u.)
 --------------------------------------------------------------

 Alpha MOs
 -- Occupied --
-19.119 -10.225 -10.216 -10.166 -10.166 -10.163 -10.162 -10.154
 -1.049  -0.798  -0.775  -0.748  -0.684  -0.615  -0.575  -0.556
 -0.503  -0.482  -0.464  -0.440  -0.418  -0.405  -0.392  -0.377
 -0.360  -0.348  -0.344  -0.336  -0.316  -0.301  -0.262

          Ground-State Mulliken Net Atomic Charges

     Atom                 Charge (a.u.)
  ----------------------------------------
      1 C                    -0.386810
      2 C                    -0.424490
      3 C                     0.244389
      4 C                    -0.678498
      5 C                    -0.452617
      6 C                     0.309607
      7 O                     0.027857
      8 H                     0.162565
      9 H                     0.128523
     10 H                     0.155914
     11 H                     0.135431
     12 H                     0.231317
     13 C                    -0.403795
     14 H                     0.153790
     15 H                     0.127517
     16 H                     0.143270
     17 H                     0.120720
     18 H                     0.172485
     19 H                     0.166818
     20 H                     0.176889
     21 GH                   -0.007830
     22 GH                    0.006540
     23 GH                   -0.057317
     24 GH                    0.044155
     25 GH                   -0.004886
     26 GH                   -0.088631
     27 GH                   -0.000317
     28 GH                    0.005707
     29 GH                   -0.008390
     30 GH                    0.026336
     31 GH                   -0.042401
     32 GH                   -0.001371
     33 GH                    0.012006
     34 GH                   -0.001451
     35 GH                   -0.000116
     36 GH                    0.003075
     37 GH                   -0.000322
     38 GH                    0.002366
     39 GH                    0.002081
     40 GH                   -0.000115
  ----------------------------------------
  Sum of atomic charges =     0.000000

                    Cartesian Multipole Moments
 -----------------------------------------------------------------
    Charge (ESU x 10^10)
                 0.0000
    Dipole Moment (Debye)
         X      -0.0083      Y       0.4000      Z       1.6082
       Tot       1.6573
    Quadrupole Moments (Debye-Ang)
        XX     -49.8553     XY       1.3274     YY     -46.2368
        XZ       8.2152     YZ       3.3052     ZZ     -43.3125

 Total job time:  232.37s(wall), 922.95s(cpu)
        *  Thank you very much for using Q-Chem.  Have a nice day.  *
