 Q-Chem 5.0, Q-Chem, Inc., Pleasanton, CA (2017)
 Q-Chem 5.0.1 for Intel X86 EM64T Linux

User input:
--------------------------------------------------------------
$molecule
0  1
C        +0.20553000        +1.04146000        +0.58269000
C        +0.65000000        -0.38925000        +1.00740000
C        +1.32948000        +1.41743000        -0.40725000
C        +2.62919000        +1.72756000        +0.36622000
C        +3.06783000        +0.29650000        +0.79479000
C        +1.94651000        -0.57906000        +0.17708000
O        +1.63056000        +0.15702000        -1.03120000
H        +3.36767000        +2.18673000        -0.29348000
H        +2.46319000        +2.40269000        +1.20873000
H        +4.03298000        +0.02999000        +0.35944000
H        +3.13919000        +0.17160000        +1.87760000
H        +1.05575000        +2.14422000        -1.17046000
C        +2.32428000        -2.00466000        -0.15206000
H        +3.19961000        -2.02906000        -0.80581000
H        +1.50021000        -2.51513000        -0.65630000
H        +2.56254000        -2.55434000        +0.76296000
H        -0.76025000        +1.02051000        +0.07473000
H        +0.13481000        +1.74083000        +1.41846000
H        +0.82947000        -0.48542000        +2.08050000
H        -0.09122000        -1.13848000        +0.72072000
@C        +0.21830000        +2.04514000        +3.93567000
@C        +0.66277000        +0.61443000        +4.36038000
@C        +1.34225000        +2.42111000        +2.94573000
@C        +2.64196000        +2.73124000        +3.71920000
@C        +3.08060000        +1.30018000        +4.14777000
@C        +1.95928000        +0.42462000        +3.53006000
@O        +1.64333000        +1.16070000        +2.32178000
@H        +3.38044000        +3.19041000        +3.05950000
@H        +2.47596000        +3.40637000        +4.56171000
@H        +4.04575000        +1.03367000        +3.71242000
@H        +3.15196000        +1.17528000        +5.23058000
@H        +1.06852000        +3.14790000        +2.18252000
@C        +2.33705000        -1.00098000        +3.20092000
@H        +3.21238000        -1.02538000        +2.54717000
@H        +1.51298000        -1.51145000        +2.69668000
@H        +2.57531000        -1.55066000        +4.11594000
@H        -0.74748000        +2.02419000        +3.42771000
@H        +0.14758000        +2.74451000        +4.77144000
@H        +0.84224000        +0.51826000        +5.43348000
@H        -0.07845000        -0.13480000        +4.07370000
$end

$rem
JOBTYPE                   SP
METHOD                    B3LYP
DFT_D                     d3_op
BASIS                     6-311++G(d,p)
SYMMETRY                  False
THRESH                    12
SCF_CONVERGENCE           8
MAX_SUB_FILE_NUM          128
MEM_STATIC                400
MEM_TOTAL                 4000
$end
--------------------------------------------------------------

             Standard Nuclear Orientation (Angstroms)
    I     Atom           X                Y                Z
 ----------------------------------------------------------------
    1      C       0.2055300000     1.0414600000     0.5826900000
    2      C       0.6500000000    -0.3892500000     1.0074000000
    3      C       1.3294800000     1.4174300000    -0.4072500000
    4      C       2.6291900000     1.7275600000     0.3662200000
    5      C       3.0678300000     0.2965000000     0.7947900000
    6      C       1.9465100000    -0.5790600000     0.1770800000
    7      O       1.6305600000     0.1570200000    -1.0312000000
    8      H       3.3676700000     2.1867300000    -0.2934800000
    9      H       2.4631900000     2.4026900000     1.2087300000
   10      H       4.0329800000     0.0299900000     0.3594400000
   11      H       3.1391900000     0.1716000000     1.8776000000
   12      H       1.0557500000     2.1442200000    -1.1704600000
   13      C       2.3242800000    -2.0046600000    -0.1520600000
   14      H       3.1996100000    -2.0290600000    -0.8058100000
   15      H       1.5002100000    -2.5151300000    -0.6563000000
   16      H       2.5625400000    -2.5543400000     0.7629600000
   17      H      -0.7602500000     1.0205100000     0.0747300000
   18      H       0.1348100000     1.7408300000     1.4184600000
   19      H       0.8294700000    -0.4854200000     2.0805000000
   20      H      -0.0912200000    -1.1384800000     0.7207200000
   21      GH      0.2183000000     2.0451400000     3.9356700000
   22      GH      0.6627700000     0.6144300000     4.3603800000
   23      GH      1.3422500000     2.4211100000     2.9457300000
   24      GH      2.6419600000     2.7312400000     3.7192000000
   25      GH      3.0806000000     1.3001800000     4.1477700000
   26      GH      1.9592800000     0.4246200000     3.5300600000
   27      GH      1.6433300000     1.1607000000     2.3217800000
   28      GH      3.3804400000     3.1904100000     3.0595000000
   29      GH      2.4759600000     3.4063700000     4.5617100000
   30      GH      4.0457500000     1.0336700000     3.7124200000
   31      GH      3.1519600000     1.1752800000     5.2305800000
   32      GH      1.0685200000     3.1479000000     2.1825200000
   33      GH      2.3370500000    -1.0009800000     3.2009200000
   34      GH      3.2123800000    -1.0253800000     2.5471700000
   35      GH      1.5129800000    -1.5114500000     2.6966800000
   36      GH      2.5753100000    -1.5506600000     4.1159400000
   37      GH     -0.7474800000     2.0241900000     3.4277100000
   38      GH      0.1475800000     2.7445100000     4.7714400000
   39      GH      0.8422400000     0.5182600000     5.4334800000
   40      GH     -0.0784500000    -0.1348000000     4.0737000000
 ----------------------------------------------------------------

   13    -349.3041611000      3.00E-09 Convergence criterion met
 Total energy in the final basis set = -349.30416110

                    Orbital Energies (a.u.)
 --------------------------------------------------------------

 Alpha MOs
 -- Occupied --
-19.116 -10.224 -10.217 -10.168 -10.168 -10.168 -10.168 -10.161
 -1.045  -0.799  -0.773  -0.750  -0.679  -0.613  -0.573  -0.554
 -0.498  -0.481  -0.467  -0.434  -0.414  -0.405  -0.391  -0.371
 -0.362  -0.346  -0.344  -0.339  -0.319  -0.302  -0.262

          Ground-State Mulliken Net Atomic Charges

     Atom                 Charge (a.u.)
  ----------------------------------------
      1 C                    -0.254642
      2 C                    -0.064572
      3 C                    -0.140854
      4 C                    -0.264224
      5 C                    -0.051280
      6 C                    -0.644015
      7 O                     0.003089
      8 H                     0.217081
      9 H                     0.159265
     10 H                     0.229557
     11 H                     0.045134
     12 H                     0.240628
     13 C                    -0.501625
     14 H                     0.154900
     15 H                     0.154858
     16 H                     0.141009
     17 H                     0.217011
     18 H                     0.159394
     19 H                     0.046341
     20 H                     0.229832
     21 GH                   -0.014973
     22 GH                   -0.038104
     23 GH                   -0.139841
     24 GH                   -0.016534
     25 GH                   -0.036426
     26 GH                    0.078388
     27 GH                   -0.045011
     28 GH                   -0.000046
     29 GH                   -0.001372
     30 GH                    0.004740
     31 GH                    0.000197
     32 GH                   -0.000916
     33 GH                    0.092918
     34 GH                    0.021608
     35 GH                    0.021743
     36 GH                   -0.006771
     37 GH                   -0.000106
     38 GH                   -0.001293
     39 GH                    0.000116
     40 GH                    0.004797
  ----------------------------------------
  Sum of atomic charges =     0.000000

                    Cartesian Multipole Moments
 -----------------------------------------------------------------
    Charge (ESU x 10^10)
                 0.0000
    Dipole Moment (Debye)
         X       0.0420      Y       0.3614      Z       1.6036
       Tot       1.6444
    Quadrupole Moments (Debye-Ang)
        XX     -49.7718     XY       0.0268     YY     -48.0978
        XZ       2.7710     YZ      -0.5543     ZZ     -52.5657

 Total job time:  267.98s(wall), 1063.96s(cpu)
        *  Thank you very much for using Q-Chem.  Have a nice day.  *
