 Q-Chem 5.0, Q-Chem, Inc., Pleasanton, CA (2017)
 Q-Chem 5.0.1 for Intel X86 EM64T Linux

User input:
--------------------------------------------------------------
$molecule
0  1
--
0  1
C        +0.20186000        +1.01419000        +0.57588000
C        +0.65458000        -0.40740000        +1.00877000
C        +1.31047000        +1.40432000        -0.43622000
C        +2.61036000        +1.71622000        +0.34904000
C        +3.06420000        +0.29616000        +0.78527000
C        +1.94960000        -0.59295000        +0.17632000
O        +1.62620000        +0.12693000        -1.03574000
H        +3.34518000        +2.18171000        -0.31153000
H        +2.43386000        +2.39558000        +1.18603000
H        +4.02983000        +0.03650000        +0.34656000
H        +3.14253000        +0.17627000        +1.86830000
C        +0.91819000        +2.41036000        -1.49368000
C        +2.33867000        -2.01935000        -0.13734000
H        +3.21332000        -2.04461000        -0.79203000
H        +2.58239000        -2.55643000        +0.78377000
H        +1.51806000        -2.54232000        -0.63447000
H        +1.73500000        +2.55908000        -2.20400000
H        +0.68341000        +3.37378000        -1.03196000
H        +0.03753000        +2.06800000        -2.04235000
H        +0.83643000        -0.49892000        +2.08202000
H        -0.08220000        -1.16297000        +0.72684000
H        -0.76801000        +0.98583000        +0.07445000
H        +0.13288000        +1.72189000        +1.40479000
--
0  1
C        +0.21484000        +2.04164000        +3.92165000
C        +0.66756000        +0.62005000        +4.35454000
C        +1.32345000        +2.43177000        +2.90955000
C        +2.62334000        +2.74367000        +3.69481000
C        +3.07718000        +1.32361000        +4.13104000
C        +1.96258000        +0.43450000        +3.52209000
O        +1.63918000        +1.15438000        +2.31003000
H        +3.35816000        +3.20916000        +3.03424000
H        +2.44684000        +3.42303000        +4.53180000
H        +4.04281000        +1.06395000        +3.69233000
H        +3.15551000        +1.20372000        +5.21407000
C        +0.93117000        +3.43781000        +1.85209000
C        +2.35165000        -0.99190000        +3.20843000
H        +3.22630000        -1.01716000        +2.55374000
H        +2.59537000        -1.52898000        +4.12954000
H        +1.53104000        -1.51487000        +2.71130000
H        +1.74798000        +3.58653000        +1.14177000
H        +0.69639000        +4.40123000        +2.31381000
H        +0.05051000        +3.09545000        +1.30342000
H        +0.84941000        +0.52853000        +5.42779000
H        -0.06922000        -0.13552000        +4.07261000
H        -0.75503000        +2.01328000        +3.42022000
H        +0.14586000        +2.74934000        +4.75056000
$end

$rem
JOBTYPE                   SP
METHOD                    B3LYP
DFT_D                     d3_op
BASIS                     6-311++G(d,p)
SYMMETRY                  False
THRESH                    12
SCF_CONVERGENCE           8
MAX_SUB_FILE_NUM          128
MEM_STATIC                400
MEM_TOTAL                 4000
$end
--------------------------------------------------------------

             Standard Nuclear Orientation (Angstroms)
    I     Atom           X                Y                Z
 ----------------------------------------------------------------
    1      C       1.0101531625     0.7769076913    -1.2591392479
    2      C       1.0117144957    -0.7765591545    -1.2615056921
    3      C       1.8591898432     1.0918090389     0.0000421588
    4      C       1.0122173812     0.7768186742     1.2598229367
    5      C       1.0101327343    -0.7765106710     1.2586560019
    6      C       1.8572145306    -1.0928592123    -0.0007271350
    7      O       2.8059225518    -0.0011370513    -0.0009053879
    8      H       1.5044570239     1.1718585886     2.1512474695
    9      H       0.0134026777     1.2157852871     1.2058597950
   10      H       1.5021714478    -1.1741469777     2.1486640629
   11      H       0.0096523214    -1.2117695203     1.2034123651
   12      C       2.5764019591     2.4221580579     0.0000326504
   13      C       2.5741148686    -2.4234322388     0.0013577929
   14      H       3.2041946884    -2.5197259358     0.8890495360
   15      H       1.8502152867    -3.2433508089     0.0023224979
   16      H       3.2058028797    -2.5223442364    -0.8847704728
   17      H       3.2088340990     2.5174379112     0.8859231938
   18      H       1.8532190382     3.2428176671     0.0030939938
   19      H       3.2045953137     2.5203861867    -0.8885254615
   20      H       0.0118809014    -1.2134629807    -1.2089821196
   21      H       1.5056052206    -1.1728557309    -2.1515822582
   22      H       1.5013926878     1.1751791696    -2.1496153619
   23      H       0.0103542246     1.2125552271    -1.2016707630
   24      C      -2.4898466111     0.7775002470    -1.2588083956
   25      C      -2.4882852779    -0.7759665988    -1.2611748397
   26      C      -1.6408099304     1.0924015946     0.0003730111
   27      C      -2.4877823924     0.7774112299     1.2601537891
   28      C      -2.4898670393    -0.7759181153     1.2589868542
   29      C      -1.6427852430    -1.0922666566    -0.0003962827
   30      O      -0.6940772218    -0.0005444956    -0.0005745355
   31      H      -1.9955427497     1.1724511443     2.1515783218
   32      H      -3.4865970959     1.2163778428     1.2061906474
   33      H      -1.9978283258    -1.1735544219     2.1489949152
   34      H      -3.4903474522    -1.2111769646     1.2037432175
   35      C      -0.9235978145     2.4227506136     0.0003635027
   36      C      -0.9258849050    -2.4228396831     0.0016886453
   37      H      -0.2958050852    -2.5191333800     0.8893803883
   38      H      -1.6497844869    -3.2427582532     0.0026533503
   39      H      -0.2941968939    -2.5217516807    -0.8844396204
   40      H      -0.2911656746     2.5180304669     0.8862540462
   41      H      -1.6467807354     3.2434102228     0.0034248461
   42      H      -0.2954044599     2.5209787424    -0.8881946091
   43      H      -3.4881188722    -1.2128704250    -1.2086512673
   44      H      -1.9943945530    -1.1722631752    -2.1512514059
   45      H      -1.9986070858     1.1757717254    -2.1492845096
   46      H      -3.4896455490     1.2131477829    -1.2013399106
 ----------------------------------------------------------------

   13    -777.0806239852      6.94E-09 Convergence criterion met
 Total energy in the final basis set = -777.08062399

                    Orbital Energies (a.u.)
 --------------------------------------------------------------

 Alpha MOs
 -- Occupied --
-19.113 -19.096 -10.237 -10.237 -10.205 -10.205 -10.180 -10.180
-10.180 -10.180 -10.165 -10.165 -10.149 -10.149 -10.134 -10.134
-10.134 -10.134  -1.074  -1.025  -0.822  -0.820  -0.784  -0.772
 -0.767  -0.733  -0.730  -0.703  -0.672  -0.635  -0.634  -0.601
 -0.583  -0.578  -0.542  -0.533  -0.533  -0.497  -0.487  -0.468
 -0.458  -0.458  -0.456  -0.454  -0.436  -0.426  -0.419  -0.406
 -0.398  -0.395  -0.392  -0.390  -0.381  -0.378  -0.364  -0.361
 -0.361  -0.349  -0.347  -0.344  -0.318  -0.316  -0.310  -0.309
 -0.303  -0.293  -0.288  -0.277  -0.259  -0.232

          Ground-State Mulliken Net Atomic Charges

     Atom                 Charge (a.u.)
  ----------------------------------------
      1 C                    -0.005710
      2 C                    -0.009224
      3 C                    -0.726522
      4 C                    -0.010389
      5 C                    -0.005217
      6 C                    -0.724974
      7 O                     0.134964
      8 H                     0.216406
      9 H                    -0.053434
     10 H                     0.216852
     11 H                    -0.059689
     12 C                    -0.229980
     13 C                    -0.230251
     14 H                     0.150738
     15 H                     0.126916
     16 H                     0.150569
     17 H                     0.150813
     18 H                     0.127036
     19 H                     0.150495
     20 H                    -0.056272
     21 H                     0.216489
     22 H                     0.216665
     23 H                    -0.058563
     24 C                    -0.372249
     25 C                    -0.378708
     26 C                     0.279315
     27 C                    -0.377144
     28 C                    -0.374292
     29 C                     0.283603
     30 O                    -0.108157
     31 H                     0.178662
     32 H                     0.159499
     33 H                     0.179031
     34 H                     0.159546
     35 C                    -0.673449
     36 C                    -0.677200
     37 H                     0.248973
     38 H                     0.180547
     39 H                     0.248769
     40 H                     0.248805
     41 H                     0.180745
     42 H                     0.249047
     43 H                     0.159430
     44 H                     0.179165
     45 H                     0.178854
     46 H                     0.159494
  ----------------------------------------
  Sum of atomic charges =     0.000000

                    Cartesian Multipole Moments
 -----------------------------------------------------------------
    Charge (ESU x 10^10)
                 0.0000
    Dipole Moment (Debye)
         X      -4.5801      Y       0.0033      Z       0.0058
       Tot       4.5801
    Quadrupole Moments (Debye-Ang)
        XX    -120.4558     XY      -0.0013     YY    -110.8745
        XZ      -0.0007     YZ       0.0079     ZZ    -115.6524

 Total job time:  458.26s(wall), 1805.17s(cpu)
        *  Thank you very much for using Q-Chem.  Have a nice day.  *
