 Q-Chem 5.0, Q-Chem, Inc., Pleasanton, CA (2017)
 Q-Chem 5.0.1 for Intel X86 EM64T Linux

User input:
--------------------------------------------------------------
$molecule
0  1
--
0  1
C        +0.22270000        +1.04488000        +0.58595000
C        +0.62626000        -0.41353000        +0.99871000
C        +1.33008000        +1.39974000        -0.43491000
C        +2.63070000        +1.71700000        +0.32855000
C        +3.04336000        +0.29351000        +0.80300000
C        +1.94423000        -0.59299000        +0.15262000
O        +1.62840000        +0.13663000        -1.04376000
H        +3.37234000        +2.13782000        -0.35195000
H        +2.48236000        +2.42488000        +1.14651000
H        +4.02182000        +0.00994000        +0.41161000
H        +3.07359000        +0.18738000        +1.88928000
C        +0.90028000        +2.39077000        -1.49430000
C        +2.35450000        -2.01267000        -0.16812000
H        +3.26311000        -2.00678000        -0.77366000
H        +2.54990000        -2.57059000        +0.75079000
H        +1.57335000        -2.52896000        -0.72872000
H        +1.71845000        +2.58186000        -2.15686000
H        +0.59919000        +3.30478000        -1.02650000
H        +0.07925000        +1.98653000        -2.04874000
H        +0.81693000        -0.48905000        +2.04887000
H        -0.12524000        -1.15356000        +0.81843000
H        -0.74673000        +1.06811000        +0.13365000
H        +0.15552000        +1.72617000        +1.40828000
--
0  1
C        +2.84970000        +2.44900000        +2.42369000
C        +3.25326000        +0.99059000        +2.83645000
C        +3.95708000        +2.80386000        +1.40283000
C        +5.25770000        +3.12112000        +2.16629000
C        +5.67036000        +1.69763000        +2.64074000
C        +4.57123000        +0.81113000        +1.99036000
O        +4.25540000        +1.54075000        +0.79398000
H        +5.99934000        +3.54194000        +1.48579000
H        +5.10936000        +3.82900000        +2.98425000
H        +6.64882000        +1.41406000        +2.24935000
H        +5.70059000        +1.59150000        +3.72702000
C        +3.52728000        +3.79489000        +0.34344000
C        +4.98150000        -0.60855000        +1.66962000
H        +5.89011000        -0.60266000        +1.06408000
H        +5.17690000        -1.16647000        +2.58853000
H        +4.20035000        -1.12484000        +1.10902000
H        +4.34545000        +3.98598000        -0.31912000
H        +3.22619000        +4.70890000        +0.81124000
H        +2.70625000        +3.39065000        -0.21100000
H        +3.44393000        +0.91507000        +3.88661000
H        +2.50176000        +0.25056000        +2.65617000
H        +1.88027000        +2.47223000        +1.97139000
H        +2.78252000        +3.13029000        +3.24602000
$end

$rem
JOBTYPE                   SP
METHOD                    B3LYP
DFT_D                     d3_op
BASIS                     6-311++G(d,p)
SYMMETRY                  False
THRESH                    12
SCF_CONVERGENCE           8
MAX_SUB_FILE_NUM          128
MEM_STATIC                400
MEM_TOTAL                 4000
$end
--------------------------------------------------------------

             Standard Nuclear Orientation (Angstroms)
    I     Atom           X                Y                Z
 ----------------------------------------------------------------
    1      C       2.2813476364    -0.8059794775     1.2862678367
    2      C       2.3473053451     0.7609605524     1.3095001943
    3      C       1.7984370479    -1.0782251694    -0.1583950549
    4      C       0.2905093807    -0.7726395300    -0.2473277886
    5      C       0.3047052007     0.7818648776    -0.1764096398
    6      C       1.8285692271     1.0879218503    -0.1427836107
    7      O       2.3777224124     0.0005183856    -0.9039692134
    8      H      -0.1076478930    -1.1216592674    -1.2011913114
    9      H      -0.2868172935    -1.2417774161     0.5518974404
   10      H      -0.1386520249     1.2265897794    -1.0689544178
   11      H      -0.2188817351     1.1837186076     0.6933903191
   12      C       2.2623647008    -2.4014721320    -0.7266945197
   13      C       2.2403762891     2.4217325440    -0.7242050585
   14      H       1.8421146369     2.5225138687    -1.7358948809
   15      H       1.8538620165     3.2405949064    -0.1127129302
   16      H       3.3271125236     2.5084077008    -0.7743530430
   17      H       1.8881554956    -2.5126173488    -1.7229462460
   18      H       1.8950898080    -3.2000795313    -0.1165783970
   19      H       3.3319331946    -2.4275215211    -0.7424621619
   20      H       1.7062102807     1.1728357636     2.0606661372
   21      H       3.3105808930     1.1647066601     1.5418508533
   22      H       3.2432546738    -1.2395459420     1.4642128284
   23      H       1.6500680764    -1.2253930816     2.0415652558
   24      C      -1.2169338184    -0.8065480877     1.3957978398
   25      C      -1.1509761097     0.7603919423     1.4190301974
   26      C      -1.6998444069    -1.0787937796    -0.0488650518
   27      C      -3.2077720741    -0.7732081401    -0.1377977855
   28      C      -3.1935762541     0.7812962674    -0.0668796367
   29      C      -1.6697122277     1.0873532401    -0.0332536076
   30      O      -1.1205590424    -0.0000502245    -0.7944392103
   31      H      -3.6059293479    -1.1222278776    -1.0916613083
   32      H      -3.7850987483    -1.2423460262     0.6614274436
   33      H      -3.6369334798     1.2260211693    -0.9594244147
   34      H      -3.7171631899     1.1831499975     0.8029203222
   35      C      -1.2359167540    -2.4020407422    -0.6171645166
   36      C      -1.2579051657     2.4211639338    -0.6146750554
   37      H      -1.6561668179     2.5219452586    -1.6263648778
   38      H      -1.6444194383     3.2400262963    -0.0031829271
   39      H      -0.1711689312     2.5078390907    -0.6648230398
   40      H      -1.6101259592    -2.5131859589    -1.6134162429
   41      H      -1.6031916468    -3.2006481414    -0.0070483938
   42      H      -0.1663482603    -2.4280901312    -0.6329321588
   43      H      -1.7920711741     1.1722671534     2.1701961404
   44      H      -0.1877005619     1.1641380499     1.6513808564
   45      H      -0.2550267810    -1.2401145522     1.5737428315
   46      H      -1.8482133784    -1.2259616917     2.1510952589
 ----------------------------------------------------------------

   15    -776.5054817664      2.95E-09 Convergence criterion met
 Total energy in the final basis set = -776.50548177

                    Orbital Energies (a.u.)
 --------------------------------------------------------------

 Alpha MOs
 -- Occupied --
-19.142 -19.084 -10.249 -10.247 -10.203 -10.200 -10.184 -10.181
-10.181 -10.180 -10.168 -10.158 -10.149 -10.147 -10.144 -10.135
-10.099 -10.088  -1.142  -1.016  -0.885  -0.878  -0.827  -0.769
 -0.764  -0.759  -0.726  -0.710  -0.700  -0.675  -0.638  -0.629
 -0.601  -0.585  -0.574  -0.565  -0.544  -0.507  -0.496  -0.488
 -0.481  -0.472  -0.462  -0.442  -0.440  -0.431  -0.428  -0.410
 -0.410  -0.397  -0.395  -0.393  -0.388  -0.377  -0.375  -0.360
 -0.357  -0.354  -0.347  -0.339  -0.337  -0.332  -0.324  -0.319
 -0.274  -0.265  -0.242  -0.231  -0.205  -0.167

          Ground-State Mulliken Net Atomic Charges

     Atom                 Charge (a.u.)
  ----------------------------------------
      1 C                    -0.235210
      2 C                    -0.294695
      3 C                    -0.144904
      4 C                    -0.417128
      5 C                    -0.519678
      6 C                    -0.087967
      7 O                     0.132228
      8 H                     0.083814
      9 H                     0.209723
     10 H                     0.112749
     11 H                     0.246870
     12 C                    -0.305746
     13 C                    -0.419130
     14 H                     0.155744
     15 H                     0.148263
     16 H                     0.165239
     17 H                     0.148607
     18 H                     0.143298
     19 H                     0.161210
     20 H                     0.109040
     21 H                     0.174256
     22 H                     0.165618
     23 H                     0.122233
     24 C                    -0.373518
     25 C                    -0.340653
     26 C                    -0.229631
     27 C                    -0.359901
     28 C                    -0.407432
     29 C                    -0.110371
     30 O                     0.460771
     31 H                     0.158206
     32 H                     0.137855
     33 H                     0.166963
     34 H                     0.132596
     35 C                    -0.369528
     36 C                    -0.404234
     37 H                     0.180185
     38 H                     0.153302
     39 H                     0.193387
     40 H                     0.181770
     41 H                     0.148381
     42 H                     0.185278
     43 H                     0.194442
     44 H                     0.125886
     45 H                     0.113797
     46 H                     0.208015
  ----------------------------------------
  Sum of atomic charges =    -0.000000

                    Cartesian Multipole Moments
 -----------------------------------------------------------------
    Charge (ESU x 10^10)
                -0.0000
    Dipole Moment (Debye)
         X      -4.0993      Y       0.0714      Z       2.3847
       Tot       4.7430
    Quadrupole Moments (Debye-Ang)
        XX    -120.6921     XY       0.2444     YY    -112.0728
        XZ       3.9752     YZ      -0.3214     ZZ    -116.6726

 Total job time:  514.35s(wall), 2041.70s(cpu)
        *  Thank you very much for using Q-Chem.  Have a nice day.  *
