 Q-Chem 5.0, Q-Chem, Inc., Pleasanton, CA (2017)
 Q-Chem 5.0.1 for Intel X86 EM64T Linux

User input:
--------------------------------------------------------------
$molecule
0  1
C        +0.21484000        +2.04164000        +3.92165000
C        +0.66756000        +0.62005000        +4.35454000
C        +1.32345000        +2.43177000        +2.90955000
C        +2.62334000        +2.74367000        +3.69481000
C        +3.07718000        +1.32361000        +4.13104000
C        +1.96258000        +0.43450000        +3.52209000
O        +1.63918000        +1.15438000        +2.31003000
H        +3.35816000        +3.20916000        +3.03424000
H        +2.44684000        +3.42303000        +4.53180000
H        +4.04281000        +1.06395000        +3.69233000
H        +3.15551000        +1.20372000        +5.21407000
C        +0.93117000        +3.43781000        +1.85209000
C        +2.35165000        -0.99190000        +3.20843000
H        +3.22630000        -1.01716000        +2.55374000
H        +2.59537000        -1.52898000        +4.12954000
H        +1.53104000        -1.51487000        +2.71130000
H        +1.74798000        +3.58653000        +1.14177000
H        +0.69639000        +4.40123000        +2.31381000
H        +0.05051000        +3.09545000        +1.30342000
H        +0.84941000        +0.52853000        +5.42779000
H        -0.06922000        -0.13552000        +4.07261000
H        -0.75503000        +2.01328000        +3.42022000
H        +0.14586000        +2.74934000        +4.75056000
@C        +0.20186000        +1.01419000        +0.57588000
@C        +0.65458000        -0.40740000        +1.00877000
@C        +1.31047000        +1.40432000        -0.43622000
@C        +2.61036000        +1.71622000        +0.34904000
@C        +3.06420000        +0.29616000        +0.78527000
@C        +1.94960000        -0.59295000        +0.17632000
@O        +1.62620000        +0.12693000        -1.03574000
@H        +3.34518000        +2.18171000        -0.31153000
@H        +2.43386000        +2.39558000        +1.18603000
@H        +4.02983000        +0.03650000        +0.34656000
@H        +3.14253000        +0.17627000        +1.86830000
@C        +0.91819000        +2.41036000        -1.49368000
@C        +2.33867000        -2.01935000        -0.13734000
@H        +3.21332000        -2.04461000        -0.79203000
@H        +2.58239000        -2.55643000        +0.78377000
@H        +1.51806000        -2.54232000        -0.63447000
@H        +1.73500000        +2.55908000        -2.20400000
@H        +0.68341000        +3.37378000        -1.03196000
@H        +0.03753000        +2.06800000        -2.04235000
@H        +0.83643000        -0.49892000        +2.08202000
@H        -0.08220000        -1.16297000        +0.72684000
@H        -0.76801000        +0.98583000        +0.07445000
@H        +0.13288000        +1.72189000        +1.40479000
$end

$rem
JOBTYPE                   SP
METHOD                    B3LYP
DFT_D                     d3_op
BASIS                     6-311++G(d,p)
SYMMETRY                  False
THRESH                    12
SCF_CONVERGENCE           8
MAX_SUB_FILE_NUM          128
MEM_STATIC                400
MEM_TOTAL                 4000
$end
--------------------------------------------------------------

             Standard Nuclear Orientation (Angstroms)
    I     Atom           X                Y                Z
 ----------------------------------------------------------------
    1      C       0.2148400000     2.0416400000     3.9216500000
    2      C       0.6675600000     0.6200500000     4.3545400000
    3      C       1.3234500000     2.4317700000     2.9095500000
    4      C       2.6233400000     2.7436700000     3.6948100000
    5      C       3.0771800000     1.3236100000     4.1310400000
    6      C       1.9625800000     0.4345000000     3.5220900000
    7      O       1.6391800000     1.1543800000     2.3100300000
    8      H       3.3581600000     3.2091600000     3.0342400000
    9      H       2.4468400000     3.4230300000     4.5318000000
   10      H       4.0428100000     1.0639500000     3.6923300000
   11      H       3.1555100000     1.2037200000     5.2140700000
   12      C       0.9311700000     3.4378100000     1.8520900000
   13      C       2.3516500000    -0.9919000000     3.2084300000
   14      H       3.2263000000    -1.0171600000     2.5537400000
   15      H       2.5953700000    -1.5289800000     4.1295400000
   16      H       1.5310400000    -1.5148700000     2.7113000000
   17      H       1.7479800000     3.5865300000     1.1417700000
   18      H       0.6963900000     4.4012300000     2.3138100000
   19      H       0.0505100000     3.0954500000     1.3034200000
   20      H       0.8494100000     0.5285300000     5.4277900000
   21      H      -0.0692200000    -0.1355200000     4.0726100000
   22      H      -0.7550300000     2.0132800000     3.4202200000
   23      H       0.1458600000     2.7493400000     4.7505600000
   24      GH      0.2018600000     1.0141900000     0.5758800000
   25      GH      0.6545800000    -0.4074000000     1.0087700000
   26      GH      1.3104700000     1.4043200000    -0.4362200000
   27      GH      2.6103600000     1.7162200000     0.3490400000
   28      GH      3.0642000000     0.2961600000     0.7852700000
   29      GH      1.9496000000    -0.5929500000     0.1763200000
   30      GH      1.6262000000     0.1269300000    -1.0357400000
   31      GH      3.3451800000     2.1817100000    -0.3115300000
   32      GH      2.4338600000     2.3955800000     1.1860300000
   33      GH      4.0298300000     0.0365000000     0.3465600000
   34      GH      3.1425300000     0.1762700000     1.8683000000
   35      GH      0.9181900000     2.4103600000    -1.4936800000
   36      GH      2.3386700000    -2.0193500000    -0.1373400000
   37      GH      3.2133200000    -2.0446100000    -0.7920300000
   38      GH      2.5823900000    -2.5564300000     0.7837700000
   39      GH      1.5180600000    -2.5423200000    -0.6344700000
   40      GH      1.7350000000     2.5590800000    -2.2040000000
   41      GH      0.6834100000     3.3737800000    -1.0319600000
   42      GH      0.0375300000     2.0680000000    -2.0423500000
   43      GH      0.8364300000    -0.4989200000     2.0820200000
   44      GH     -0.0822000000    -1.1629700000     0.7268400000
   45      GH     -0.7680100000     0.9858300000     0.0744500000
   46      GH      0.1328800000     1.7218900000     1.4047900000
 ----------------------------------------------------------------

   12    -388.6402638849      3.20E-09 Convergence criterion met
 Total energy in the final basis set = -388.64026388

                    Orbital Energies (a.u.)
 --------------------------------------------------------------

 Alpha MOs
 -- Occupied --
-19.113 -10.223 -10.223 -10.166 -10.166 -10.166 -10.166 -10.160
-10.160  -1.043  -0.799  -0.788  -0.749  -0.716  -0.650  -0.613
 -0.557  -0.553  -0.484  -0.475  -0.466  -0.440  -0.417  -0.408
 -0.404  -0.402  -0.383  -0.359  -0.344  -0.343  -0.341  -0.335
 -0.317  -0.298  -0.260

          Ground-State Mulliken Net Atomic Charges

     Atom                 Charge (a.u.)
  ----------------------------------------
      1 C                    -0.369466
      2 C                    -0.379983
      3 C                     0.325776
      4 C                    -0.379607
      5 C                    -0.372423
      6 C                     0.331854
      7 O                    -0.091839
      8 H                     0.162191
      9 H                     0.151505
     10 H                     0.162007
     11 H                     0.151357
     12 C                    -0.640319
     13 C                    -0.647099
     14 H                     0.196370
     15 H                     0.189438
     16 H                     0.195991
     17 H                     0.196378
     18 H                     0.189693
     19 H                     0.195892
     20 H                     0.151391
     21 H                     0.162568
     22 H                     0.161947
     23 H                     0.151476
     24 GH                    0.093246
     25 GH                    0.090395
     26 GH                   -0.148938
     27 GH                    0.089508
     28 GH                    0.096131
     29 GH                   -0.149895
     30 GH                   -0.013996
     31 GH                    0.012335
     32 GH                   -0.091142
     33 GH                    0.013060
     34 GH                   -0.095682
     35 GH                    0.036486
     36 GH                    0.037180
     37 GH                   -0.000028
     38 GH                   -0.000891
     39 GH                   -0.000002
     40 GH                   -0.000018
     41 GH                   -0.000967
     42 GH                   -0.000005
     43 GH                   -0.091870
     44 GH                    0.012342
     45 GH                    0.012707
     46 GH                   -0.095054
  ----------------------------------------
  Sum of atomic charges =     0.000000

                    Cartesian Multipole Moments
 -----------------------------------------------------------------
    Charge (ESU x 10^10)
                 0.0000
    Dipole Moment (Debye)
         X       0.0081      Y       0.4461      Z       1.4482
       Tot       1.5154
    Quadrupole Moments (Debye-Ang)
        XX     -56.6286     XY       0.1954     YY     -54.0301
        XZ       2.5635     YZ       2.3693     ZZ     -49.3733

 Total job time:  394.83s(wall), 1563.89s(cpu)
        *  Thank you very much for using Q-Chem.  Have a nice day.  *
