 Q-Chem 5.0, Q-Chem, Inc., Pleasanton, CA (2017)
 Q-Chem 5.0.1 for Intel X86 EM64T Linux

User input:
--------------------------------------------------------------
$molecule
0  1
--
0  1
C        +0.22270000        +1.04488000        +0.58595000
C        +0.62626000        -0.41353000        +0.99871000
C        +1.33008000        +1.39974000        -0.43491000
C        +2.63070000        +1.71700000        +0.32855000
C        +3.04336000        +0.29351000        +0.80300000
C        +1.94423000        -0.59299000        +0.15262000
O        +1.62840000        +0.13663000        -1.04376000
H        +3.37234000        +2.13782000        -0.35195000
H        +2.48236000        +2.42488000        +1.14651000
H        +4.02182000        +0.00994000        +0.41161000
H        +3.07359000        +0.18738000        +1.88928000
C        +0.90028000        +2.39077000        -1.49430000
C        +2.35450000        -2.01267000        -0.16812000
H        +3.26311000        -2.00678000        -0.77366000
H        +2.54990000        -2.57059000        +0.75079000
H        +1.57335000        -2.52896000        -0.72872000
H        +1.71845000        +2.58186000        -2.15686000
H        +0.59919000        +3.30478000        -1.02650000
H        +0.07925000        +1.98653000        -2.04874000
H        +0.81693000        -0.48905000        +2.04887000
H        -0.12524000        -1.15356000        +0.81843000
H        -0.74673000        +1.06811000        +0.13365000
H        +0.15552000        +1.72617000        +1.40828000
--
0  1
C        +3.90050000        +3.01065000        +3.15879000
C        +4.30406000        +1.55224000        +3.57155000
C        +5.00788000        +3.36551000        +2.13793000
C        +6.30850000        +3.68277000        +2.90139000
C        +6.72116000        +2.25928000        +3.37584000
C        +5.62203000        +1.37278000        +2.72546000
O        +5.30620000        +2.10240000        +1.52908000
H        +7.05014000        +4.10359000        +2.22089000
H        +6.16016000        +4.39065000        +3.71935000
H        +7.69962000        +1.97571000        +2.98445000
H        +6.75139000        +2.15315000        +4.46212000
C        +4.57808000        +4.35654000        +1.07854000
C        +6.03230000        -0.04690000        +2.40472000
H        +6.94091000        -0.04101000        +1.79918000
H        +6.22770000        -0.60482000        +3.32363000
H        +5.25115000        -0.56319000        +1.84412000
H        +5.39625000        +4.54763000        +0.41598000
H        +4.27699000        +5.27055000        +1.54634000
H        +3.75705000        +3.95230000        +0.52410000
H        +4.49473000        +1.47672000        +4.62171000
H        +3.55256000        +0.81221000        +3.39127000
H        +2.93107000        +3.03388000        +2.70649000
H        +3.83332000        +3.69194000        +3.98112000
$end

$rem
JOBTYPE                   SP
METHOD                    B3LYP
DFT_D                     d3_op
BASIS                     6-311++G(d,p)
SYMMETRY                  False
THRESH                    12
SCF_CONVERGENCE           8
MAX_SUB_FILE_NUM          128
MEM_STATIC                400
MEM_TOTAL                 4000
$end
--------------------------------------------------------------

             Standard Nuclear Orientation (Angstroms)
    I     Atom           X                Y                Z
 ----------------------------------------------------------------
    1      C       2.9613108002    -0.8061782904     1.3096309489
    2      C       3.0270686234     0.7607548264     1.3338742106
    3      C       2.5004407136    -1.0783684420    -0.1422239020
    4      C       0.9940747421    -0.7726266738    -0.2541211526
    5      C       1.0073488067     0.7818759815    -0.1829864075
    6      C       2.5305551482     1.0877753921    -0.1261432616
    7      O       3.0911306156     0.0003181776    -0.8788789321
    8      H       0.6104618217    -1.1216015458    -1.2139426350
    9      H       0.4045887479    -1.2417080400     0.5362119077
   10      H       0.5776888034     1.2266501744    -1.0821806287
   11      H       0.4706108731     1.1837803991     0.6787368068
   12      C       2.9728371604    -2.4016611030    -0.7033957148
   13      C       2.9513113047     2.4215458091    -0.7012151305
   14      H       2.5685215623     2.5223722339    -1.7188553228
   15      H       2.5556090463     3.2404457062    -0.0956788758
   16      H       4.0386944324     2.5081088919    -0.7347980568
   17      H       2.6138399612    -2.5127637638    -1.7052342748
   18      H       2.5962260311    -3.2002329411    -0.0989510235
   19      H       4.0425190447    -2.4278209263    -0.7028644957
   20      H       2.3746448824     1.1726933286     2.0751867476
   21      H       3.9867336577     1.1644005080     1.5808776821
   22      H       3.9203500281    -1.2398448222     1.5022096247
   23      H       2.3185526519    -1.2255296291     2.0552194835
   24      C      -1.9380540645    -0.8064697188     1.3883331482
   25      C      -1.8722962413     0.7604633979     1.4125764099
   26      C      -2.3989241511    -1.0786598704    -0.0635217028
   27      C      -3.9052901226    -0.7729181022    -0.1754189534
   28      C      -3.8920160580     0.7815845531    -0.1042842082
   29      C      -2.3688097165     1.0874839637    -0.0474410623
   30      O      -1.8082342491     0.0000267492    -0.8001767328
   31      H      -4.2889030430    -1.1218929742    -1.1352404357
   32      H      -4.4947761168    -1.2419994684     0.6149141069
   33      H      -4.3216760613     1.2263587460    -1.0034784294
   34      H      -4.4287539916     1.1834889707     0.7574390061
   35      C      -1.9265277043    -2.4019525314    -0.6246935155
   36      C      -1.9480535600     2.4212543807    -0.6225129312
   37      H      -2.3308433024     2.5220808055    -1.6401531235
   38      H      -2.3437558184     3.2401542778    -0.0169766766
   39      H      -0.8606704323     2.5078174635    -0.6560958576
   40      H      -2.2855249035    -2.5130551922    -1.6265320755
   41      H      -2.3031388336    -3.2005243696    -0.0202488243
   42      H      -0.8568458200    -2.4281123547    -0.6241622964
   43      H      -2.5247199823     1.1724019001     2.1538889468
   44      H      -0.9126312070     1.1641090796     1.6595798813
   45      H      -0.9790148366    -1.2401362506     1.5809118239
   46      H      -2.5808122128    -1.2258210575     2.1339216828
 ----------------------------------------------------------------

   13    -777.2565377494      6.06E-09 Convergence criterion met
 Total energy in the final basis set = -777.25653775

                    Orbital Energies (a.u.)
 --------------------------------------------------------------

 Alpha MOs
 -- Occupied --
-19.117 -19.108 -10.228 -10.224 -10.217 -10.213 -10.169 -10.168
-10.166 -10.165 -10.161 -10.158 -10.156 -10.155 -10.154 -10.154
-10.152 -10.147  -1.053  -1.042  -0.803  -0.793  -0.793  -0.783
 -0.754  -0.741  -0.720  -0.712  -0.656  -0.647  -0.623  -0.608
 -0.566  -0.564  -0.557  -0.547  -0.494  -0.485  -0.474  -0.469
 -0.468  -0.455  -0.451  -0.438  -0.424  -0.417  -0.414  -0.412
 -0.408  -0.403  -0.399  -0.393  -0.389  -0.375  -0.363  -0.355
 -0.351  -0.350  -0.346  -0.341  -0.339  -0.333  -0.331  -0.324
 -0.317  -0.309  -0.299  -0.291  -0.266  -0.251

          Ground-State Mulliken Net Atomic Charges

     Atom                 Charge (a.u.)
  ----------------------------------------
      1 C                    -0.423378
      2 C                    -0.457488
      3 C                    -0.145308
      4 C                    -0.146056
      5 C                    -0.118660
      6 C                    -0.195640
      7 O                     0.056192
      8 H                     0.210909
      9 H                    -0.070090
     10 H                     0.187083
     11 H                    -0.029170
     12 C                    -0.274815
     13 C                    -0.289190
     14 H                     0.152266
     15 H                     0.152824
     16 H                     0.161721
     17 H                     0.141384
     18 H                     0.148888
     19 H                     0.160356
     20 H                     0.125622
     21 H                     0.172891
     22 H                     0.159641
     23 H                     0.138432
     24 C                    -0.325151
     25 C                    -0.346221
     26 C                     0.057933
     27 C                    -0.557298
     28 C                    -0.521452
     29 C                     0.116186
     30 O                     0.112713
     31 H                     0.157210
     32 H                     0.138084
     33 H                     0.160774
     34 H                     0.135101
     35 C                    -0.210145
     36 C                    -0.292900
     37 H                     0.158030
     38 H                     0.150055
     39 H                     0.132313
     40 H                     0.155372
     41 H                     0.147204
     42 H                     0.123206
     43 H                     0.173622
     44 H                     0.175285
     45 H                     0.155230
     46 H                     0.186435
  ----------------------------------------
  Sum of atomic charges =     0.000000

                    Cartesian Multipole Moments
 -----------------------------------------------------------------
    Charge (ESU x 10^10)
                 0.0000
    Dipole Moment (Debye)
         X      -2.2533      Y       0.0248      Z       2.2879
       Tot       3.2114
    Quadrupole Moments (Debye-Ang)
        XX    -116.7180     XY       0.1825     YY    -110.0906
        XZ       2.5806     YZ      -0.2195     ZZ    -116.3098

 Total job time:  294.30s(wall), 1166.27s(cpu)
        *  Thank you very much for using Q-Chem.  Have a nice day.  *
