 Q-Chem 5.0, Q-Chem, Inc., Pleasanton, CA (2017)
 Q-Chem 5.0.1 for Intel X86 EM64T Linux

User input:
--------------------------------------------------------------
$molecule
0  1
C        +3.90050000        +3.01065000        +3.15879000
C        +4.30406000        +1.55224000        +3.57155000
C        +5.00788000        +3.36551000        +2.13793000
C        +6.30850000        +3.68277000        +2.90139000
C        +6.72116000        +2.25928000        +3.37584000
C        +5.62203000        +1.37278000        +2.72546000
O        +5.30620000        +2.10240000        +1.52908000
H        +7.05014000        +4.10359000        +2.22089000
H        +6.16016000        +4.39065000        +3.71935000
H        +7.69962000        +1.97571000        +2.98445000
H        +6.75139000        +2.15315000        +4.46212000
C        +4.57808000        +4.35654000        +1.07854000
C        +6.03230000        -0.04690000        +2.40472000
H        +6.94091000        -0.04101000        +1.79918000
H        +6.22770000        -0.60482000        +3.32363000
H        +5.25115000        -0.56319000        +1.84412000
H        +5.39625000        +4.54763000        +0.41598000
H        +4.27699000        +5.27055000        +1.54634000
H        +3.75705000        +3.95230000        +0.52410000
H        +4.49473000        +1.47672000        +4.62171000
H        +3.55256000        +0.81221000        +3.39127000
H        +2.93107000        +3.03388000        +2.70649000
H        +3.83332000        +3.69194000        +3.98112000
@C        +0.22270000        +1.04488000        +0.58595000
@C        +0.62626000        -0.41353000        +0.99871000
@C        +1.33008000        +1.39974000        -0.43491000
@C        +2.63070000        +1.71700000        +0.32855000
@C        +3.04336000        +0.29351000        +0.80300000
@C        +1.94423000        -0.59299000        +0.15262000
@O        +1.62840000        +0.13663000        -1.04376000
@H        +3.37234000        +2.13782000        -0.35195000
@H        +2.48236000        +2.42488000        +1.14651000
@H        +4.02182000        +0.00994000        +0.41161000
@H        +3.07359000        +0.18738000        +1.88928000
@C        +0.90028000        +2.39077000        -1.49430000
@C        +2.35450000        -2.01267000        -0.16812000
@H        +3.26311000        -2.00678000        -0.77366000
@H        +2.54990000        -2.57059000        +0.75079000
@H        +1.57335000        -2.52896000        -0.72872000
@H        +1.71845000        +2.58186000        -2.15686000
@H        +0.59919000        +3.30478000        -1.02650000
@H        +0.07925000        +1.98653000        -2.04874000
@H        +0.81693000        -0.48905000        +2.04887000
@H        -0.12524000        -1.15356000        +0.81843000
@H        -0.74673000        +1.06811000        +0.13365000
@H        +0.15552000        +1.72617000        +1.40828000
$end

$rem
JOBTYPE                   SP
METHOD                    B3LYP
DFT_D                     d3_op
BASIS                     6-311++G(d,p)
SYMMETRY                  False
THRESH                    12
SCF_CONVERGENCE           8
MAX_SUB_FILE_NUM          128
MEM_STATIC                400
MEM_TOTAL                 4000
$end
--------------------------------------------------------------

             Standard Nuclear Orientation (Angstroms)
    I     Atom           X                Y                Z
 ----------------------------------------------------------------
    1      C       3.9005000000     3.0106500000     3.1587900000
    2      C       4.3040600000     1.5522400000     3.5715500000
    3      C       5.0078800000     3.3655100000     2.1379300000
    4      C       6.3085000000     3.6827700000     2.9013900000
    5      C       6.7211600000     2.2592800000     3.3758400000
    6      C       5.6220300000     1.3727800000     2.7254600000
    7      O       5.3062000000     2.1024000000     1.5290800000
    8      H       7.0501400000     4.1035900000     2.2208900000
    9      H       6.1601600000     4.3906500000     3.7193500000
   10      H       7.6996200000     1.9757100000     2.9844500000
   11      H       6.7513900000     2.1531500000     4.4621200000
   12      C       4.5780800000     4.3565400000     1.0785400000
   13      C       6.0323000000    -0.0469000000     2.4047200000
   14      H       6.9409100000    -0.0410100000     1.7991800000
   15      H       6.2277000000    -0.6048200000     3.3236300000
   16      H       5.2511500000    -0.5631900000     1.8441200000
   17      H       5.3962500000     4.5476300000     0.4159800000
   18      H       4.2769900000     5.2705500000     1.5463400000
   19      H       3.7570500000     3.9523000000     0.5241000000
   20      H       4.4947300000     1.4767200000     4.6217100000
   21      H       3.5525600000     0.8122100000     3.3912700000
   22      H       2.9310700000     3.0338800000     2.7064900000
   23      H       3.8333200000     3.6919400000     3.9811200000
   24      GH      0.2227000000     1.0448800000     0.5859500000
   25      GH      0.6262600000    -0.4135300000     0.9987100000
   26      GH      1.3300800000     1.3997400000    -0.4349100000
   27      GH      2.6307000000     1.7170000000     0.3285500000
   28      GH      3.0433600000     0.2935100000     0.8030000000
   29      GH      1.9442300000    -0.5929900000     0.1526200000
   30      GH      1.6284000000     0.1366300000    -1.0437600000
   31      GH      3.3723400000     2.1378200000    -0.3519500000
   32      GH      2.4823600000     2.4248800000     1.1465100000
   33      GH      4.0218200000     0.0099400000     0.4116100000
   34      GH      3.0735900000     0.1873800000     1.8892800000
   35      GH      0.9002800000     2.3907700000    -1.4943000000
   36      GH      2.3545000000    -2.0126700000    -0.1681200000
   37      GH      3.2631100000    -2.0067800000    -0.7736600000
   38      GH      2.5499000000    -2.5705900000     0.7507900000
   39      GH      1.5733500000    -2.5289600000    -0.7287200000
   40      GH      1.7184500000     2.5818600000    -2.1568600000
   41      GH      0.5991900000     3.3047800000    -1.0265000000
   42      GH      0.0792500000     1.9865300000    -2.0487400000
   43      GH      0.8169300000    -0.4890500000     2.0488700000
   44      GH     -0.1252400000    -1.1535600000     0.8184300000
   45      GH     -0.7467300000     1.0681100000     0.1336500000
   46      GH      0.1555200000     1.7261700000     1.4082800000
 ----------------------------------------------------------------

   12    -388.6335988842      6.97E-09 Convergence criterion met
 Total energy in the final basis set = -388.63359888

                    Orbital Energies (a.u.)
 --------------------------------------------------------------

 Alpha MOs
 -- Occupied --
-19.115 -10.224 -10.221 -10.166 -10.165 -10.162 -10.161 -10.160
-10.151  -1.049  -0.799  -0.789  -0.748  -0.717  -0.652  -0.616
 -0.562  -0.555  -0.486  -0.474  -0.464  -0.444  -0.420  -0.410
 -0.406  -0.402  -0.384  -0.360  -0.346  -0.343  -0.340  -0.333
 -0.316  -0.299  -0.261

          Ground-State Mulliken Net Atomic Charges

     Atom                 Charge (a.u.)
  ----------------------------------------
      1 C                    -0.359639
      2 C                    -0.351933
      3 C                     0.149097
      4 C                    -0.540288
      5 C                    -0.515197
      6 C                     0.175487
      7 O                     0.077912
      8 H                     0.155726
      9 H                     0.138013
     10 H                     0.159072
     11 H                     0.134844
     12 C                    -0.262353
     13 C                    -0.330452
     14 H                     0.154259
     15 H                     0.151022
     16 H                     0.127669
     17 H                     0.150998
     18 H                     0.148893
     19 H                     0.112073
     20 H                     0.173910
     21 H                     0.161236
     22 H                     0.150182
     23 H                     0.184827
     24 GH                   -0.006044
     25 GH                    0.001578
     26 GH                   -0.072385
     27 GH                   -0.011480
     28 GH                   -0.001134
     29 GH                   -0.075269
     30 GH                    0.000535
     31 GH                    0.019326
     32 GH                   -0.036529
     33 GH                    0.028810
     34 GH                   -0.023862
     35 GH                    0.017741
     36 GH                    0.006594
     37 GH                   -0.001181
     38 GH                    0.002105
     39 GH                    0.000117
     40 GH                   -0.000844
     41 GH                    0.002332
     42 GH                    0.000093
     43 GH                    0.002045
     44 GH                   -0.000219
     45 GH                   -0.000597
     46 GH                    0.002907
  ----------------------------------------
  Sum of atomic charges =     0.000000

                    Cartesian Multipole Moments
 -----------------------------------------------------------------
    Charge (ESU x 10^10)
                 0.0000
    Dipole Moment (Debye)
         X      -0.0343      Y       0.4287      Z       1.5009
       Tot       1.5613
    Quadrupole Moments (Debye-Ang)
        XX     -56.7262     XY       1.6539     YY     -53.1308
        XZ       7.8082     YZ       3.5679     ZZ     -51.3635

 Total job time:  302.55s(wall), 1196.22s(cpu)
        *  Thank you very much for using Q-Chem.  Have a nice day.  *
