 Q-Chem 5.0, Q-Chem, Inc., Pleasanton, CA (2017)
 Q-Chem 5.0.1 for Intel X86 EM64T Linux

User input:
--------------------------------------------------------------
$molecule
0  1
C        +0.22270000        +1.04488000        +0.58595000
C        +0.62626000        -0.41353000        +0.99871000
C        +1.33008000        +1.39974000        -0.43491000
C        +2.63070000        +1.71700000        +0.32855000
C        +3.04336000        +0.29351000        +0.80300000
C        +1.94423000        -0.59299000        +0.15262000
O        +1.62840000        +0.13663000        -1.04376000
H        +3.37234000        +2.13782000        -0.35195000
H        +2.48236000        +2.42488000        +1.14651000
H        +4.02182000        +0.00994000        +0.41161000
H        +3.07359000        +0.18738000        +1.88928000
C        +0.90028000        +2.39077000        -1.49430000
C        +2.35450000        -2.01267000        -0.16812000
H        +3.26311000        -2.00678000        -0.77366000
H        +2.54990000        -2.57059000        +0.75079000
H        +1.57335000        -2.52896000        -0.72872000
H        +1.71845000        +2.58186000        -2.15686000
H        +0.59919000        +3.30478000        -1.02650000
H        +0.07925000        +1.98653000        -2.04874000
H        +0.81693000        -0.48905000        +2.04887000
H        -0.12524000        -1.15356000        +0.81843000
H        -0.74673000        +1.06811000        +0.13365000
H        +0.15552000        +1.72617000        +1.40828000
@C        +2.84970000        +2.44900000        +2.42369000
@C        +3.25326000        +0.99059000        +2.83645000
@C        +3.95708000        +2.80386000        +1.40283000
@C        +5.25770000        +3.12112000        +2.16629000
@C        +5.67036000        +1.69763000        +2.64074000
@C        +4.57123000        +0.81113000        +1.99036000
@O        +4.25540000        +1.54075000        +0.79398000
@H        +5.99934000        +3.54194000        +1.48579000
@H        +5.10936000        +3.82900000        +2.98425000
@H        +6.64882000        +1.41406000        +2.24935000
@H        +5.70059000        +1.59150000        +3.72702000
@C        +3.52728000        +3.79489000        +0.34344000
@C        +4.98150000        -0.60855000        +1.66962000
@H        +5.89011000        -0.60266000        +1.06408000
@H        +5.17690000        -1.16647000        +2.58853000
@H        +4.20035000        -1.12484000        +1.10902000
@H        +4.34545000        +3.98598000        -0.31912000
@H        +3.22619000        +4.70890000        +0.81124000
@H        +2.70625000        +3.39065000        -0.21100000
@H        +3.44393000        +0.91507000        +3.88661000
@H        +2.50176000        +0.25056000        +2.65617000
@H        +1.88027000        +2.47223000        +1.97139000
@H        +2.78252000        +3.13029000        +3.24602000
$end

$rem
JOBTYPE                   SP
METHOD                    B3LYP
DFT_D                     d3_op
BASIS                     6-311++G(d,p)
SYMMETRY                  False
THRESH                    12
SCF_CONVERGENCE           8
MAX_SUB_FILE_NUM          128
MEM_STATIC                400
MEM_TOTAL                 4000
$end
--------------------------------------------------------------

             Standard Nuclear Orientation (Angstroms)
    I     Atom           X                Y                Z
 ----------------------------------------------------------------
    1      C       0.2227000000     1.0448800000     0.5859500000
    2      C       0.6262600000    -0.4135300000     0.9987100000
    3      C       1.3300800000     1.3997400000    -0.4349100000
    4      C       2.6307000000     1.7170000000     0.3285500000
    5      C       3.0433600000     0.2935100000     0.8030000000
    6      C       1.9442300000    -0.5929900000     0.1526200000
    7      O       1.6284000000     0.1366300000    -1.0437600000
    8      H       3.3723400000     2.1378200000    -0.3519500000
    9      H       2.4823600000     2.4248800000     1.1465100000
   10      H       4.0218200000     0.0099400000     0.4116100000
   11      H       3.0735900000     0.1873800000     1.8892800000
   12      C       0.9002800000     2.3907700000    -1.4943000000
   13      C       2.3545000000    -2.0126700000    -0.1681200000
   14      H       3.2631100000    -2.0067800000    -0.7736600000
   15      H       2.5499000000    -2.5705900000     0.7507900000
   16      H       1.5733500000    -2.5289600000    -0.7287200000
   17      H       1.7184500000     2.5818600000    -2.1568600000
   18      H       0.5991900000     3.3047800000    -1.0265000000
   19      H       0.0792500000     1.9865300000    -2.0487400000
   20      H       0.8169300000    -0.4890500000     2.0488700000
   21      H      -0.1252400000    -1.1535600000     0.8184300000
   22      H      -0.7467300000     1.0681100000     0.1336500000
   23      H       0.1555200000     1.7261700000     1.4082800000
   24      GH      2.8497000000     2.4490000000     2.4236900000
   25      GH      3.2532600000     0.9905900000     2.8364500000
   26      GH      3.9570800000     2.8038600000     1.4028300000
   27      GH      5.2577000000     3.1211200000     2.1662900000
   28      GH      5.6703600000     1.6976300000     2.6407400000
   29      GH      4.5712300000     0.8111300000     1.9903600000
   30      GH      4.2554000000     1.5407500000     0.7939800000
   31      GH      5.9993400000     3.5419400000     1.4857900000
   32      GH      5.1093600000     3.8290000000     2.9842500000
   33      GH      6.6488200000     1.4140600000     2.2493500000
   34      GH      5.7005900000     1.5915000000     3.7270200000
   35      GH      3.5272800000     3.7948900000     0.3434400000
   36      GH      4.9815000000    -0.6085500000     1.6696200000
   37      GH      5.8901100000    -0.6026600000     1.0640800000
   38      GH      5.1769000000    -1.1664700000     2.5885300000
   39      GH      4.2003500000    -1.1248400000     1.1090200000
   40      GH      4.3454500000     3.9859800000    -0.3191200000
   41      GH      3.2261900000     4.7089000000     0.8112400000
   42      GH      2.7062500000     3.3906500000    -0.2110000000
   43      GH      3.4439300000     0.9150700000     3.8866100000
   44      GH      2.5017600000     0.2505600000     2.6561700000
   45      GH      1.8802700000     2.4722300000     1.9713900000
   46      GH      2.7825200000     3.1302900000     3.2460200000
 ----------------------------------------------------------------

   12    -388.6342653039      7.08E-09 Convergence criterion met
 Total energy in the final basis set = -388.63426530

                    Orbital Energies (a.u.)
 --------------------------------------------------------------

 Alpha MOs
 -- Occupied --
-19.115 -10.224 -10.221 -10.166 -10.166 -10.162 -10.161 -10.160
-10.151  -1.049  -0.799  -0.788  -0.748  -0.717  -0.652  -0.616
 -0.562  -0.555  -0.486  -0.474  -0.464  -0.444  -0.420  -0.410
 -0.406  -0.402  -0.383  -0.360  -0.346  -0.343  -0.340  -0.333
 -0.316  -0.299  -0.261

          Ground-State Mulliken Net Atomic Charges

     Atom                 Charge (a.u.)
  ----------------------------------------
      1 C                    -0.237105
      2 C                    -0.308411
      3 C                    -0.393333
      4 C                    -0.572502
      5 C                    -0.463355
      6 C                    -0.330666
      7 O                     0.123012
      8 H                     0.239116
      9 H                     0.207516
     10 H                     0.236813
     11 H                     0.156448
     12 C                    -0.256229
     13 C                    -0.369111
     14 H                     0.157661
     15 H                     0.166037
     16 H                     0.173182
     17 H                     0.150787
     18 H                     0.160558
     19 H                     0.169700
     20 H                     0.134694
     21 H                     0.181613
     22 H                     0.170661
     23 H                     0.143387
     24 GH                   -0.010290
     25 GH                   -0.032434
     26 GH                    0.090488
     27 GH                    0.007221
     28 GH                    0.020892
     29 GH                    0.096346
     30 GH                   -0.019069
     31 GH                    0.000276
     32 GH                   -0.000212
     33 GH                    0.001040
     34 GH                   -0.000190
     35 GH                    0.053462
     36 GH                    0.067117
     37 GH                    0.000376
     38 GH                    0.001175
     39 GH                    0.038228
     40 GH                   -0.000653
     41 GH                    0.002390
     42 GH                    0.038174
     43 GH                    0.007593
     44 GH                   -0.000747
     45 GH                   -0.007649
     46 GH                    0.005992
  ----------------------------------------
  Sum of atomic charges =     0.000000

                    Cartesian Multipole Moments
 -----------------------------------------------------------------
    Charge (ESU x 10^10)
                 0.0000
    Dipole Moment (Debye)
         X      -0.0242      Y       0.4287      Z       1.4964
       Tot       1.5568
    Quadrupole Moments (Debye-Ang)
        XX     -56.4329     XY       0.1599     YY     -54.8019
        XZ       2.4024     YZ      -0.4753     ZZ     -59.0760

 Total job time:  403.11s(wall), 1598.37s(cpu)
        *  Thank you very much for using Q-Chem.  Have a nice day.  *
