 Q-Chem 5.0, Q-Chem, Inc., Pleasanton, CA (2017)
 Q-Chem 5.0.1 for Intel X86 EM64T Linux

User input:
--------------------------------------------------------------
$molecule
0  1
C        +5.47670000        +3.85313000        +4.26143000
C        +5.88026000        +2.39472000        +4.67419000
C        +6.58408000        +4.20799000        +3.24057000
C        +7.88470000        +4.52525000        +4.00403000
C        +8.29736000        +3.10176000        +4.47848000
C        +7.19823000        +2.21526000        +3.82810000
O        +6.88240000        +2.94488000        +2.63172000
H        +8.62634000        +4.94607000        +3.32353000
H        +7.73636000        +5.23313000        +4.82199000
H        +9.27582000        +2.81819000        +4.08709000
H        +8.32759000        +2.99563000        +5.56476000
C        +6.15428000        +5.19902000        +2.18118000
C        +7.60850000        +0.79558000        +3.50736000
H        +8.51711000        +0.80147000        +2.90182000
H        +7.80390000        +0.23766000        +4.42627000
H        +6.82735000        +0.27929000        +2.94676000
H        +6.97245000        +5.39011000        +1.51862000
H        +5.85319000        +6.11303000        +2.64898000
H        +5.33325000        +4.79478000        +1.62674000
H        +6.07093000        +2.31920000        +5.72435000
H        +5.12876000        +1.65469000        +4.49391000
H        +4.50727000        +3.87636000        +3.80913000
H        +5.40952000        +4.53442000        +5.08376000
@C        +0.22270000        +1.04488000        +0.58595000
@C        +0.62626000        -0.41353000        +0.99871000
@C        +1.33008000        +1.39974000        -0.43491000
@C        +2.63070000        +1.71700000        +0.32855000
@C        +3.04336000        +0.29351000        +0.80300000
@C        +1.94423000        -0.59299000        +0.15262000
@O        +1.62840000        +0.13663000        -1.04376000
@H        +3.37234000        +2.13782000        -0.35195000
@H        +2.48236000        +2.42488000        +1.14651000
@H        +4.02182000        +0.00994000        +0.41161000
@H        +3.07359000        +0.18738000        +1.88928000
@C        +0.90028000        +2.39077000        -1.49430000
@C        +2.35450000        -2.01267000        -0.16812000
@H        +3.26311000        -2.00678000        -0.77366000
@H        +2.54990000        -2.57059000        +0.75079000
@H        +1.57335000        -2.52896000        -0.72872000
@H        +1.71845000        +2.58186000        -2.15686000
@H        +0.59919000        +3.30478000        -1.02650000
@H        +0.07925000        +1.98653000        -2.04874000
@H        +0.81693000        -0.48905000        +2.04887000
@H        -0.12524000        -1.15356000        +0.81843000
@H        -0.74673000        +1.06811000        +0.13365000
@H        +0.15552000        +1.72617000        +1.40828000
$end

$rem
JOBTYPE                   SP
METHOD                    B3LYP
DFT_D                     d3_op
BASIS                     6-311++G(d,p)
SYMMETRY                  False
THRESH                    12
SCF_CONVERGENCE           8
MAX_SUB_FILE_NUM          128
MEM_STATIC                400
MEM_TOTAL                 4000
$end
--------------------------------------------------------------

             Standard Nuclear Orientation (Angstroms)
    I     Atom           X                Y                Z
 ----------------------------------------------------------------
    1      C       5.4767000000     3.8531300000     4.2614300000
    2      C       5.8802600000     2.3947200000     4.6741900000
    3      C       6.5840800000     4.2079900000     3.2405700000
    4      C       7.8847000000     4.5252500000     4.0040300000
    5      C       8.2973600000     3.1017600000     4.4784800000
    6      C       7.1982300000     2.2152600000     3.8281000000
    7      O       6.8824000000     2.9448800000     2.6317200000
    8      H       8.6263400000     4.9460700000     3.3235300000
    9      H       7.7363600000     5.2331300000     4.8219900000
   10      H       9.2758200000     2.8181900000     4.0870900000
   11      H       8.3275900000     2.9956300000     5.5647600000
   12      C       6.1542800000     5.1990200000     2.1811800000
   13      C       7.6085000000     0.7955800000     3.5073600000
   14      H       8.5171100000     0.8014700000     2.9018200000
   15      H       7.8039000000     0.2376600000     4.4262700000
   16      H       6.8273500000     0.2792900000     2.9467600000
   17      H       6.9724500000     5.3901100000     1.5186200000
   18      H       5.8531900000     6.1130300000     2.6489800000
   19      H       5.3332500000     4.7947800000     1.6267400000
   20      H       6.0709300000     2.3192000000     5.7243500000
   21      H       5.1287600000     1.6546900000     4.4939100000
   22      H       4.5072700000     3.8763600000     3.8091300000
   23      H       5.4095200000     4.5344200000     5.0837600000
   24      GH      0.2227000000     1.0448800000     0.5859500000
   25      GH      0.6262600000    -0.4135300000     0.9987100000
   26      GH      1.3300800000     1.3997400000    -0.4349100000
   27      GH      2.6307000000     1.7170000000     0.3285500000
   28      GH      3.0433600000     0.2935100000     0.8030000000
   29      GH      1.9442300000    -0.5929900000     0.1526200000
   30      GH      1.6284000000     0.1366300000    -1.0437600000
   31      GH      3.3723400000     2.1378200000    -0.3519500000
   32      GH      2.4823600000     2.4248800000     1.1465100000
   33      GH      4.0218200000     0.0099400000     0.4116100000
   34      GH      3.0735900000     0.1873800000     1.8892800000
   35      GH      0.9002800000     2.3907700000    -1.4943000000
   36      GH      2.3545000000    -2.0126700000    -0.1681200000
   37      GH      3.2631100000    -2.0067800000    -0.7736600000
   38      GH      2.5499000000    -2.5705900000     0.7507900000
   39      GH      1.5733500000    -2.5289600000    -0.7287200000
   40      GH      1.7184500000     2.5818600000    -2.1568600000
   41      GH      0.5991900000     3.3047800000    -1.0265000000
   42      GH      0.0792500000     1.9865300000    -2.0487400000
   43      GH      0.8169300000    -0.4890500000     2.0488700000
   44      GH     -0.1252400000    -1.1535600000     0.8184300000
   45      GH     -0.7467300000     1.0681100000     0.1336500000
   46      GH      0.1555200000     1.7261700000     1.4082800000
 ----------------------------------------------------------------

   12    -388.6329505317      6.92E-09 Convergence criterion met
 Total energy in the final basis set = -388.63295053

                    Orbital Energies (a.u.)
 --------------------------------------------------------------

 Alpha MOs
 -- Occupied --
-19.115 -10.224 -10.221 -10.166 -10.166 -10.162 -10.161 -10.160
-10.151  -1.049  -0.799  -0.789  -0.749  -0.717  -0.652  -0.616
 -0.562  -0.556  -0.486  -0.474  -0.464  -0.444  -0.420  -0.410
 -0.407  -0.402  -0.384  -0.360  -0.346  -0.343  -0.340  -0.333
 -0.316  -0.299  -0.261

          Ground-State Mulliken Net Atomic Charges

     Atom                 Charge (a.u.)
  ----------------------------------------
      1 C                    -0.425935
      2 C                    -0.542922
      3 C                     0.031779
      4 C                    -0.591718
      5 C                    -0.467997
      6 C                     0.052101
      7 O                    -0.002466
      8 H                     0.152928
      9 H                     0.140417
     10 H                     0.152647
     11 H                     0.141671
     12 C                    -0.016389
     13 C                    -0.065906
     14 H                     0.153964
     15 H                     0.145361
     16 H                     0.143176
     17 H                     0.149106
     18 H                     0.141685
     19 H                     0.139187
     20 H                     0.140959
     21 H                     0.149917
     22 H                     0.127060
     23 H                     0.154711
     24 GH                   -0.000376
     25 GH                    0.000020
     26 GH                    0.000907
     27 GH                   -0.004421
     28 GH                   -0.008810
     29 GH                   -0.001292
     30 GH                    0.000026
     31 GH                    0.003313
     32 GH                    0.002893
     33 GH                    0.004892
     34 GH                   -0.001072
     35 GH                    0.000409
     36 GH                    0.000153
     37 GH                   -0.000136
     38 GH                    0.000144
     39 GH                   -0.000006
     40 GH                   -0.000094
     41 GH                    0.000105
     42 GH                    0.000006
     43 GH                   -0.000051
     44 GH                    0.000007
     45 GH                   -0.000001
     46 GH                    0.000048
  ----------------------------------------
  Sum of atomic charges =     0.000000

                    Cartesian Multipole Moments
 -----------------------------------------------------------------
    Charge (ESU x 10^10)
                 0.0000
    Dipole Moment (Debye)
         X      -0.0330      Y       0.4306      Z       1.5091
       Tot       1.5697
    Quadrupole Moments (Debye-Ang)
        XX     -56.8096     XY       2.3130     YY     -52.3745
        XZ      10.1979     YZ       5.3235     ZZ     -48.0177

 Total job time:  181.83s(wall), 719.83s(cpu)
        *  Thank you very much for using Q-Chem.  Have a nice day.  *
