 Q-Chem 5.0, Q-Chem, Inc., Pleasanton, CA (2017)
 Q-Chem 5.0.1 for Intel X86 EM64T Linux

User input:
--------------------------------------------------------------
$molecule
0  1
--
0  1
C        +0.22270000        +1.04488000        +0.58595000
C        +0.62626000        -0.41353000        +0.99871000
C        +1.33008000        +1.39974000        -0.43491000
C        +2.63070000        +1.71700000        +0.32855000
C        +3.04336000        +0.29351000        +0.80300000
C        +1.94423000        -0.59299000        +0.15262000
O        +1.62840000        +0.13663000        -1.04376000
H        +3.37234000        +2.13782000        -0.35195000
H        +2.48236000        +2.42488000        +1.14651000
H        +4.02182000        +0.00994000        +0.41161000
H        +3.07359000        +0.18738000        +1.88928000
C        +0.90028000        +2.39077000        -1.49430000
C        +2.35450000        -2.01267000        -0.16812000
H        +3.26311000        -2.00678000        -0.77366000
H        +2.54990000        -2.57059000        +0.75079000
H        +1.57335000        -2.52896000        -0.72872000
H        +1.71845000        +2.58186000        -2.15686000
H        +0.59919000        +3.30478000        -1.02650000
H        +0.07925000        +1.98653000        -2.04874000
H        +0.81693000        -0.48905000        +2.04887000
H        -0.12524000        -1.15356000        +0.81843000
H        -0.74673000        +1.06811000        +0.13365000
H        +0.15552000        +1.72617000        +1.40828000
--
0  1
C        +5.47670000        +3.85313000        +4.26143000
C        +5.88026000        +2.39472000        +4.67419000
C        +6.58408000        +4.20799000        +3.24057000
C        +7.88470000        +4.52525000        +4.00403000
C        +8.29736000        +3.10176000        +4.47848000
C        +7.19823000        +2.21526000        +3.82810000
O        +6.88240000        +2.94488000        +2.63172000
H        +8.62634000        +4.94607000        +3.32353000
H        +7.73636000        +5.23313000        +4.82199000
H        +9.27582000        +2.81819000        +4.08709000
H        +8.32759000        +2.99563000        +5.56476000
C        +6.15428000        +5.19902000        +2.18118000
C        +7.60850000        +0.79558000        +3.50736000
H        +8.51711000        +0.80147000        +2.90182000
H        +7.80390000        +0.23766000        +4.42627000
H        +6.82735000        +0.27929000        +2.94676000
H        +6.97245000        +5.39011000        +1.51862000
H        +5.85319000        +6.11303000        +2.64898000
H        +5.33325000        +4.79478000        +1.62674000
H        +6.07093000        +2.31920000        +5.72435000
H        +5.12876000        +1.65469000        +4.49391000
H        +4.50727000        +3.87636000        +3.80913000
H        +5.40952000        +4.53442000        +5.08376000
$end

$rem
JOBTYPE                   SP
METHOD                    B3LYP
DFT_D                     d3_op
BASIS                     6-311++G(d,p)
SYMMETRY                  False
THRESH                    12
SCF_CONVERGENCE           8
MAX_SUB_FILE_NUM          128
MEM_STATIC                400
MEM_TOTAL                 4000
$end
--------------------------------------------------------------

             Standard Nuclear Orientation (Angstroms)
    I     Atom           X                Y                Z
 ----------------------------------------------------------------
    1      C       4.0004521254    -0.8062564827     1.3254892129
    2      C       4.0660652641     0.7606742554     1.3502722222
    3      C       3.5514474210    -1.0784275549    -0.1300824639
    4      C       2.0460565925    -0.7726321547    -0.2542802512
    5      C       2.0588042442     0.7818698949    -0.1830360700
    6      C       3.5815062780     1.0877151796    -0.1137516586
    7      O       4.1481733081     0.0002395036    -0.8618854493
    8      H       1.6702845201    -1.1215916140    -1.2172040578
    9      H       1.4501177062    -1.2416941039     0.5312101327
   10      H       1.6365195202     1.2266610188    -1.0857090543
   11      H       1.5150593735     1.1837917237     0.6742748581
   12      C       4.0283652001    -2.4017359109    -0.6873796018
   13      C       4.0069932196     2.4214717574    -0.6853644440
   14      H       3.6325325411     2.5223136743    -1.7060973297
   15      H       3.6063867943     3.2403845464    -0.0830789548
   16      H       5.0946174620     2.5079963407    -0.7100636398
   17      H       3.6775596811    -2.5128239530    -1.6921174907
   18      H       3.6468008486    -3.2002955312    -0.0860332068
   19      H       5.0980061285    -2.4279336702    -0.6781106301
   20      H       3.4076223907     1.1726344983     2.0862315184
   21      H       5.0236949098     1.1642854381     1.6051074711
   22      H       4.9578708808    -1.2399573882     1.5258945502
   23      H       3.3516101264    -1.2255864310     2.0658015120
   24      C      -2.9993253436    -0.8064328964     1.3807399627
   25      C      -2.9337122050     0.7604978416     1.4055229720
   26      C      -3.4483300481    -1.0786039687    -0.0748317141
   27      C      -4.9537208766    -0.7728085684    -0.1990295014
   28      C      -4.9409732248     0.7816934812    -0.1277853202
   29      C      -3.4182711911     1.0875387658    -0.0585009088
   30      O      -2.8516041609     0.0000630898    -0.8066346995
   31      H      -5.3294929490    -1.1217680277    -1.1619533081
   32      H      -5.5496597628    -1.2418705177     0.5864608825
   33      H      -5.3632579489     1.2264846050    -1.0304583045
   34      H      -5.4847180955     1.1836153099     0.7295256078
   35      C      -2.9714122690    -2.4019123247    -0.6321288520
   36      C      -2.9927842495     2.4212953436    -0.6301136942
   37      H      -3.3672449280     2.5221372606    -1.6508465799
   38      H      -3.3933906748     3.2402081326    -0.0278282050
   39      H      -1.9051600070     2.5078199269    -0.6548128900
   40      H      -3.3222177880    -2.5130003668    -1.6368667409
   41      H      -3.3529766205    -3.2004719449    -0.0307824570
   42      H      -1.9017713406    -2.4281100840    -0.6228598803
   43      H      -3.5921550783     1.1724580845     2.1414822682
   44      H      -1.9760825593     1.1641090243     1.6603582208
   45      H      -2.0419065882    -1.2401338020     1.5811452999
   46      H      -3.6481673426    -1.2257628448     2.1210522617
 ----------------------------------------------------------------

   13    -777.2668429107      2.85E-09 Convergence criterion met
 Total energy in the final basis set = -777.26684291

                    Orbital Energies (a.u.)
 --------------------------------------------------------------

 Alpha MOs
 -- Occupied --
-19.116 -19.112 -10.226 -10.222 -10.222 -10.218 -10.167 -10.167
-10.164 -10.163 -10.163 -10.162 -10.161 -10.160 -10.159 -10.158
-10.153 -10.149  -1.050  -1.046  -0.801  -0.797  -0.790  -0.786
 -0.750  -0.746  -0.719  -0.715  -0.654  -0.650  -0.618  -0.613
 -0.564  -0.560  -0.557  -0.553  -0.488  -0.483  -0.476  -0.472
 -0.466  -0.462  -0.445  -0.441  -0.421  -0.418  -0.412  -0.408
 -0.408  -0.404  -0.403  -0.399  -0.385  -0.381  -0.361  -0.358
 -0.348  -0.345  -0.344  -0.342  -0.341  -0.338  -0.335  -0.331
 -0.318  -0.314  -0.301  -0.297  -0.263  -0.259

          Ground-State Mulliken Net Atomic Charges

     Atom                 Charge (a.u.)
  ----------------------------------------
      1 C                    -0.429324
      2 C                    -0.480626
      3 C                     0.036805
      4 C                    -0.313090
      5 C                    -0.290524
      6 C                     0.088542
      7 O                     0.007066
      8 H                     0.160827
      9 H                     0.089477
     10 H                     0.141628
     11 H                     0.092896
     12 C                    -0.291707
     13 C                    -0.319632
     14 H                     0.152126
     15 H                     0.143579
     16 H                     0.152256
     17 H                     0.143847
     18 H                     0.140847
     19 H                     0.149812
     20 H                     0.135855
     21 H                     0.173443
     22 H                     0.163085
     23 H                     0.142621
     24 C                    -0.423566
     25 C                    -0.547550
     26 C                     0.030372
     27 C                    -0.594460
     28 C                    -0.469172
     29 C                     0.053953
     30 O                    -0.003805
     31 H                     0.153677
     32 H                     0.140650
     33 H                     0.153056
     34 H                     0.142131
     35 C                    -0.018573
     36 C                    -0.062892
     37 H                     0.154553
     38 H                     0.145371
     39 H                     0.147185
     40 H                     0.149850
     41 H                     0.141784
     42 H                     0.142668
     43 H                     0.141462
     44 H                     0.150271
     45 H                     0.127829
     46 H                     0.155397
  ----------------------------------------
  Sum of atomic charges =    -0.000000

                    Cartesian Multipole Moments
 -----------------------------------------------------------------
    Charge (ESU x 10^10)
                -0.0000
    Dipole Moment (Debye)
         X      -1.9917      Y       0.0152      Z       2.4192
       Tot       3.1336
    Quadrupole Moments (Debye-Ang)
        XX    -115.7837     XY       0.2080     YY    -109.5258
        XZ       2.6992     YZ      -0.2263     ZZ    -116.2187

 Total job time:  205.71s(wall), 815.10s(cpu)
        *  Thank you very much for using Q-Chem.  Have a nice day.  *
