 Q-Chem 5.0, Q-Chem, Inc., Pleasanton, CA (2017)
 Q-Chem 5.0.1 for Intel X86 EM64T Linux

User input:
--------------------------------------------------------------
$molecule
0  1
--
0  1
C        -0.55335000        -0.66344000        -0.04955000
C        -0.58369000        +0.72363000        +0.07143000
C        -1.74416000        -1.38805000        -0.12104000
C        -2.96100000        -0.71253000        -0.06974000
C        -2.98560000        +0.67733000        +0.05133000
C        -1.80096000        +1.41593000        +0.12202000
H        -3.93869000        +1.19496000        +0.09042000
H        -3.89285000        -1.26490000        -0.12448000
C        -1.82561000        +2.92062000        +0.24749000
H        -1.30124000        +3.39464000        -0.58804000
H        -1.33421000        +3.24931000        +1.16844000
H        -2.84892000        +3.30103000        +0.25949000
H        -1.72216000        -2.46788000        -0.21620000
H        +0.39889000        -1.18111000        -0.08841000
H        +0.34820000        +1.27792000        +0.12648000
--
0  1
C        -0.57652000        -0.96781000        +3.43711000
C        -0.60686000        +0.41926000        +3.55809000
C        -1.76733000        -1.69242000        +3.36562000
C        -2.98417000        -1.01690000        +3.41692000
C        -3.00877000        +0.37296000        +3.53799000
C        -1.82413000        +1.11156000        +3.60868000
H        -3.96186000        +0.89059000        +3.57708000
H        -3.91602000        -1.56927000        +3.36218000
C        -1.84878000        +2.61625000        +3.73415000
H        -1.32441000        +3.09027000        +2.89862000
H        -1.35738000        +2.94494000        +4.65510000
H        -2.87209000        +2.99666000        +3.74615000
H        -1.74533000        -2.77225000        +3.27046000
H        +0.37572000        -1.48548000        +3.39825000
H        +0.32503000        +0.97355000        +3.61314000
$end

$rem
JOBTYPE                   SP
METHOD                    B3LYP
DFT_D                     d3_op
BASIS                     6-311++G(d,p)
SYMMETRY                  False
THRESH                    12
SCF_CONVERGENCE           8
MAX_SUB_FILE_NUM          128
MEM_STATIC                400
MEM_TOTAL                 4000
$end
--------------------------------------------------------------

             Standard Nuclear Orientation (Angstroms)
    I     Atom           X                Y                Z
 ----------------------------------------------------------------
    1      C       1.7422063497    -1.2041990135     1.2062372277
    2      C       1.7491944613     0.1884375759     1.2003757433
    3      C       1.7389504603    -1.9112289367     0.0027851035
    4      C       1.7421103653    -1.2125291324    -1.2019833989
    5      C       1.7493030073     0.1827924022    -1.2020579120
    6      C       1.7546027731     0.9037860775    -0.0045442384
    7      H       1.7518084147     0.7185280766    -2.1458960354
    8      H       1.7397136093    -1.7510958536    -2.1434682100
    9      C       1.7679814703     2.4138390253    -0.0026882232
   10      H       2.6469867615     2.7997580364     0.5228452705
   11      H       0.8844087715     2.8170699999     0.5016569420
   12      H       1.7843758339     2.8117037660    -1.0192776177
   13      H       1.7344729361    -2.9954538150     0.0057210126
   14      H       1.7394627056    -1.7399384060     2.1492266878
   15      H       1.7514594943     0.7289436579     2.1419355787
   16      C      -1.7577449243    -1.1863951516     1.2061776501
   17      C      -1.7507568127     0.2062414378     1.2003161657
   18      C      -1.7610008137    -1.8934250747     0.0027255259
   19      C      -1.7578409087    -1.1947252705    -1.2020429766
   20      C      -1.7506482667     0.2005962641    -1.2021174896
   21      C      -1.7453485009     0.9215899394    -0.0046038160
   22      H      -1.7481428593     0.7363319385    -2.1459556130
   23      H      -1.7602376647    -1.7332919917    -2.1435277876
   24      C      -1.7319698037     2.4316428872    -0.0027478008
   25      H      -0.8529645125     2.8175618984     0.5227856929
   26      H      -2.6155425025     2.8348738618     0.5015973644
   27      H      -1.7155754401     2.8295076279    -1.0193371953
   28      H      -1.7654783379    -2.9776499530     0.0056614350
   29      H      -1.7604885684    -1.7221345441     2.1491671102
   30      H      -1.7484917797     0.7467475199     2.1418760011
 ----------------------------------------------------------------

   13    -543.3010474992      6.44E-09 Convergence criterion met
 Total energy in the final basis set = -543.30104750

                    Orbital Energies (a.u.)
 --------------------------------------------------------------

 Alpha MOs
 -- Occupied --
-10.179 -10.179 -10.170 -10.170 -10.169 -10.169 -10.167 -10.167
-10.167 -10.167 -10.167 -10.167 -10.167 -10.167  -0.856  -0.852
 -0.773  -0.768  -0.744  -0.740  -0.689  -0.682  -0.605  -0.601
 -0.584  -0.580  -0.512  -0.508  -0.461  -0.458  -0.455  -0.451
 -0.442  -0.420  -0.417  -0.409  -0.407  -0.402  -0.389  -0.382
 -0.369  -0.343  -0.340  -0.340  -0.338  -0.336  -0.264  -0.256
 -0.236  -0.228

          Ground-State Mulliken Net Atomic Charges

     Atom                 Charge (a.u.)
  ----------------------------------------
      1 C                    -0.173129
      2 C                    -0.124542
      3 C                    -0.371155
      4 C                    -0.269468
      5 C                    -0.194701
      6 C                     0.538235
      7 H                     0.166898
      8 H                     0.171404
      9 C                    -0.688796
     10 H                     0.160182
     11 H                     0.142205
     12 H                     0.140573
     13 H                     0.151988
     14 H                     0.168707
     15 H                     0.180580
     16 C                    -0.198835
     17 C                    -0.055165
     18 C                    -0.369535
     19 C                    -0.242291
     20 C                    -0.253537
     21 C                     0.540296
     22 H                     0.165593
     23 H                     0.172096
     24 C                    -0.695153
     25 H                     0.132603
     26 H                     0.160961
     27 H                     0.140690
     28 H                     0.152002
     29 H                     0.167990
     30 H                     0.183303
  ----------------------------------------
  Sum of atomic charges =    -0.000000

                    Cartesian Multipole Moments
 -----------------------------------------------------------------
    Charge (ESU x 10^10)
                -0.0000
    Dipole Moment (Debye)
         X       0.0070      Y       0.5723      Z       0.0430
       Tot       0.5739
    Quadrupole Moments (Debye-Ang)
        XX     -94.8564     XY       0.0802     YY     -78.5009
        XZ      -0.0025     YZ       0.0420     ZZ     -78.7995

 Total job time:  114.80s(wall), 456.50s(cpu)
        *  Thank you very much for using Q-Chem.  Have a nice day.  *
