 Q-Chem 5.0, Q-Chem, Inc., Pleasanton, CA (2017)
 Q-Chem 5.0.1 for Intel X86 EM64T Linux

User input:
--------------------------------------------------------------
$molecule
0  1
C        -0.54444000        -0.68370000        -0.06689000
C        -0.55709000        +0.71878000        +0.05493000
C        -1.74320000        -1.41616000        -0.12552000
C        -2.93952000        -0.70056000        -0.05285000
C        -2.95313000        +0.68255000        +0.06934000
C        -1.77161000        +1.42404000        +0.12810000
H        -3.90354000        +1.20325000        +0.11710000
H        -3.87892000        -1.24211000        -0.08988000
C        -1.83960000        +2.92746000        +0.24839000
H        -1.24214000        +3.42352000        -0.52065000
H        -1.45503000        +3.26427000        +1.21284000
H        -2.87211000        +3.26623000        +0.14638000
H        -1.73878000        -2.44393000        -0.21875000
H        +0.35825000        -1.18166000        -0.11386000
H        +0.33551000        +1.23549000        +0.09097000
@C        -0.49627000        -1.29404000        +6.90628000
@C        -0.50892000        +0.10844000        +7.02810000
@C        -1.69503000        -2.02650000        +6.84765000
@C        -2.89135000        -1.31090000        +6.92032000
@C        -2.90496000        +0.07221000        +7.04251000
@C        -1.72344000        +0.81370000        +7.10127000
@H        -3.85537000        +0.59291000        +7.09027000
@H        -3.83075000        -1.85245000        +6.88329000
@C        -1.79143000        +2.31712000        +7.22156000
@H        -1.19397000        +2.81318000        +6.45252000
@H        -1.40686000        +2.65393000        +8.18601000
@H        -2.82394000        +2.65589000        +7.11955000
@H        -1.69061000        -3.05427000        +6.75442000
@H        +0.40642000        -1.79200000        +6.85931000
@H        +0.38368000        +0.62515000        +7.06414000
$end

$rem
JOBTYPE                   SP
METHOD                    B3LYP
DFT_D                     d3_op
BASIS                     6-311++G(d,p)
SYMMETRY                  False
THRESH                    12
SCF_CONVERGENCE           8
MAX_SUB_FILE_NUM          128
MEM_STATIC                400
MEM_TOTAL                 4000
$end
--------------------------------------------------------------

             Standard Nuclear Orientation (Angstroms)
    I     Atom           X                Y                Z
 ----------------------------------------------------------------
    1      C      -0.5444400000    -0.6837000000    -0.0668900000
    2      C      -0.5570900000     0.7187800000     0.0549300000
    3      C      -1.7432000000    -1.4161600000    -0.1255200000
    4      C      -2.9395200000    -0.7005600000    -0.0528500000
    5      C      -2.9531300000     0.6825500000     0.0693400000
    6      C      -1.7716100000     1.4240400000     0.1281000000
    7      H      -3.9035400000     1.2032500000     0.1171000000
    8      H      -3.8789200000    -1.2421100000    -0.0898800000
    9      C      -1.8396000000     2.9274600000     0.2483900000
   10      H      -1.2421400000     3.4235200000    -0.5206500000
   11      H      -1.4550300000     3.2642700000     1.2128400000
   12      H      -2.8721100000     3.2662300000     0.1463800000
   13      H      -1.7387800000    -2.4439300000    -0.2187500000
   14      H       0.3582500000    -1.1816600000    -0.1138600000
   15      H       0.3355100000     1.2354900000     0.0909700000
   16      GH     -0.4962700000    -1.2940400000     6.9062800000
   17      GH     -0.5089200000     0.1084400000     7.0281000000
   18      GH     -1.6950300000    -2.0265000000     6.8476500000
   19      GH     -2.8913500000    -1.3109000000     6.9203200000
   20      GH     -2.9049600000     0.0722100000     7.0425100000
   21      GH     -1.7234400000     0.8137000000     7.1012700000
   22      GH     -3.8553700000     0.5929100000     7.0902700000
   23      GH     -3.8307500000    -1.8524500000     6.8832900000
   24      GH     -1.7914300000     2.3171200000     7.2215600000
   25      GH     -1.1939700000     2.8131800000     6.4525200000
   26      GH     -1.4068600000     2.6539300000     8.1860100000
   27      GH     -2.8239400000     2.6558900000     7.1195500000
   28      GH     -1.6906100000    -3.0542700000     6.7544200000
   29      GH      0.4064200000    -1.7920000000     6.8593100000
   30      GH      0.3836800000     0.6251500000     7.0641400000
 ----------------------------------------------------------------

   12    -271.6435385883      9.50E-09 Convergence criterion met
 Total energy in the final basis set = -271.64353859

                    Orbital Energies (a.u.)
 --------------------------------------------------------------

 Alpha MOs
 -- Occupied --
-10.185 -10.174 -10.172 -10.171 -10.170 -10.169 -10.169  -0.858
 -0.776  -0.748  -0.691  -0.611  -0.591  -0.521  -0.465  -0.463
 -0.424  -0.423  -0.418  -0.390  -0.358  -0.350  -0.342  -0.255
 -0.247

          Ground-State Mulliken Net Atomic Charges

     Atom                 Charge (a.u.)
  ----------------------------------------
      1 C                     0.000173
      2 C                    -0.417280
      3 C                    -0.340409
      4 C                    -0.023662
      5 C                    -0.855060
      6 C                     1.018886
      7 H                     0.122223
      8 H                     0.170265
      9 C                    -0.579048
     10 H                     0.147652
     11 H                     0.154423
     12 H                     0.149401
     13 H                     0.143898
     14 H                     0.157985
     15 H                     0.150714
     16 GH                    0.000421
     17 GH                   -0.000817
     18 GH                    0.000207
     19 GH                    0.000263
     20 GH                   -0.001370
     21 GH                    0.001005
     22 GH                   -0.000219
     23 GH                   -0.000069
     24 GH                    0.000553
     25 GH                    0.000142
     26 GH                    0.000009
     27 GH                   -0.000010
     28 GH                   -0.000018
     29 GH                   -0.000072
     30 GH                   -0.000185
  ----------------------------------------
  Sum of atomic charges =    -0.000000

                    Cartesian Multipole Moments
 -----------------------------------------------------------------
    Charge (ESU x 10^10)
                -0.0000
    Dipole Moment (Debye)
         X       0.0623      Y       0.3876      Z       0.0357
       Tot       0.3942
    Quadrupole Moments (Debye-Ang)
        XX     -39.3485     XY      -0.6308     YY     -38.0662
        XZ      -0.0928     YZ       0.7291     ZZ     -46.4225

 Total job time:  51.03s(wall), 203.46s(cpu)
        *  Thank you very much for using Q-Chem.  Have a nice day.  *
