 Q-Chem 5.0, Q-Chem, Inc., Pleasanton, CA (2017)
 Q-Chem 5.0.1 for Intel X86 EM64T Linux

User input:
--------------------------------------------------------------
$molecule
0  1
C        -0.66406000        -0.93394000        +3.42210000
C        -0.67671000        +0.46854000        +3.54392000
C        -1.86282000        -1.66640000        +3.36347000
C        -3.05914000        -0.95080000        +3.43614000
C        -3.07275000        +0.43231000        +3.55833000
C        -1.89123000        +1.17380000        +3.61709000
H        -4.02316000        +0.95301000        +3.60609000
H        -3.99854000        -1.49235000        +3.39911000
C        -1.95922000        +2.67722000        +3.73738000
H        -1.36176000        +3.17328000        +2.96834000
H        -1.57465000        +3.01403000        +4.70183000
H        -2.99173000        +3.01599000        +3.63537000
H        -1.85840000        -2.69417000        +3.27024000
H        +0.23863000        -1.43190000        +3.37513000
H        +0.21589000        +0.98525000        +3.57996000
@C        -0.54444000        -0.68370000        -0.06689000
@C        -0.55709000        +0.71878000        +0.05493000
@C        -1.74320000        -1.41616000        -0.12552000
@C        -2.93952000        -0.70056000        -0.05285000
@C        -2.95313000        +0.68255000        +0.06934000
@C        -1.77161000        +1.42404000        +0.12810000
@H        -3.90354000        +1.20325000        +0.11710000
@H        -3.87892000        -1.24211000        -0.08988000
@C        -1.83960000        +2.92746000        +0.24839000
@H        -1.24214000        +3.42352000        -0.52065000
@H        -1.45503000        +3.26427000        +1.21284000
@H        -2.87211000        +3.26623000        +0.14638000
@H        -1.73878000        -2.44393000        -0.21875000
@H        +0.35825000        -1.18166000        -0.11386000
@H        +0.33551000        +1.23549000        +0.09097000
$end

$rem
JOBTYPE                   SP
METHOD                    B3LYP
DFT_D                     d3_op
BASIS                     6-311++G(d,p)
SYMMETRY                  False
THRESH                    12
SCF_CONVERGENCE           8
MAX_SUB_FILE_NUM          128
MEM_STATIC                400
MEM_TOTAL                 4000
$end
--------------------------------------------------------------

             Standard Nuclear Orientation (Angstroms)
    I     Atom           X                Y                Z
 ----------------------------------------------------------------
    1      C      -0.6640600000    -0.9339400000     3.4221000000
    2      C      -0.6767100000     0.4685400000     3.5439200000
    3      C      -1.8628200000    -1.6664000000     3.3634700000
    4      C      -3.0591400000    -0.9508000000     3.4361400000
    5      C      -3.0727500000     0.4323100000     3.5583300000
    6      C      -1.8912300000     1.1738000000     3.6170900000
    7      H      -4.0231600000     0.9530100000     3.6060900000
    8      H      -3.9985400000    -1.4923500000     3.3991100000
    9      C      -1.9592200000     2.6772200000     3.7373800000
   10      H      -1.3617600000     3.1732800000     2.9683400000
   11      H      -1.5746500000     3.0140300000     4.7018300000
   12      H      -2.9917300000     3.0159900000     3.6353700000
   13      H      -1.8584000000    -2.6941700000     3.2702400000
   14      H       0.2386300000    -1.4319000000     3.3751300000
   15      H       0.2158900000     0.9852500000     3.5799600000
   16      GH     -0.5444400000    -0.6837000000    -0.0668900000
   17      GH     -0.5570900000     0.7187800000     0.0549300000
   18      GH     -1.7432000000    -1.4161600000    -0.1255200000
   19      GH     -2.9395200000    -0.7005600000    -0.0528500000
   20      GH     -2.9531300000     0.6825500000     0.0693400000
   21      GH     -1.7716100000     1.4240400000     0.1281000000
   22      GH     -3.9035400000     1.2032500000     0.1171000000
   23      GH     -3.8789200000    -1.2421100000    -0.0898800000
   24      GH     -1.8396000000     2.9274600000     0.2483900000
   25      GH     -1.2421400000     3.4235200000    -0.5206500000
   26      GH     -1.4550300000     3.2642700000     1.2128400000
   27      GH     -2.8721100000     3.2662300000     0.1463800000
   28      GH     -1.7387800000    -2.4439300000    -0.2187500000
   29      GH      0.3582500000    -1.1816600000    -0.1138600000
   30      GH      0.3355100000     1.2354900000     0.0909700000
 ----------------------------------------------------------------

   13    -271.6442566816      1.40E-09 Convergence criterion met
 Total energy in the final basis set = -271.64425668

                    Orbital Energies (a.u.)
 --------------------------------------------------------------

 Alpha MOs
 -- Occupied --
-10.185 -10.174 -10.172 -10.171 -10.170 -10.169 -10.169  -0.858
 -0.776  -0.747  -0.691  -0.611  -0.591  -0.521  -0.465  -0.462
 -0.424  -0.423  -0.418  -0.390  -0.358  -0.350  -0.342  -0.255
 -0.248

          Ground-State Mulliken Net Atomic Charges

     Atom                 Charge (a.u.)
  ----------------------------------------
      1 C                    -0.224136
      2 C                    -0.100901
      3 C                    -0.340401
      4 C                    -0.275942
      5 C                    -0.307446
      6 C                     0.569901
      7 H                     0.159020
      8 H                     0.173710
      9 C                    -0.701607
     10 H                     0.166195
     11 H                     0.166600
     12 H                     0.139469
     13 H                     0.146801
     14 H                     0.162743
     15 H                     0.174720
     16 GH                    0.008024
     17 GH                    0.045002
     18 GH                   -0.027220
     19 GH                    0.039542
     20 GH                    0.004950
     21 GH                    0.006396
     22 GH                    0.014030
     23 GH                    0.005164
     24 GH                   -0.013535
     25 GH                    0.002336
     26 GH                   -0.007946
     27 GH                   -0.000383
     28 GH                    0.005040
     29 GH                    0.003158
     30 GH                    0.006714
  ----------------------------------------
  Sum of atomic charges =     0.000000

                    Cartesian Multipole Moments
 -----------------------------------------------------------------
    Charge (ESU x 10^10)
                 0.0000
    Dipole Moment (Debye)
         X       0.0633      Y       0.3906      Z       0.0353
       Tot       0.3972
    Quadrupole Moments (Debye-Ang)
        XX     -39.4795     XY      -0.7001     YY     -38.3719
        XZ       0.1301     YZ       2.0628     ZZ     -46.0806

 Total job time:  105.79s(wall), 420.93s(cpu)
        *  Thank you very much for using Q-Chem.  Have a nice day.  *
