 Q-Chem 5.0, Q-Chem, Inc., Pleasanton, CA (2017)
 Q-Chem 5.0.1 for Intel X86 EM64T Linux

User input:
--------------------------------------------------------------
$molecule
0  1
--
0  1
C        -0.54444000        -0.68370000        -0.06689000
C        -0.55709000        +0.71878000        +0.05493000
C        -1.74320000        -1.41616000        -0.12552000
C        -2.93952000        -0.70056000        -0.05285000
C        -2.95313000        +0.68255000        +0.06934000
C        -1.77161000        +1.42404000        +0.12810000
H        -3.90354000        +1.20325000        +0.11710000
H        -3.87892000        -1.24211000        -0.08988000
C        -1.83960000        +2.92746000        +0.24839000
H        -1.24214000        +3.42352000        -0.52065000
H        -1.45503000        +3.26427000        +1.21284000
H        -2.87211000        +3.26623000        +0.14638000
H        -1.73878000        -2.44393000        -0.21875000
H        +0.35825000        -1.18166000        -0.11386000
H        +0.33551000        +1.23549000        +0.09097000
--
0  1
C        -0.52035000        -0.98887000        +3.41970000
C        -0.53300000        +0.41361000        +3.54152000
C        -1.71911000        -1.72133000        +3.36107000
C        -2.91543000        -1.00573000        +3.43374000
C        -2.92904000        +0.37738000        +3.55593000
C        -1.74752000        +1.11887000        +3.61469000
H        -3.87945000        +0.89808000        +3.60369000
H        -3.85483000        -1.54728000        +3.39671000
C        -1.81551000        +2.62229000        +3.73498000
H        -1.21805000        +3.11835000        +2.96594000
H        -1.43094000        +2.95910000        +4.69943000
H        -2.84802000        +2.96106000        +3.63297000
H        -1.71469000        -2.74910000        +3.26784000
H        +0.38234000        -1.48683000        +3.37273000
H        +0.35960000        +0.93032000        +3.57756000
$end

$rem
JOBTYPE                   SP
METHOD                    B3LYP
DFT_D                     d3_op
BASIS                     6-311++G(d,p)
SYMMETRY                  False
THRESH                    12
SCF_CONVERGENCE           8
MAX_SUB_FILE_NUM          128
MEM_STATIC                400
MEM_TOTAL                 4000
$end
--------------------------------------------------------------

             Standard Nuclear Orientation (Angstroms)
    I     Atom           X                Y                Z
 ----------------------------------------------------------------
    1      C       1.7404697687    -1.2385652186     1.1902506635
    2      C       1.7494049943     0.1689379546     1.2186278443
    3      C       1.7394696122    -1.9381152037    -0.0294171127
    4      C       1.7420870656    -1.1843565340    -1.2043157671
    5      C       1.7488634365     0.2039310768    -1.1774738086
    6      C       1.7506955743     0.9129817926     0.0252287290
    7      H       1.7564360906     0.7542463265    -2.1122381941
    8      H       1.7354368413    -1.6994423368    -2.1591782565
    9      C       1.7709168775     2.4224128112     0.0012888102
   10      H       2.5783677051     2.8272407975     0.6165887040
   11      H       0.8391497420     2.8360880823     0.3913934615
   12      H       1.9113165146     2.7801291605    -1.0202663809
   13      H       1.7368967145    -2.9697930762    -0.0550430716
   14      H       1.7345624988    -1.7647867834     2.0779868560
   15      H       1.7550713457     0.6605714665     2.1259796218
   16      C      -1.7594774885    -1.2188697670     1.1898363078
   17      C      -1.7505422628     0.1886334062     1.2182134886
   18      C      -1.7604776449    -1.9184197521    -0.0298314683
   19      C      -1.7578601915    -1.1646610824    -1.2047301228
   20      C      -1.7510838206     0.2236265284    -1.1778881642
   21      C      -1.7492516828     0.9326772442     0.0248143733
   22      H      -1.7435111665     0.7739417781    -2.1126525498
   23      H      -1.7645104159    -1.6797468852    -2.1595926122
   24      C      -1.7290303796     2.4421082628     0.0008744545
   25      H      -0.9215795520     2.8469362490     0.6161743483
   26      H      -2.6607975151     2.8557835338     0.3909791058
   27      H      -1.5886307425     2.7998246121    -1.0206807365
   28      H      -1.7630505426    -2.9500976246    -0.0554574272
   29      H      -1.7653847583    -1.7450913319     2.0775725003
   30      H      -1.7448759115     0.6802669181     2.1255652661
 ----------------------------------------------------------------

   13    -543.2876491962      7.17E-09 Convergence criterion met
 Total energy in the final basis set = -543.28764920

                    Orbital Energies (a.u.)
 --------------------------------------------------------------

 Alpha MOs
 -- Occupied --
-10.180 -10.179 -10.168 -10.168 -10.167 -10.166 -10.166 -10.166
-10.165 -10.164 -10.164 -10.163 -10.163 -10.163  -0.854  -0.850
 -0.774  -0.769  -0.743  -0.740  -0.691  -0.684  -0.607  -0.604
 -0.588  -0.584  -0.518  -0.514  -0.462  -0.460  -0.459  -0.456
 -0.441  -0.419  -0.416  -0.415  -0.412  -0.403  -0.390  -0.383
 -0.367  -0.347  -0.344  -0.338  -0.336  -0.335  -0.262  -0.256
 -0.234  -0.227

          Ground-State Mulliken Net Atomic Charges

     Atom                 Charge (a.u.)
  ----------------------------------------
      1 C                    -0.089281
      2 C                    -0.326113
      3 C                    -0.319224
      4 C                    -0.329144
      5 C                    -0.128592
      6 C                     0.613961
      7 H                     0.167306
      8 H                     0.162786
      9 C                    -0.697285
     10 H                     0.154572
     11 H                     0.160950
     12 H                     0.141118
     13 H                     0.145956
     14 H                     0.161834
     15 H                     0.166506
     16 C                    -0.264204
     17 C                     0.073211
     18 C                    -0.390888
     19 C                    -0.167527
     20 C                    -0.388011
     21 C                     0.554820
     22 H                     0.157763
     23 H                     0.175149
     24 C                    -0.647886
     25 H                     0.121460
     26 H                     0.165892
     27 H                     0.138959
     28 H                     0.143192
     29 H                     0.161286
     30 H                     0.181434
  ----------------------------------------
  Sum of atomic charges =    -0.000000

                    Cartesian Multipole Moments
 -----------------------------------------------------------------
    Charge (ESU x 10^10)
                -0.0000
    Dipole Moment (Debye)
         X      -0.0435      Y       0.5448      Z       0.1101
       Tot       0.5575
    Quadrupole Moments (Debye-Ang)
        XX     -94.7126     XY       0.0522     YY     -77.8688
        XZ      -0.0304     YZ       0.0068     ZZ     -78.8463

 Total job time:  112.21s(wall), 447.19s(cpu)
        *  Thank you very much for using Q-Chem.  Have a nice day.  *
