 Q-Chem 5.0, Q-Chem, Inc., Pleasanton, CA (2017)
 Q-Chem 5.0.1 for Intel X86 EM64T Linux

User input:
--------------------------------------------------------------
$molecule
0  1
--
0  1
C        -0.54444000        -0.68370000        -0.06689000
C        -0.55709000        +0.71878000        +0.05493000
C        -1.74320000        -1.41616000        -0.12552000
C        -2.93952000        -0.70056000        -0.05285000
C        -2.95313000        +0.68255000        +0.06934000
C        -1.77161000        +1.42404000        +0.12810000
H        -3.90354000        +1.20325000        +0.11710000
H        -3.87892000        -1.24211000        -0.08988000
C        -1.83960000        +2.92746000        +0.24839000
H        -1.24214000        +3.42352000        -0.52065000
H        -1.45503000        +3.26427000        +1.21284000
H        -2.87211000        +3.26623000        +0.14638000
H        -1.73878000        -2.44393000        -0.21875000
H        +0.35825000        -1.18166000        -0.11386000
H        +0.33551000        +1.23549000        +0.09097000
--
0  1
C        -0.66406000        -0.93394000        +3.42210000
C        -0.67671000        +0.46854000        +3.54392000
C        -1.86282000        -1.66640000        +3.36347000
C        -3.05914000        -0.95080000        +3.43614000
C        -3.07275000        +0.43231000        +3.55833000
C        -1.89123000        +1.17380000        +3.61709000
H        -4.02316000        +0.95301000        +3.60609000
H        -3.99854000        -1.49235000        +3.39911000
C        -1.95922000        +2.67722000        +3.73738000
H        -1.36176000        +3.17328000        +2.96834000
H        -1.57465000        +3.01403000        +4.70183000
H        -2.99173000        +3.01599000        +3.63537000
H        -1.85840000        -2.69417000        +3.27024000
H        +0.23863000        -1.43190000        +3.37513000
H        +0.21589000        +0.98525000        +3.57996000
$end

$rem
JOBTYPE                   SP
METHOD                    B3LYP
DFT_D                     d3_op
BASIS                     6-311++G(d,p)
SYMMETRY                  False
THRESH                    12
SCF_CONVERGENCE           8
MAX_SUB_FILE_NUM          128
MEM_STATIC                400
MEM_TOTAL                 4000
$end
--------------------------------------------------------------

             Standard Nuclear Orientation (Angstroms)
    I     Atom           X                Y                Z
 ----------------------------------------------------------------
    1      C       1.9027889588    -1.1286338819     1.1520351504
    2      C       1.8081696141     0.2757337982     1.1794008960
    3      C       1.8791439695    -1.8322739496    -0.0650483454
    4      C       1.7531690266    -1.0861856407    -1.2380907062
    5      C       1.6577435964     0.2988516648    -1.2121186043
    6      C       1.6804634466     1.0119448431    -0.0120221100
    7      H       1.5666738363     0.8436122547    -2.1457303406
    8      H       1.7263813571    -1.6050025824    -2.1905776537
    9      C       1.5862392168     2.5185408826    -0.0375992253
   10      H       2.3974419220     2.9855032566     0.5266283965
   11      H       0.6518887660     2.8634377943     0.4090933076
   12      H       1.6364413522     2.8807286447    -1.0659706677
   13      H       1.9521596698    -2.8613804581    -0.0901689325
   14      H       1.9908240291    -1.6494743372     2.0385985295
   15      H       1.8328117322     0.7708579782     2.0845349623
   16      C      -1.5916482267    -1.3116798359     1.2254051531
   17      C      -1.6862675714     0.0926878442     1.2527708986
   18      C      -1.6152932160    -2.0153199036     0.0083216573
   19      C      -1.7412681590    -1.2692315946    -1.1647207035
   20      C      -1.8366935891     0.1158057108    -1.1387486016
   21      C      -1.8139737389     0.8288988891     0.0613478927
   22      H      -1.9277633492     0.6605663008    -2.0723603379
   23      H      -1.7680558284    -1.7880485364    -2.1172076510
   24      C      -1.9081979687     2.3354949286     0.0357707774
   25      H      -1.0969952635     2.8024573026     0.5999983992
   26      H      -2.8425484195     2.6803918403     0.4824633102
   27      H      -1.8579958333     2.6976826907    -0.9926006650
   28      H      -1.5422775157    -3.0444264121    -0.0167989299
   29      H      -1.5036131565    -1.8325202912     2.1119685322
   30      H      -1.6616254533     0.5878120243     2.1579049650
 ----------------------------------------------------------------

   14    -543.2875448877      5.34E-09 Convergence criterion met
 Total energy in the final basis set = -543.28754489

                    Orbital Energies (a.u.)
 --------------------------------------------------------------

 Alpha MOs
 -- Occupied --
-10.179 -10.179 -10.168 -10.167 -10.167 -10.166 -10.166 -10.166
-10.165 -10.165 -10.164 -10.163 -10.163 -10.163  -0.854  -0.850
 -0.774  -0.769  -0.743  -0.740  -0.691  -0.684  -0.607  -0.604
 -0.588  -0.584  -0.518  -0.514  -0.462  -0.460  -0.459  -0.456
 -0.441  -0.419  -0.416  -0.415  -0.412  -0.403  -0.390  -0.383
 -0.367  -0.347  -0.344  -0.338  -0.336  -0.335  -0.262  -0.256
 -0.234  -0.227

          Ground-State Mulliken Net Atomic Charges

     Atom                 Charge (a.u.)
  ----------------------------------------
      1 C                    -0.173813
      2 C                    -0.209318
      3 C                    -0.364197
      4 C                    -0.226131
      5 C                    -0.176479
      6 C                     0.600119
      7 H                     0.165505
      8 H                     0.166947
      9 C                    -0.719971
     10 H                     0.155266
     11 H                     0.151356
     12 H                     0.142606
     13 H                     0.145165
     14 H                     0.159305
     15 H                     0.167248
     16 C                    -0.187475
     17 C                    -0.018818
     18 C                    -0.339931
     19 C                    -0.275272
     20 C                    -0.366514
     21 C                     0.592044
     22 H                     0.157113
     23 H                     0.172520
     24 C                    -0.640980
     25 H                     0.130079
     26 H                     0.165860
     27 H                     0.139286
     28 H                     0.144338
     29 H                     0.163428
     30 H                     0.180714
  ----------------------------------------
  Sum of atomic charges =    -0.000000

                    Cartesian Multipole Moments
 -----------------------------------------------------------------
    Charge (ESU x 10^10)
                -0.0000
    Dipole Moment (Debye)
         X      -0.0704      Y       0.5422      Z       0.1091
       Tot       0.5575
    Quadrupole Moments (Debye-Ang)
        XX     -94.5943     XY      -1.1252     YY     -77.9405
        XZ       0.7950     YZ       0.0585     ZZ     -78.8964

 Total job time:  119.61s(wall), 476.11s(cpu)
        *  Thank you very much for using Q-Chem.  Have a nice day.  *
