 Q-Chem 5.0, Q-Chem, Inc., Pleasanton, CA (2017)
 Q-Chem 5.0.1 for Intel X86 EM64T Linux

User input:
--------------------------------------------------------------
$molecule
0  1
--
0  1
C        -0.54444000        -0.68370000        -0.06689000
C        -0.55709000        +0.71878000        +0.05493000
C        -1.74320000        -1.41616000        -0.12552000
C        -2.93952000        -0.70056000        -0.05285000
C        -2.95313000        +0.68255000        +0.06934000
C        -1.77161000        +1.42404000        +0.12810000
H        -3.90354000        +1.20325000        +0.11710000
H        -3.87892000        -1.24211000        -0.08988000
C        -1.83960000        +2.92746000        +0.24839000
H        -1.24214000        +3.42352000        -0.52065000
H        -1.45503000        +3.26427000        +1.21284000
H        -2.87211000        +3.26623000        +0.14638000
H        -1.73878000        -2.44393000        -0.21875000
H        +0.35825000        -1.18166000        -0.11386000
H        +0.33551000        +1.23549000        +0.09097000
--
0  1
C        -0.51072000        -1.11094000        +4.81433000
C        -0.52337000        +0.29154000        +4.93615000
C        -1.70948000        -1.84340000        +4.75570000
C        -2.90580000        -1.12780000        +4.82837000
C        -2.91941000        +0.25531000        +4.95056000
C        -1.73789000        +0.99680000        +5.00932000
H        -3.86982000        +0.77601000        +4.99832000
H        -3.84520000        -1.66935000        +4.79134000
C        -1.80588000        +2.50022000        +5.12961000
H        -1.20842000        +2.99628000        +4.36057000
H        -1.42131000        +2.83703000        +6.09406000
H        -2.83839000        +2.83899000        +5.02760000
H        -1.70506000        -2.87117000        +4.66247000
H        +0.39197000        -1.60890000        +4.76736000
H        +0.36923000        +0.80825000        +4.97219000
$end

$rem
JOBTYPE                   SP
METHOD                    B3LYP
DFT_D                     d3_op
BASIS                     6-311++G(d,p)
SYMMETRY                  False
THRESH                    12
SCF_CONVERGENCE           8
MAX_SUB_FILE_NUM          128
MEM_STATIC                400
MEM_TOTAL                 4000
$end
--------------------------------------------------------------

             Standard Nuclear Orientation (Angstroms)
    I     Atom           X                Y                Z
 ----------------------------------------------------------------
    1      C       2.4461849179    -1.2313565625     1.1901606811
    2      C       2.4487007078     0.1761727194     1.2185380823
    3      C       2.4482887779    -1.9309034828    -0.0295074484
    4      C       2.4473830674    -1.1771403816    -1.2044058262
    5      C       2.4478275810     0.2111636890    -1.1775635041
    6      C       2.4465111317     0.9202150418     0.0251393329
    7      H       2.4528224093     0.7615080261    -2.1123280937
    8      H       2.4430143474    -1.6922508918    -2.1592681513
    9      C       2.4598441075     2.4297226130     0.0011988873
   10      H       3.2654837535     2.8382300022     0.6164410920
   11      H       1.5262273733     2.8391425147     0.3913706459
   12      H       2.5985369927     2.7880760685    -1.0203661560
   13      H       2.4504208389    -2.9625823495    -0.0551338541
   14      H       2.4427421607    -1.7575998541     2.0778969730
   15      H       2.4521891511     0.6678267077     2.1258897518
   16      C      -2.4538102330    -1.2261402441     1.1899261436
   17      C      -2.4512944432     0.1813890377     1.2183035448
   18      C      -2.4517063730    -1.9256871645    -0.0297419859
   19      C      -2.4526120835    -1.1719240632    -1.2046403637
   20      C      -2.4521675700     0.2163800074    -1.1777980416
   21      C      -2.4534840193     0.9254313602     0.0249047954
   22      H      -2.4471727416     0.7667243444    -2.1125626312
   23      H      -2.4569808035    -1.6870345735    -2.1595026888
   24      C      -2.4401510435     2.4349389313     0.0009643498
   25      H      -1.6345113974     2.8434463205     0.6162065545
   26      H      -3.3737677777     2.8443588331     0.3911361084
   27      H      -2.3014581582     2.7932923868    -1.0206006934
   28      H      -2.4495743121    -2.9573660311    -0.0553683916
   29      H      -2.4572529903    -1.7523835358     2.0776624356
   30      H      -2.4478059999     0.6730430260     2.1256552144
 ----------------------------------------------------------------

   13    -543.2882256862      5.45E-09 Convergence criterion met
 Total energy in the final basis set = -543.28822569

                    Orbital Energies (a.u.)
 --------------------------------------------------------------

 Alpha MOs
 -- Occupied --
-10.182 -10.182 -10.170 -10.170 -10.169 -10.169 -10.168 -10.168
-10.167 -10.167 -10.166 -10.166 -10.166 -10.166  -0.855  -0.855
 -0.773  -0.773  -0.744  -0.744  -0.689  -0.688  -0.608  -0.608
 -0.588  -0.587  -0.518  -0.518  -0.462  -0.462  -0.459  -0.459
 -0.424  -0.420  -0.420  -0.420  -0.415  -0.415  -0.388  -0.388
 -0.356  -0.352  -0.347  -0.347  -0.339  -0.339  -0.253  -0.249
 -0.245  -0.242

          Ground-State Mulliken Net Atomic Charges

     Atom                 Charge (a.u.)
  ----------------------------------------
      1 C                    -0.082151
      2 C                    -0.430981
      3 C                    -0.303940
      4 C                    -0.141958
      5 C                    -0.553380
      6 C                     0.933468
      7 H                     0.147650
      8 H                     0.164815
      9 C                    -0.648508
     10 H                     0.146062
     11 H                     0.154360
     12 H                     0.143540
     13 H                     0.149904
     14 H                     0.155965
     15 H                     0.164474
     16 C                    -0.146246
     17 C                    -0.369860
     18 C                    -0.294524
     19 C                    -0.189375
     20 C                    -0.440728
     21 C                     0.863787
     22 H                     0.147952
     23 H                     0.167560
     24 C                    -0.657050
     25 H                     0.146698
     26 H                     0.157288
     27 H                     0.142352
     28 H                     0.149575
     29 H                     0.157587
     30 H                     0.165666
  ----------------------------------------
  Sum of atomic charges =     0.000000

                    Cartesian Multipole Moments
 -----------------------------------------------------------------
    Charge (ESU x 10^10)
                 0.0000
    Dipole Moment (Debye)
         X      -0.0059      Y       0.6435      Z       0.1285
       Tot       0.6563
    Quadrupole Moments (Debye-Ang)
        XX     -94.0200     XY       0.0444     YY     -77.2303
        XZ      -0.0308     YZ       0.0502     ZZ     -78.4449

 Total job time:  77.63s(wall), 309.25s(cpu)
        *  Thank you very much for using Q-Chem.  Have a nice day.  *
