 Q-Chem 5.0, Q-Chem, Inc., Pleasanton, CA (2017)
 Q-Chem 5.0.1 for Intel X86 EM64T Linux

User input:
--------------------------------------------------------------
$molecule
0  1
C        -0.71191000        -1.03404000        +4.81770000
C        -0.72456000        +0.36844000        +4.93952000
C        -1.91067000        -1.76650000        +4.75907000
C        -3.10699000        -1.05090000        +4.83174000
C        -3.12060000        +0.33221000        +4.95393000
C        -1.93908000        +1.07370000        +5.01269000
H        -4.07101000        +0.85291000        +5.00169000
H        -4.04639000        -1.59245000        +4.79471000
C        -2.00707000        +2.57712000        +5.13298000
H        -1.40961000        +3.07318000        +4.36394000
H        -1.62250000        +2.91393000        +6.09743000
H        -3.03958000        +2.91589000        +5.03097000
H        -1.90625000        -2.79427000        +4.66584000
H        +0.19078000        -1.53200000        +4.77073000
H        +0.16804000        +0.88515000        +4.97556000
@C        -0.54444000        -0.68370000        -0.06689000
@C        -0.55709000        +0.71878000        +0.05493000
@C        -1.74320000        -1.41616000        -0.12552000
@C        -2.93952000        -0.70056000        -0.05285000
@C        -2.95313000        +0.68255000        +0.06934000
@C        -1.77161000        +1.42404000        +0.12810000
@H        -3.90354000        +1.20325000        +0.11710000
@H        -3.87892000        -1.24211000        -0.08988000
@C        -1.83960000        +2.92746000        +0.24839000
@H        -1.24214000        +3.42352000        -0.52065000
@H        -1.45503000        +3.26427000        +1.21284000
@H        -2.87211000        +3.26623000        +0.14638000
@H        -1.73878000        -2.44393000        -0.21875000
@H        +0.35825000        -1.18166000        -0.11386000
@H        +0.33551000        +1.23549000        +0.09097000
$end

$rem
JOBTYPE                   SP
METHOD                    B3LYP
DFT_D                     d3_op
BASIS                     6-311++G(d,p)
SYMMETRY                  False
THRESH                    12
SCF_CONVERGENCE           8
MAX_SUB_FILE_NUM          128
MEM_STATIC                400
MEM_TOTAL                 4000
$end
--------------------------------------------------------------

             Standard Nuclear Orientation (Angstroms)
    I     Atom           X                Y                Z
 ----------------------------------------------------------------
    1      C      -0.7119100000    -1.0340400000     4.8177000000
    2      C      -0.7245600000     0.3684400000     4.9395200000
    3      C      -1.9106700000    -1.7665000000     4.7590700000
    4      C      -3.1069900000    -1.0509000000     4.8317400000
    5      C      -3.1206000000     0.3322100000     4.9539300000
    6      C      -1.9390800000     1.0737000000     5.0126900000
    7      H      -4.0710100000     0.8529100000     5.0016900000
    8      H      -4.0463900000    -1.5924500000     4.7947100000
    9      C      -2.0070700000     2.5771200000     5.1329800000
   10      H      -1.4096100000     3.0731800000     4.3639400000
   11      H      -1.6225000000     2.9139300000     6.0974300000
   12      H      -3.0395800000     2.9158900000     5.0309700000
   13      H      -1.9062500000    -2.7942700000     4.6658400000
   14      H       0.1907800000    -1.5320000000     4.7707300000
   15      H       0.1680400000     0.8851500000     4.9755600000
   16      GH     -0.5444400000    -0.6837000000    -0.0668900000
   17      GH     -0.5570900000     0.7187800000     0.0549300000
   18      GH     -1.7432000000    -1.4161600000    -0.1255200000
   19      GH     -2.9395200000    -0.7005600000    -0.0528500000
   20      GH     -2.9531300000     0.6825500000     0.0693400000
   21      GH     -1.7716100000     1.4240400000     0.1281000000
   22      GH     -3.9035400000     1.2032500000     0.1171000000
   23      GH     -3.8789200000    -1.2421100000    -0.0898800000
   24      GH     -1.8396000000     2.9274600000     0.2483900000
   25      GH     -1.2421400000     3.4235200000    -0.5206500000
   26      GH     -1.4550300000     3.2642700000     1.2128400000
   27      GH     -2.8721100000     3.2662300000     0.1463800000
   28      GH     -1.7387800000    -2.4439300000    -0.2187500000
   29      GH      0.3582500000    -1.1816600000    -0.1138600000
   30      GH      0.3355100000     1.2354900000     0.0909700000
 ----------------------------------------------------------------

   12    -271.6436978796      9.73E-09 Convergence criterion met
 Total energy in the final basis set = -271.64369788

                    Orbital Energies (a.u.)
 --------------------------------------------------------------

 Alpha MOs
 -- Occupied --
-10.185 -10.174 -10.172 -10.171 -10.170 -10.169 -10.169  -0.858
 -0.776  -0.747  -0.691  -0.611  -0.591  -0.521  -0.465  -0.462
 -0.424  -0.423  -0.418  -0.390  -0.358  -0.350  -0.342  -0.255
 -0.247

          Ground-State Mulliken Net Atomic Charges

     Atom                 Charge (a.u.)
  ----------------------------------------
      1 C                    -0.131284
      2 C                    -0.376826
      3 C                    -0.319007
      4 C                    -0.174028
      5 C                    -0.446669
      6 C                     0.859303
      7 H                     0.150977
      8 H                     0.171612
      9 C                    -0.657055
     10 H                     0.154405
     11 H                     0.158494
     12 H                     0.143647
     13 H                     0.150769
     14 H                     0.160683
     15 H                     0.168317
     16 GH                   -0.025909
     17 GH                    0.011998
     18 GH                    0.023700
     19 GH                   -0.021644
     20 GH                    0.004626
     21 GH                   -0.015375
     22 GH                    0.000045
     23 GH                   -0.000417
     24 GH                    0.010923
     25 GH                   -0.000384
     26 GH                   -0.003104
     27 GH                    0.001161
     28 GH                    0.002280
     29 GH                   -0.001072
     30 GH                   -0.000165
  ----------------------------------------
  Sum of atomic charges =     0.000000

                    Cartesian Multipole Moments
 -----------------------------------------------------------------
    Charge (ESU x 10^10)
                 0.0000
    Dipole Moment (Debye)
         X       0.0631      Y       0.3877      Z       0.0286
       Tot       0.3938
    Quadrupole Moments (Debye-Ang)
        XX     -39.3862     XY      -0.7173     YY     -38.3526
        XZ       0.2247     YZ       2.6078     ZZ     -46.1241

 Total job time:  80.53s(wall), 320.47s(cpu)
        *  Thank you very much for using Q-Chem.  Have a nice day.  *
