 Q-Chem 5.0, Q-Chem, Inc., Pleasanton, CA (2017)
 Q-Chem 5.0.1 for Intel X86 EM64T Linux

User input:
--------------------------------------------------------------
$molecule
0  1
--
0  1
C        -0.54444000        -0.68370000        -0.06689000
C        -0.55709000        +0.71878000        +0.05493000
C        -1.74320000        -1.41616000        -0.12552000
C        -2.93952000        -0.70056000        -0.05285000
C        -2.95313000        +0.68255000        +0.06934000
C        -1.77161000        +1.42404000        +0.12810000
H        -3.90354000        +1.20325000        +0.11710000
H        -3.87892000        -1.24211000        -0.08988000
C        -1.83960000        +2.92746000        +0.24839000
H        -1.24214000        +3.42352000        -0.52065000
H        -1.45503000        +3.26427000        +1.21284000
H        -2.87211000        +3.26623000        +0.14638000
H        -1.73878000        -2.44393000        -0.21875000
H        +0.35825000        -1.18166000        -0.11386000
H        +0.33551000        +1.23549000        +0.09097000
--
0  1
C        -0.71191000        -1.03404000        +4.81770000
C        -0.72456000        +0.36844000        +4.93952000
C        -1.91067000        -1.76650000        +4.75907000
C        -3.10699000        -1.05090000        +4.83174000
C        -3.12060000        +0.33221000        +4.95393000
C        -1.93908000        +1.07370000        +5.01269000
H        -4.07101000        +0.85291000        +5.00169000
H        -4.04639000        -1.59245000        +4.79471000
C        -2.00707000        +2.57712000        +5.13298000
H        -1.40961000        +3.07318000        +4.36394000
H        -1.62250000        +2.91393000        +6.09743000
H        -3.03958000        +2.91589000        +5.03097000
H        -1.90625000        -2.79427000        +4.66584000
H        +0.19078000        -1.53200000        +4.77073000
H        +0.16804000        +0.88515000        +4.97556000
$end

$rem
JOBTYPE                   SP
METHOD                    B3LYP
DFT_D                     d3_op
BASIS                     6-311++G(d,p)
SYMMETRY                  False
THRESH                    12
SCF_CONVERGENCE           8
MAX_SUB_FILE_NUM          128
MEM_STATIC                400
MEM_TOTAL                 4000
$end
--------------------------------------------------------------

             Standard Nuclear Orientation (Angstroms)
    I     Atom           X                Y                Z
 ----------------------------------------------------------------
    1      C       2.5387721109    -1.2017547816     1.1684428818
    2      C       2.5033698568     0.2053473400     1.1960215897
    3      C       2.5004792310    -1.9031991734    -0.0495349861
    4      C       2.4207944967    -1.1519026044    -1.2233107908
    5      C       2.3837857559     0.2359212724    -1.1971547139
    6      C       2.4217657466     0.9468573292     0.0038353409
    7      H       2.3274722952     0.7844817564    -2.1312847184
    8      H       2.3839001203    -1.6686789887    -2.1765688655
    9      C       2.3917447213     2.4561038258    -0.0214187927
   10      H       3.2149187635     2.8880302796     0.5532815915
   11      H       1.4673578734     2.8400561617     0.4139987342
   12      H       2.4700123442     2.8163160064    -1.0487305357
   13      H       2.5301606231    -2.9344629475    -0.0747656293
   14      H       2.5936512979    -1.7262663128     2.0555141908
   15      H       2.5377059491     0.6985649903     2.1018804352
   16      C      -2.3608059204    -1.2506459894     1.2102585468
   17      C      -2.3962081744     0.1564561322     1.2378372547
   18      C      -2.3990988002    -1.9520903811    -0.0077193211
   19      C      -2.4787835346    -1.2007938121    -1.1814951259
   20      C      -2.5157922754     0.1870300647    -1.1553390489
   21      C      -2.4778122847     0.8979661215     0.0456510058
   22      H      -2.5721057361     0.7355905486    -2.0894690534
   23      H      -2.5156779110    -1.7175701964    -2.1347532006
   24      C      -2.5078333100     2.4072126180     0.0203968722
   25      H      -1.6846592678     2.8391390719     0.5950972564
   26      H      -3.4322201579     2.7911649540     0.4558143991
   27      H      -2.4295656871     2.7674247987    -1.0069148707
   28      H      -2.3694174081    -2.9833541552    -0.0329499644
   29      H      -2.3059267334    -1.7751575205     2.0973298557
   30      H      -2.3618720822     0.6496737826     2.1436961001
 ----------------------------------------------------------------

   13    -543.2882001910      6.84E-09 Convergence criterion met
 Total energy in the final basis set = -543.28820019

                    Orbital Energies (a.u.)
 --------------------------------------------------------------

 Alpha MOs
 -- Occupied --
-10.182 -10.182 -10.170 -10.170 -10.169 -10.169 -10.168 -10.168
-10.167 -10.167 -10.166 -10.166 -10.166 -10.166  -0.855  -0.854
 -0.773  -0.773  -0.744  -0.744  -0.689  -0.688  -0.608  -0.608
 -0.588  -0.587  -0.518  -0.518  -0.462  -0.462  -0.459  -0.459
 -0.424  -0.420  -0.420  -0.420  -0.415  -0.415  -0.388  -0.388
 -0.356  -0.352  -0.347  -0.347  -0.339  -0.339  -0.253  -0.249
 -0.245  -0.242

          Ground-State Mulliken Net Atomic Charges

     Atom                 Charge (a.u.)
  ----------------------------------------
      1 C                    -0.080025
      2 C                    -0.432703
      3 C                    -0.315015
      4 C                    -0.130132
      5 C                    -0.557386
      6 C                     0.946984
      7 H                     0.146726
      8 H                     0.165187
      9 C                    -0.658530
     10 H                     0.145683
     11 H                     0.153475
     12 H                     0.143886
     13 H                     0.149714
     14 H                     0.156426
     15 H                     0.164295
     16 C                    -0.143315
     17 C                    -0.359746
     18 C                    -0.290105
     19 C                    -0.197156
     20 C                    -0.452110
     21 C                     0.861560
     22 H                     0.147544
     23 H                     0.168030
     24 C                    -0.654154
     25 H                     0.147805
     26 H                     0.157408
     27 H                     0.143098
     28 H                     0.149601
     29 H                     0.157181
     30 H                     0.165773
  ----------------------------------------
  Sum of atomic charges =     0.000000

                    Cartesian Multipole Moments
 -----------------------------------------------------------------
    Charge (ESU x 10^10)
                 0.0000
    Dipole Moment (Debye)
         X      -0.0189      Y       0.6440      Z       0.1276
       Tot       0.6568
    Quadrupole Moments (Debye-Ang)
        XX     -93.9809     XY      -0.3944     YY     -77.2392
        XZ       0.6576     YZ       0.0656     ZZ     -78.4793

 Total job time:  77.51s(wall), 308.35s(cpu)
        *  Thank you very much for using Q-Chem.  Have a nice day.  *
