 Q-Chem 5.0, Q-Chem, Inc., Pleasanton, CA (2017)
 Q-Chem 5.0.1 for Intel X86 EM64T Linux

User input:
--------------------------------------------------------------
$molecule
0  1
C        -0.54444000        -0.68370000        -0.06689000
C        -0.55709000        +0.71878000        +0.05493000
C        -1.74320000        -1.41616000        -0.12552000
C        -2.93952000        -0.70056000        -0.05285000
C        -2.95313000        +0.68255000        +0.06934000
C        -1.77161000        +1.42404000        +0.12810000
H        -3.90354000        +1.20325000        +0.11710000
H        -3.87892000        -1.24211000        -0.08988000
C        -1.83960000        +2.92746000        +0.24839000
H        -1.24214000        +3.42352000        -0.52065000
H        -1.45503000        +3.26427000        +1.21284000
H        -2.87211000        +3.26623000        +0.14638000
H        -1.73878000        -2.44393000        -0.21875000
H        +0.35825000        -1.18166000        -0.11386000
H        +0.33551000        +1.23549000        +0.09097000
@C        -0.52035000        -0.98887000        +3.41970000
@C        -0.53300000        +0.41361000        +3.54152000
@C        -1.71911000        -1.72133000        +3.36107000
@C        -2.91543000        -1.00573000        +3.43374000
@C        -2.92904000        +0.37738000        +3.55593000
@C        -1.74752000        +1.11887000        +3.61469000
@H        -3.87945000        +0.89808000        +3.60369000
@H        -3.85483000        -1.54728000        +3.39671000
@C        -1.81551000        +2.62229000        +3.73498000
@H        -1.21805000        +3.11835000        +2.96594000
@H        -1.43094000        +2.95910000        +4.69943000
@H        -2.84802000        +2.96106000        +3.63297000
@H        -1.71469000        -2.74910000        +3.26784000
@H        +0.38234000        -1.48683000        +3.37273000
@H        +0.35960000        +0.93032000        +3.57756000
$end

$rem
JOBTYPE                   SP
METHOD                    B3LYP
DFT_D                     d3_op
BASIS                     6-311++G(d,p)
SYMMETRY                  False
THRESH                    12
SCF_CONVERGENCE           8
MAX_SUB_FILE_NUM          128
MEM_STATIC                400
MEM_TOTAL                 4000
$end
--------------------------------------------------------------

             Standard Nuclear Orientation (Angstroms)
    I     Atom           X                Y                Z
 ----------------------------------------------------------------
    1      C      -0.5444400000    -0.6837000000    -0.0668900000
    2      C      -0.5570900000     0.7187800000     0.0549300000
    3      C      -1.7432000000    -1.4161600000    -0.1255200000
    4      C      -2.9395200000    -0.7005600000    -0.0528500000
    5      C      -2.9531300000     0.6825500000     0.0693400000
    6      C      -1.7716100000     1.4240400000     0.1281000000
    7      H      -3.9035400000     1.2032500000     0.1171000000
    8      H      -3.8789200000    -1.2421100000    -0.0898800000
    9      C      -1.8396000000     2.9274600000     0.2483900000
   10      H      -1.2421400000     3.4235200000    -0.5206500000
   11      H      -1.4550300000     3.2642700000     1.2128400000
   12      H      -2.8721100000     3.2662300000     0.1463800000
   13      H      -1.7387800000    -2.4439300000    -0.2187500000
   14      H       0.3582500000    -1.1816600000    -0.1138600000
   15      H       0.3355100000     1.2354900000     0.0909700000
   16      GH     -0.5203500000    -0.9888700000     3.4197000000
   17      GH     -0.5330000000     0.4136100000     3.5415200000
   18      GH     -1.7191100000    -1.7213300000     3.3610700000
   19      GH     -2.9154300000    -1.0057300000     3.4337400000
   20      GH     -2.9290400000     0.3773800000     3.5559300000
   21      GH     -1.7475200000     1.1188700000     3.6146900000
   22      GH     -3.8794500000     0.8980800000     3.6036900000
   23      GH     -3.8548300000    -1.5472800000     3.3967100000
   24      GH     -1.8155100000     2.6222900000     3.7349800000
   25      GH     -1.2180500000     3.1183500000     2.9659400000
   26      GH     -1.4309400000     2.9591000000     4.6994300000
   27      GH     -2.8480200000     2.9610600000     3.6329700000
   28      GH     -1.7146900000    -2.7491000000     3.2678400000
   29      GH      0.3823400000    -1.4868300000     3.3727300000
   30      GH      0.3596000000     0.9303200000     3.5775600000
 ----------------------------------------------------------------

   13    -271.6442434730      1.51E-09 Convergence criterion met
 Total energy in the final basis set = -271.64424347

                    Orbital Energies (a.u.)
 --------------------------------------------------------------

 Alpha MOs
 -- Occupied --
-10.185 -10.174 -10.172 -10.171 -10.170 -10.169 -10.169  -0.858
 -0.776  -0.747  -0.691  -0.611  -0.591  -0.521  -0.465  -0.462
 -0.424  -0.423  -0.418  -0.390  -0.358  -0.350  -0.342  -0.255
 -0.248

          Ground-State Mulliken Net Atomic Charges

     Atom                 Charge (a.u.)
  ----------------------------------------
      1 C                    -0.154255
      2 C                    -0.286927
      3 C                    -0.318568
      4 C                    -0.316522
      5 C                    -0.159527
      6 C                     0.575771
      7 H                     0.162983
      8 H                     0.167894
      9 C                    -0.747152
     10 H                     0.155593
     11 H                     0.185122
     12 H                     0.143457
     13 H                     0.147652
     14 H                     0.162672
     15 H                     0.170632
     16 GH                   -0.013309
     17 GH                    0.108856
     18 GH                   -0.032717
     19 GH                    0.052996
     20 GH                   -0.069530
     21 GH                    0.007595
     22 GH                    0.007778
     23 GH                    0.008009
     24 GH                    0.036909
     25 GH                   -0.020747
     26 GH                    0.002259
     27 GH                   -0.000002
     28 GH                    0.003223
     29 GH                    0.005733
     30 GH                    0.014126
  ----------------------------------------
  Sum of atomic charges =     0.000000

                    Cartesian Multipole Moments
 -----------------------------------------------------------------
    Charge (ESU x 10^10)
                 0.0000
    Dipole Moment (Debye)
         X       0.0595      Y       0.3921      Z       0.0354
       Tot       0.3982
    Quadrupole Moments (Debye-Ang)
        XX     -39.4533     XY      -0.6395     YY     -38.1804
        XZ      -0.0957     YZ       0.7115     ZZ     -46.3230

 Total job time:  104.59s(wall), 416.83s(cpu)
        *  Thank you very much for using Q-Chem.  Have a nice day.  *
