 Q-Chem 5.0, Q-Chem, Inc., Pleasanton, CA (2017)
 Q-Chem 5.0.1 for Intel X86 EM64T Linux

User input:
--------------------------------------------------------------
$molecule
0  1
C        -0.57652000        -0.96781000        +3.43711000
C        -0.60686000        +0.41926000        +3.55809000
C        -1.76733000        -1.69242000        +3.36562000
C        -2.98417000        -1.01690000        +3.41692000
C        -3.00877000        +0.37296000        +3.53799000
C        -1.82413000        +1.11156000        +3.60868000
H        -3.96186000        +0.89059000        +3.57708000
H        -3.91602000        -1.56927000        +3.36218000
C        -1.84878000        +2.61625000        +3.73415000
H        -1.32441000        +3.09027000        +2.89862000
H        -1.35738000        +2.94494000        +4.65510000
H        -2.87209000        +2.99666000        +3.74615000
H        -1.74533000        -2.77225000        +3.27046000
H        +0.37572000        -1.48548000        +3.39825000
H        +0.32503000        +0.97355000        +3.61314000
@C        -0.55335000        -0.66344000        -0.04955000
@C        -0.58369000        +0.72363000        +0.07143000
@C        -1.74416000        -1.38805000        -0.12104000
@C        -2.96100000        -0.71253000        -0.06974000
@C        -2.98560000        +0.67733000        +0.05133000
@C        -1.80096000        +1.41593000        +0.12202000
@H        -3.93869000        +1.19496000        +0.09042000
@H        -3.89285000        -1.26490000        -0.12448000
@C        -1.82561000        +2.92062000        +0.24749000
@H        -1.30124000        +3.39464000        -0.58804000
@H        -1.33421000        +3.24931000        +1.16844000
@H        -2.84892000        +3.30103000        +0.25949000
@H        -1.72216000        -2.46788000        -0.21620000
@H        +0.39889000        -1.18111000        -0.08841000
@H        +0.34820000        +1.27792000        +0.12648000
$end

$rem
JOBTYPE                   SP
METHOD                    B3LYP
DFT_D                     d3_op
BASIS                     6-311++G(d,p)
SYMMETRY                  False
THRESH                    12
SCF_CONVERGENCE           8
MAX_SUB_FILE_NUM          128
MEM_STATIC                400
MEM_TOTAL                 4000
$end
--------------------------------------------------------------

             Standard Nuclear Orientation (Angstroms)
    I     Atom           X                Y                Z
 ----------------------------------------------------------------
    1      C      -0.5765200000    -0.9678100000     3.4371100000
    2      C      -0.6068600000     0.4192600000     3.5580900000
    3      C      -1.7673300000    -1.6924200000     3.3656200000
    4      C      -2.9841700000    -1.0169000000     3.4169200000
    5      C      -3.0087700000     0.3729600000     3.5379900000
    6      C      -1.8241300000     1.1115600000     3.6086800000
    7      H      -3.9618600000     0.8905900000     3.5770800000
    8      H      -3.9160200000    -1.5692700000     3.3621800000
    9      C      -1.8487800000     2.6162500000     3.7341500000
   10      H      -1.3244100000     3.0902700000     2.8986200000
   11      H      -1.3573800000     2.9449400000     4.6551000000
   12      H      -2.8720900000     2.9966600000     3.7461500000
   13      H      -1.7453300000    -2.7722500000     3.2704600000
   14      H       0.3757200000    -1.4854800000     3.3982500000
   15      H       0.3250300000     0.9735500000     3.6131400000
   16      GH     -0.5533500000    -0.6634400000    -0.0495500000
   17      GH     -0.5836900000     0.7236300000     0.0714300000
   18      GH     -1.7441600000    -1.3880500000    -0.1210400000
   19      GH     -2.9610000000    -0.7125300000    -0.0697400000
   20      GH     -2.9856000000     0.6773300000     0.0513300000
   21      GH     -1.8009600000     1.4159300000     0.1220200000
   22      GH     -3.9386900000     1.1949600000     0.0904200000
   23      GH     -3.8928500000    -1.2649000000    -0.1244800000
   24      GH     -1.8256100000     2.9206200000     0.2474900000
   25      GH     -1.3012400000     3.3946400000    -0.5880400000
   26      GH     -1.3342100000     3.2493100000     1.1684400000
   27      GH     -2.8489200000     3.3010300000     0.2594900000
   28      GH     -1.7221600000    -2.4678800000    -0.2162000000
   29      GH      0.3988900000    -1.1811100000    -0.0884100000
   30      GH      0.3482000000     1.2779200000     0.1264800000
 ----------------------------------------------------------------

   13    -271.6510553819      8.59E-10 Convergence criterion met
 Total energy in the final basis set = -271.65105538

                    Orbital Energies (a.u.)
 --------------------------------------------------------------

 Alpha MOs
 -- Occupied --
-10.185 -10.176 -10.175 -10.173 -10.173 -10.173 -10.170  -0.860
 -0.775  -0.748  -0.689  -0.608  -0.587  -0.515  -0.464  -0.457
 -0.424  -0.423  -0.412  -0.389  -0.359  -0.346  -0.343  -0.257
 -0.248

          Ground-State Mulliken Net Atomic Charges

     Atom                 Charge (a.u.)
  ----------------------------------------
      1 C                    -0.214253
      2 C                    -0.110859
      3 C                    -0.371219
      4 C                    -0.256018
      5 C                    -0.243094
      6 C                     0.522075
      7 H                     0.163481
      8 H                     0.174425
      9 C                    -0.749794
     10 H                     0.175326
     11 H                     0.161678
     12 H                     0.141743
     13 H                     0.154622
     14 H                     0.169831
     15 H                     0.182065
     16 GH                    0.023896
     17 GH                    0.040575
     18 GH                   -0.014110
     19 GH                    0.007380
     20 GH                    0.008700
     21 GH                   -0.009785
     22 GH                    0.011742
     23 GH                    0.004770
     24 GH                    0.022444
     25 GH                    0.001994
     26 GH                   -0.015922
     27 GH                   -0.001096
     28 GH                    0.003918
     29 GH                    0.005981
     30 GH                    0.009505
  ----------------------------------------
  Sum of atomic charges =     0.000000

                    Cartesian Multipole Moments
 -----------------------------------------------------------------
    Charge (ESU x 10^10)
                 0.0000
    Dipole Moment (Debye)
         X       0.0339      Y       0.4056      Z       0.0329
       Tot       0.4083
    Quadrupole Moments (Debye-Ang)
        XX     -39.3300     XY      -0.6710     YY     -38.7322
        XZ       0.1178     YZ       2.0994     ZZ     -46.1908

 Total job time:  119.06s(wall), 468.74s(cpu)
        *  Thank you very much for using Q-Chem.  Have a nice day.  *
