 Q-Chem 5.0, Q-Chem, Inc., Pleasanton, CA (2017)
 Q-Chem 5.0.1 for Intel X86 EM64T Linux

User input:
--------------------------------------------------------------
$molecule
0  1
--
0  1
C        -0.54444000        -0.68370000        -0.06689000
C        -0.55709000        +0.71878000        +0.05493000
C        -1.74320000        -1.41616000        -0.12552000
C        -2.93952000        -0.70056000        -0.05285000
C        -2.95313000        +0.68255000        +0.06934000
C        -1.77161000        +1.42404000        +0.12810000
H        -3.90354000        +1.20325000        +0.11710000
H        -3.87892000        -1.24211000        -0.08988000
C        -1.83960000        +2.92746000        +0.24839000
H        -1.24214000        +3.42352000        -0.52065000
H        -1.45503000        +3.26427000        +1.21284000
H        -2.87211000        +3.26623000        +0.14638000
H        -1.73878000        -2.44393000        -0.21875000
H        +0.35825000        -1.18166000        -0.11386000
H        +0.33551000        +1.23549000        +0.09097000
--
0  1
C        -0.78368000        -1.18418000        +6.91110000
C        -0.79633000        +0.21830000        +7.03292000
C        -1.98244000        -1.91664000        +6.85247000
C        -3.17876000        -1.20104000        +6.92514000
C        -3.19237000        +0.18207000        +7.04733000
C        -2.01085000        +0.92356000        +7.10609000
H        -4.14278000        +0.70277000        +7.09509000
H        -4.11816000        -1.74259000        +6.88811000
C        -2.07884000        +2.42698000        +7.22638000
H        -1.48138000        +2.92304000        +6.45734000
H        -1.69427000        +2.76379000        +8.19083000
H        -3.11135000        +2.76575000        +7.12437000
H        -1.97802000        -2.94441000        +6.75924000
H        +0.11901000        -1.68214000        +6.86413000
H        +0.09627000        +0.73501000        +7.06896000
$end

$rem
JOBTYPE                   SP
METHOD                    B3LYP
DFT_D                     d3_op
BASIS                     6-311++G(d,p)
SYMMETRY                  False
THRESH                    12
SCF_CONVERGENCE           8
MAX_SUB_FILE_NUM          128
MEM_STATIC                400
MEM_TOTAL                 4000
$end
--------------------------------------------------------------

             Standard Nuclear Orientation (Angstroms)
    I     Atom           X                Y                Z
 ----------------------------------------------------------------
    1      C       3.5755370261    -1.2140765074     1.1763287422
    2      C       3.5488839927     0.1932169490     1.2039878925
    3      C       3.5386143618    -1.9150861401    -0.0419417030
    4      C       3.4692581513    -1.1631290300    -1.2159502429
    5      C       3.4408837976     0.2248969138    -1.1897247636
    6      C       3.4776343101     0.9354024952     0.0115582533
    7      H       3.3924785052     0.7739392380    -2.1240149378
    8      H       3.4336396783    -1.6795220895    -2.1694645406
    9      C       3.4572582964     2.4448120989    -0.0135711520
   10      H       4.2803977014     2.8714502628     0.5651151999
   11      H       2.5332513924     2.8345266930     0.4175119492
   12      H       3.5426847146     2.8046742151    -1.0404351340
   13      H       3.5619072198    -2.9465129783    -0.0672134769
   14      H       3.6228837628    -1.7390543859     2.0635581896
   15      H       3.5820211326     0.6860748601     2.1100871560
   16      C      -3.4243703228    -1.2397483671     1.2027580797
   17      C      -3.4510233563     0.1675450893     1.2304172300
   18      C      -3.4612929871    -1.9407579998    -0.0155123656
   19      C      -3.5306491976    -1.1888008897    -1.1895209055
   20      C      -3.5590235513     0.1992250541    -1.1632954262
   21      C      -3.5222730388     0.9097306356     0.0379875907
   22      H      -3.6074288438     0.7482673783    -2.0975856004
   23      H      -3.5662676707    -1.7051939492    -2.1430352032
   24      C      -3.5426490526     2.4191402392     0.0128581855
   25      H      -2.7195096475     2.8457784031     0.5915445373
   26      H      -4.4666559565     2.8088548333     0.4439412866
   27      H      -3.4572226343     2.7790023554    -1.0140057965
   28      H      -3.4380001292    -2.9721848380    -0.0407841395
   29      H      -3.3770235862    -1.7647262456     2.0899875270
   30      H      -3.4178862163     0.6604030004     2.1365164934
 ----------------------------------------------------------------

   13    -543.2870047507      3.78E-09 Convergence criterion met
 Total energy in the final basis set = -543.28700475

                    Orbital Energies (a.u.)
 --------------------------------------------------------------

 Alpha MOs
 -- Occupied --
-10.184 -10.183 -10.172 -10.172 -10.170 -10.170 -10.169 -10.169
-10.169 -10.168 -10.168 -10.168 -10.168 -10.168  -0.857  -0.856
 -0.774  -0.774  -0.746  -0.746  -0.690  -0.690  -0.609  -0.609
 -0.589  -0.589  -0.520  -0.520  -0.464  -0.464  -0.461  -0.461
 -0.423  -0.423  -0.422  -0.421  -0.417  -0.417  -0.389  -0.389
 -0.356  -0.356  -0.349  -0.349  -0.341  -0.341  -0.253  -0.253
 -0.246  -0.246

          Ground-State Mulliken Net Atomic Charges

     Atom                 Charge (a.u.)
  ----------------------------------------
      1 C                     0.000378
      2 C                    -0.421561
      3 C                    -0.339280
      4 C                    -0.019729
      5 C                    -0.859806
      6 C                     1.032029
      7 H                     0.120753
      8 H                     0.169517
      9 C                    -0.582088
     10 H                     0.147079
     11 H                     0.153099
     12 H                     0.149211
     13 H                     0.143376
     14 H                     0.156930
     15 H                     0.149901
     16 C                    -0.031451
     17 C                    -0.389285
     18 C                    -0.315131
     19 C                    -0.070303
     20 C                    -0.791376
     21 C                     0.985766
     22 H                     0.123565
     23 H                     0.168981
     24 C                    -0.582996
     25 H                     0.145569
     26 H                     0.157714
     27 H                     0.148782
     28 H                     0.143498
     29 H                     0.157203
     30 H                     0.149655
  ----------------------------------------
  Sum of atomic charges =    -0.000000

                    Cartesian Multipole Moments
 -----------------------------------------------------------------
    Charge (ESU x 10^10)
                -0.0000
    Dipole Moment (Debye)
         X      -0.0134      Y       0.7246      Z       0.1397
       Tot       0.7380
    Quadrupole Moments (Debye-Ang)
        XX     -93.5150     XY      -0.2976     YY     -76.9262
        XZ       0.5981     YZ       0.0874     ZZ     -78.3249

 Total job time:  57.07s(wall), 226.86s(cpu)
        *  Thank you very much for using Q-Chem.  Have a nice day.  *
