 Q-Chem 5.0, Q-Chem, Inc., Pleasanton, CA (2017)
 Q-Chem 5.0.1 for Intel X86 EM64T Linux

User input:
--------------------------------------------------------------
$molecule
0  1
C        -0.54444000        -0.68370000        -0.06689000
C        -0.55709000        +0.71878000        +0.05493000
C        -1.74320000        -1.41616000        -0.12552000
C        -2.93952000        -0.70056000        -0.05285000
C        -2.95313000        +0.68255000        +0.06934000
C        -1.77161000        +1.42404000        +0.12810000
H        -3.90354000        +1.20325000        +0.11710000
H        -3.87892000        -1.24211000        -0.08988000
C        -1.83960000        +2.92746000        +0.24839000
H        -1.24214000        +3.42352000        -0.52065000
H        -1.45503000        +3.26427000        +1.21284000
H        -2.87211000        +3.26623000        +0.14638000
H        -1.73878000        -2.44393000        -0.21875000
H        +0.35825000        -1.18166000        -0.11386000
H        +0.33551000        +1.23549000        +0.09097000
@C        -0.51072000        -1.11094000        +4.81433000
@C        -0.52337000        +0.29154000        +4.93615000
@C        -1.70948000        -1.84340000        +4.75570000
@C        -2.90580000        -1.12780000        +4.82837000
@C        -2.91941000        +0.25531000        +4.95056000
@C        -1.73789000        +0.99680000        +5.00932000
@H        -3.86982000        +0.77601000        +4.99832000
@H        -3.84520000        -1.66935000        +4.79134000
@C        -1.80588000        +2.50022000        +5.12961000
@H        -1.20842000        +2.99628000        +4.36057000
@H        -1.42131000        +2.83703000        +6.09406000
@H        -2.83839000        +2.83899000        +5.02760000
@H        -1.70506000        -2.87117000        +4.66247000
@H        +0.39197000        -1.60890000        +4.76736000
@H        +0.36923000        +0.80825000        +4.97219000
$end

$rem
JOBTYPE                   SP
METHOD                    B3LYP
DFT_D                     d3_op
BASIS                     6-311++G(d,p)
SYMMETRY                  False
THRESH                    12
SCF_CONVERGENCE           8
MAX_SUB_FILE_NUM          128
MEM_STATIC                400
MEM_TOTAL                 4000
$end
--------------------------------------------------------------

             Standard Nuclear Orientation (Angstroms)
    I     Atom           X                Y                Z
 ----------------------------------------------------------------
    1      C      -0.5444400000    -0.6837000000    -0.0668900000
    2      C      -0.5570900000     0.7187800000     0.0549300000
    3      C      -1.7432000000    -1.4161600000    -0.1255200000
    4      C      -2.9395200000    -0.7005600000    -0.0528500000
    5      C      -2.9531300000     0.6825500000     0.0693400000
    6      C      -1.7716100000     1.4240400000     0.1281000000
    7      H      -3.9035400000     1.2032500000     0.1171000000
    8      H      -3.8789200000    -1.2421100000    -0.0898800000
    9      C      -1.8396000000     2.9274600000     0.2483900000
   10      H      -1.2421400000     3.4235200000    -0.5206500000
   11      H      -1.4550300000     3.2642700000     1.2128400000
   12      H      -2.8721100000     3.2662300000     0.1463800000
   13      H      -1.7387800000    -2.4439300000    -0.2187500000
   14      H       0.3582500000    -1.1816600000    -0.1138600000
   15      H       0.3355100000     1.2354900000     0.0909700000
   16      GH     -0.5107200000    -1.1109400000     4.8143300000
   17      GH     -0.5233700000     0.2915400000     4.9361500000
   18      GH     -1.7094800000    -1.8434000000     4.7557000000
   19      GH     -2.9058000000    -1.1278000000     4.8283700000
   20      GH     -2.9194100000     0.2553100000     4.9505600000
   21      GH     -1.7378900000     0.9968000000     5.0093200000
   22      GH     -3.8698200000     0.7760100000     4.9983200000
   23      GH     -3.8452000000    -1.6693500000     4.7913400000
   24      GH     -1.8058800000     2.5002200000     5.1296100000
   25      GH     -1.2084200000     2.9962800000     4.3605700000
   26      GH     -1.4213100000     2.8370300000     6.0940600000
   27      GH     -2.8383900000     2.8389900000     5.0276000000
   28      GH     -1.7050600000    -2.8711700000     4.6624700000
   29      GH      0.3919700000    -1.6089000000     4.7673600000
   30      GH      0.3692300000     0.8082500000     4.9721900000
 ----------------------------------------------------------------

   12    -271.6436959392      9.80E-09 Convergence criterion met
 Total energy in the final basis set = -271.64369594

                    Orbital Energies (a.u.)
 --------------------------------------------------------------

 Alpha MOs
 -- Occupied --
-10.185 -10.174 -10.172 -10.171 -10.170 -10.169 -10.169  -0.858
 -0.776  -0.747  -0.691  -0.611  -0.591  -0.521  -0.465  -0.462
 -0.424  -0.423  -0.418  -0.390  -0.358  -0.350  -0.342  -0.255
 -0.247

          Ground-State Mulliken Net Atomic Charges

     Atom                 Charge (a.u.)
  ----------------------------------------
      1 C                    -0.067411
      2 C                    -0.427401
      3 C                    -0.334241
      4 C                    -0.117150
      5 C                    -0.560390
      6 C                     0.922091
      7 H                     0.150646
      8 H                     0.169199
      9 C                    -0.654248
     10 H                     0.147053
     11 H                     0.161900
     12 H                     0.143395
     13 H                     0.150539
     14 H                     0.160106
     15 H                     0.168242
     16 GH                   -0.021720
     17 GH                    0.027953
     18 GH                    0.024264
     19 GH                   -0.022641
     20 GH                   -0.005693
     21 GH                   -0.017083
     22 GH                   -0.000469
     23 GH                   -0.000089
     24 GH                    0.001368
     25 GH                   -0.001420
     26 GH                   -0.000515
     27 GH                    0.001450
     28 GH                    0.001985
     29 GH                   -0.000526
     30 GH                    0.000805
  ----------------------------------------
  Sum of atomic charges =     0.000000

                    Cartesian Multipole Moments
 -----------------------------------------------------------------
    Charge (ESU x 10^10)
                 0.0000
    Dipole Moment (Debye)
         X       0.0621      Y       0.3866      Z       0.0410
       Tot       0.3937
    Quadrupole Moments (Debye-Ang)
        XX     -39.3624     XY      -0.6290     YY     -38.0806
        XZ      -0.1034     YZ       0.7269     ZZ     -46.4017

 Total job time:  79.60s(wall), 317.13s(cpu)
        *  Thank you very much for using Q-Chem.  Have a nice day.  *
