 Q-Chem 5.0, Q-Chem, Inc., Pleasanton, CA (2017)
 Q-Chem 5.0.1 for Intel X86 EM64T Linux

User input:
--------------------------------------------------------------
$molecule
0  1
C        -0.49627000        -1.29404000        +6.90628000
C        -0.50892000        +0.10844000        +7.02810000
C        -1.69503000        -2.02650000        +6.84765000
C        -2.89135000        -1.31090000        +6.92032000
C        -2.90496000        +0.07221000        +7.04251000
C        -1.72344000        +0.81370000        +7.10127000
H        -3.85537000        +0.59291000        +7.09027000
H        -3.83075000        -1.85245000        +6.88329000
C        -1.79143000        +2.31712000        +7.22156000
H        -1.19397000        +2.81318000        +6.45252000
H        -1.40686000        +2.65393000        +8.18601000
H        -2.82394000        +2.65589000        +7.11955000
H        -1.69061000        -3.05427000        +6.75442000
H        +0.40642000        -1.79200000        +6.85931000
H        +0.38368000        +0.62515000        +7.06414000
@C        -0.54444000        -0.68370000        -0.06689000
@C        -0.55709000        +0.71878000        +0.05493000
@C        -1.74320000        -1.41616000        -0.12552000
@C        -2.93952000        -0.70056000        -0.05285000
@C        -2.95313000        +0.68255000        +0.06934000
@C        -1.77161000        +1.42404000        +0.12810000
@H        -3.90354000        +1.20325000        +0.11710000
@H        -3.87892000        -1.24211000        -0.08988000
@C        -1.83960000        +2.92746000        +0.24839000
@H        -1.24214000        +3.42352000        -0.52065000
@H        -1.45503000        +3.26427000        +1.21284000
@H        -2.87211000        +3.26623000        +0.14638000
@H        -1.73878000        -2.44393000        -0.21875000
@H        +0.35825000        -1.18166000        -0.11386000
@H        +0.33551000        +1.23549000        +0.09097000
$end

$rem
JOBTYPE                   SP
METHOD                    B3LYP
DFT_D                     d3_op
BASIS                     6-311++G(d,p)
SYMMETRY                  False
THRESH                    12
SCF_CONVERGENCE           8
MAX_SUB_FILE_NUM          128
MEM_STATIC                400
MEM_TOTAL                 4000
$end
--------------------------------------------------------------

             Standard Nuclear Orientation (Angstroms)
    I     Atom           X                Y                Z
 ----------------------------------------------------------------
    1      C      -0.4962700000    -1.2940400000     6.9062800000
    2      C      -0.5089200000     0.1084400000     7.0281000000
    3      C      -1.6950300000    -2.0265000000     6.8476500000
    4      C      -2.8913500000    -1.3109000000     6.9203200000
    5      C      -2.9049600000     0.0722100000     7.0425100000
    6      C      -1.7234400000     0.8137000000     7.1012700000
    7      H      -3.8553700000     0.5929100000     7.0902700000
    8      H      -3.8307500000    -1.8524500000     6.8832900000
    9      C      -1.7914300000     2.3171200000     7.2215600000
   10      H      -1.1939700000     2.8131800000     6.4525200000
   11      H      -1.4068600000     2.6539300000     8.1860100000
   12      H      -2.8239400000     2.6558900000     7.1195500000
   13      H      -1.6906100000    -3.0542700000     6.7544200000
   14      H       0.4064200000    -1.7920000000     6.8593100000
   15      H       0.3836800000     0.6251500000     7.0641400000
   16      GH     -0.5444400000    -0.6837000000    -0.0668900000
   17      GH     -0.5570900000     0.7187800000     0.0549300000
   18      GH     -1.7432000000    -1.4161600000    -0.1255200000
   19      GH     -2.9395200000    -0.7005600000    -0.0528500000
   20      GH     -2.9531300000     0.6825500000     0.0693400000
   21      GH     -1.7716100000     1.4240400000     0.1281000000
   22      GH     -3.9035400000     1.2032500000     0.1171000000
   23      GH     -3.8789200000    -1.2421100000    -0.0898800000
   24      GH     -1.8396000000     2.9274600000     0.2483900000
   25      GH     -1.2421400000     3.4235200000    -0.5206500000
   26      GH     -1.4550300000     3.2642700000     1.2128400000
   27      GH     -2.8721100000     3.2662300000     0.1463800000
   28      GH     -1.7387800000    -2.4439300000    -0.2187500000
   29      GH      0.3582500000    -1.1816600000    -0.1138600000
   30      GH      0.3355100000     1.2354900000     0.0909700000
 ----------------------------------------------------------------

   12    -271.6435332872      9.49E-09 Convergence criterion met
 Total energy in the final basis set = -271.64353329

                    Orbital Energies (a.u.)
 --------------------------------------------------------------

 Alpha MOs
 -- Occupied --
-10.185 -10.174 -10.172 -10.171 -10.170 -10.169 -10.169  -0.858
 -0.776  -0.747  -0.691  -0.611  -0.591  -0.521  -0.465  -0.462
 -0.424  -0.423  -0.418  -0.390  -0.358  -0.350  -0.342  -0.255
 -0.247

          Ground-State Mulliken Net Atomic Charges

     Atom                 Charge (a.u.)
  ----------------------------------------
      1 C                    -0.037913
      2 C                    -0.385689
      3 C                    -0.312622
      4 C                    -0.074260
      5 C                    -0.782408
      6 C                     0.972746
      7 H                     0.124729
      8 H                     0.169667
      9 C                    -0.580379
     10 H                     0.146107
     11 H                     0.158154
     12 H                     0.148853
     13 H                     0.144231
     14 H                     0.158052
     15 H                     0.151054
     16 GH                    0.000245
     17 GH                   -0.000238
     18 GH                    0.000102
     19 GH                    0.000359
     20 GH                   -0.001773
     21 GH                    0.000979
     22 GH                   -0.000282
     23 GH                   -0.000037
     24 GH                    0.000602
     25 GH                    0.000009
     26 GH                   -0.000038
     27 GH                    0.000037
     28 GH                   -0.000019
     29 GH                   -0.000106
     30 GH                   -0.000162
  ----------------------------------------
  Sum of atomic charges =    -0.000000

                    Cartesian Multipole Moments
 -----------------------------------------------------------------
    Charge (ESU x 10^10)
                -0.0000
    Dipole Moment (Debye)
         X       0.0623      Y       0.3877      Z       0.0327
       Tot       0.3940
    Quadrupole Moments (Debye-Ang)
        XX     -39.3419     XY      -0.6500     YY     -38.5387
        XZ       0.3488     YZ       3.4139     ZZ     -45.9657

 Total job time:  50.72s(wall), 202.23s(cpu)
        *  Thank you very much for using Q-Chem.  Have a nice day.  *
