 Q-Chem 5.0, Q-Chem, Inc., Pleasanton, CA (2017)
 Q-Chem 5.0.1 for Intel X86 EM64T Linux

User input:
--------------------------------------------------------------
$molecule
0  1
--
0  1
C        -0.54444000        -0.68370000        -0.06689000
C        -0.55709000        +0.71878000        +0.05493000
C        -1.74320000        -1.41616000        -0.12552000
C        -2.93952000        -0.70056000        -0.05285000
C        -2.95313000        +0.68255000        +0.06934000
C        -1.77161000        +1.42404000        +0.12810000
H        -3.90354000        +1.20325000        +0.11710000
H        -3.87892000        -1.24211000        -0.08988000
C        -1.83960000        +2.92746000        +0.24839000
H        -1.24214000        +3.42352000        -0.52065000
H        -1.45503000        +3.26427000        +1.21284000
H        -2.87211000        +3.26623000        +0.14638000
H        -1.73878000        -2.44393000        -0.21875000
H        +0.35825000        -1.18166000        -0.11386000
H        +0.33551000        +1.23549000        +0.09097000
--
0  1
C        -0.49627000        -1.29404000        +6.90628000
C        -0.50892000        +0.10844000        +7.02810000
C        -1.69503000        -2.02650000        +6.84765000
C        -2.89135000        -1.31090000        +6.92032000
C        -2.90496000        +0.07221000        +7.04251000
C        -1.72344000        +0.81370000        +7.10127000
H        -3.85537000        +0.59291000        +7.09027000
H        -3.83075000        -1.85245000        +6.88329000
C        -1.79143000        +2.31712000        +7.22156000
H        -1.19397000        +2.81318000        +6.45252000
H        -1.40686000        +2.65393000        +8.18601000
H        -2.82394000        +2.65589000        +7.11955000
H        -1.69061000        -3.05427000        +6.75442000
H        +0.40642000        -1.79200000        +6.85931000
H        +0.38368000        +0.62515000        +7.06414000
$end

$rem
JOBTYPE                   SP
METHOD                    B3LYP
DFT_D                     d3_op
BASIS                     6-311++G(d,p)
SYMMETRY                  False
THRESH                    12
SCF_CONVERGENCE           8
MAX_SUB_FILE_NUM          128
MEM_STATIC                400
MEM_TOTAL                 4000
$end
--------------------------------------------------------------

             Standard Nuclear Orientation (Angstroms)
    I     Atom           X                Y                Z
 ----------------------------------------------------------------
    1      C       3.4970450936    -1.2301187231     1.1901174090
    2      C       3.4986128106     0.1774119323     1.2184948930
    3      C       3.4995877120    -1.9296639580    -0.0295508514
    4      C       3.4981422679    -1.1759015343    -1.2044491239
    5      C       3.4976516277     0.2124025182    -1.1776066653
    6      C       3.4958895563     0.9214527156     0.0250962825
    7      H       3.5022503095     0.7627501803    -2.1123713302
    8      H       3.4940951012    -1.6910147877    -2.1593113862
    9      C       3.5082043041     2.4309689339     0.0011556395
   10      H       4.3135849395     2.8400192690     0.6163762116
   11      H       2.5743222843     2.8397593435     0.3913525612
   12      H       3.6466281007     2.7894158935    -1.0204130967
   13      H       3.5024145526    -2.9613411507    -0.0551774249
   14      H       3.4939809704    -1.7563642948     2.0778537370
   15      H       3.5017942349     0.6690680800     2.1258465209
   16      C      -3.5029497354    -1.2273828767     1.1899693573
   17      C      -3.5013820184     0.1801477787     1.2183468413
   18      C      -3.5004071170    -1.9269281117    -0.0296989031
   19      C      -3.5018525612    -1.1731656879    -1.2045971756
   20      C      -3.5023432013     0.2151383645    -1.1777547170
   21      C      -3.5041052728     0.9241885620     0.0249482308
   22      H      -3.4977445196     0.7654860266    -2.1125193819
   23      H      -3.5058997278    -1.6882789414    -2.1594594379
   24      C      -3.4917905250     2.4337047803     0.0010075878
   25      H      -2.6864098896     2.8427551153     0.6162281599
   26      H      -4.4256725448     2.8424951898     0.3912045095
   27      H      -3.3533667283     2.7921517399    -1.0205611483
   28      H      -3.4975802764    -2.9586053043    -0.0553254766
   29      H      -3.5060138586    -1.7536284484     2.0777056853
   30      H      -3.4982005942     0.6718039263     2.1256984692
 ----------------------------------------------------------------

   13    -543.2870128426      3.75E-09 Convergence criterion met
 Total energy in the final basis set = -543.28701284

                    Orbital Energies (a.u.)
 --------------------------------------------------------------

 Alpha MOs
 -- Occupied --
-10.184 -10.184 -10.172 -10.172 -10.170 -10.170 -10.169 -10.169
-10.169 -10.168 -10.168 -10.168 -10.168 -10.168  -0.856  -0.856
 -0.774  -0.774  -0.746  -0.746  -0.690  -0.690  -0.609  -0.609
 -0.589  -0.589  -0.520  -0.520  -0.464  -0.464  -0.461  -0.461
 -0.423  -0.423  -0.422  -0.421  -0.417  -0.417  -0.389  -0.389
 -0.356  -0.356  -0.349  -0.349  -0.341  -0.341  -0.253  -0.253
 -0.246  -0.246

          Ground-State Mulliken Net Atomic Charges

     Atom                 Charge (a.u.)
  ----------------------------------------
      1 C                     0.005220
      2 C                    -0.422505
      3 C                    -0.341322
      4 C                    -0.020373
      5 C                    -0.861220
      6 C                     1.031276
      7 H                     0.120983
      8 H                     0.169472
      9 C                    -0.581371
     10 H                     0.147298
     11 H                     0.153457
     12 H                     0.149191
     13 H                     0.143213
     14 H                     0.157153
     15 H                     0.149368
     16 C                    -0.033075
     17 C                    -0.391841
     18 C                    -0.312887
     19 C                    -0.071401
     20 C                    -0.786839
     21 C                     0.983535
     22 H                     0.123702
     23 H                     0.168706
     24 C                    -0.581892
     25 H                     0.145552
     26 H                     0.157648
     27 H                     0.148539
     28 H                     0.143556
     29 H                     0.157210
     30 H                     0.149648
  ----------------------------------------
  Sum of atomic charges =    -0.000000

                    Cartesian Multipole Moments
 -----------------------------------------------------------------
    Charge (ESU x 10^10)
                -0.0000
    Dipole Moment (Debye)
         X      -0.0033      Y       0.7246      Z       0.1401
       Tot       0.7380
    Quadrupole Moments (Debye-Ang)
        XX     -93.5470     XY       0.0320     YY     -76.9210
        XZ      -0.0310     YZ       0.0764     ZZ     -78.2978

 Total job time:  56.56s(wall), 225.51s(cpu)
        *  Thank you very much for using Q-Chem.  Have a nice day.  *
