 Q-Chem 5.0, Q-Chem, Inc., Pleasanton, CA (2017)
 Q-Chem 5.0.1 for Intel X86 EM64T Linux

User input:
--------------------------------------------------------------
$molecule
0  1
C        -0.54444000        -0.68370000        -0.06689000
C        -0.55709000        +0.71878000        +0.05493000
C        -1.74320000        -1.41616000        -0.12552000
C        -2.93952000        -0.70056000        -0.05285000
C        -2.95313000        +0.68255000        +0.06934000
C        -1.77161000        +1.42404000        +0.12810000
H        -3.90354000        +1.20325000        +0.11710000
H        -3.87892000        -1.24211000        -0.08988000
C        -1.83960000        +2.92746000        +0.24839000
H        -1.24214000        +3.42352000        -0.52065000
H        -1.45503000        +3.26427000        +1.21284000
H        -2.87211000        +3.26623000        +0.14638000
H        -1.73878000        -2.44393000        -0.21875000
H        +0.35825000        -1.18166000        -0.11386000
H        +0.33551000        +1.23549000        +0.09097000
@C        -0.78368000        -1.18418000        +6.91110000
@C        -0.79633000        +0.21830000        +7.03292000
@C        -1.98244000        -1.91664000        +6.85247000
@C        -3.17876000        -1.20104000        +6.92514000
@C        -3.19237000        +0.18207000        +7.04733000
@C        -2.01085000        +0.92356000        +7.10609000
@H        -4.14278000        +0.70277000        +7.09509000
@H        -4.11816000        -1.74259000        +6.88811000
@C        -2.07884000        +2.42698000        +7.22638000
@H        -1.48138000        +2.92304000        +6.45734000
@H        -1.69427000        +2.76379000        +8.19083000
@H        -3.11135000        +2.76575000        +7.12437000
@H        -1.97802000        -2.94441000        +6.75924000
@H        +0.11901000        -1.68214000        +6.86413000
@H        +0.09627000        +0.73501000        +7.06896000
$end

$rem
JOBTYPE                   SP
METHOD                    B3LYP
DFT_D                     d3_op
BASIS                     6-311++G(d,p)
SYMMETRY                  False
THRESH                    12
SCF_CONVERGENCE           8
MAX_SUB_FILE_NUM          128
MEM_STATIC                400
MEM_TOTAL                 4000
$end
--------------------------------------------------------------

             Standard Nuclear Orientation (Angstroms)
    I     Atom           X                Y                Z
 ----------------------------------------------------------------
    1      C      -0.5444400000    -0.6837000000    -0.0668900000
    2      C      -0.5570900000     0.7187800000     0.0549300000
    3      C      -1.7432000000    -1.4161600000    -0.1255200000
    4      C      -2.9395200000    -0.7005600000    -0.0528500000
    5      C      -2.9531300000     0.6825500000     0.0693400000
    6      C      -1.7716100000     1.4240400000     0.1281000000
    7      H      -3.9035400000     1.2032500000     0.1171000000
    8      H      -3.8789200000    -1.2421100000    -0.0898800000
    9      C      -1.8396000000     2.9274600000     0.2483900000
   10      H      -1.2421400000     3.4235200000    -0.5206500000
   11      H      -1.4550300000     3.2642700000     1.2128400000
   12      H      -2.8721100000     3.2662300000     0.1463800000
   13      H      -1.7387800000    -2.4439300000    -0.2187500000
   14      H       0.3582500000    -1.1816600000    -0.1138600000
   15      H       0.3355100000     1.2354900000     0.0909700000
   16      GH     -0.7836800000    -1.1841800000     6.9111000000
   17      GH     -0.7963300000     0.2183000000     7.0329200000
   18      GH     -1.9824400000    -1.9166400000     6.8524700000
   19      GH     -3.1787600000    -1.2010400000     6.9251400000
   20      GH     -3.1923700000     0.1820700000     7.0473300000
   21      GH     -2.0108500000     0.9235600000     7.1060900000
   22      GH     -4.1427800000     0.7027700000     7.0950900000
   23      GH     -4.1181600000    -1.7425900000     6.8881100000
   24      GH     -2.0788400000     2.4269800000     7.2263800000
   25      GH     -1.4813800000     2.9230400000     6.4573400000
   26      GH     -1.6942700000     2.7637900000     8.1908300000
   27      GH     -3.1113500000     2.7657500000     7.1243700000
   28      GH     -1.9780200000    -2.9444100000     6.7592400000
   29      GH      0.1190100000    -1.6821400000     6.8641300000
   30      GH      0.0962700000     0.7350100000     7.0689600000
 ----------------------------------------------------------------

   12    -271.6435386055      9.50E-09 Convergence criterion met
 Total energy in the final basis set = -271.64353861

                    Orbital Energies (a.u.)
 --------------------------------------------------------------

 Alpha MOs
 -- Occupied --
-10.185 -10.174 -10.172 -10.171 -10.170 -10.169 -10.169  -0.858
 -0.776  -0.748  -0.691  -0.611  -0.591  -0.521  -0.465  -0.463
 -0.424  -0.423  -0.418  -0.390  -0.358  -0.350  -0.342  -0.255
 -0.247

          Ground-State Mulliken Net Atomic Charges

     Atom                 Charge (a.u.)
  ----------------------------------------
      1 C                    -0.004042
      2 C                    -0.415488
      3 C                    -0.338330
      4 C                    -0.023250
      5 C                    -0.853831
      6 C                     1.018461
      7 H                     0.122030
      8 H                     0.170255
      9 C                    -0.579705
     10 H                     0.147496
     11 H                     0.154086
     12 H                     0.149430
     13 H                     0.144084
     14 H                     0.157803
     15 H                     0.151147
     16 GH                    0.000451
     17 GH                   -0.000859
     18 GH                    0.000260
     19 GH                    0.000166
     20 GH                   -0.001211
     21 GH                    0.000918
     22 GH                   -0.000170
     23 GH                   -0.000067
     24 GH                    0.000524
     25 GH                    0.000172
     26 GH                    0.000008
     27 GH                   -0.000018
     28 GH                   -0.000021
     29 GH                   -0.000086
     30 GH                   -0.000213
  ----------------------------------------
  Sum of atomic charges =    -0.000000

                    Cartesian Multipole Moments
 -----------------------------------------------------------------
    Charge (ESU x 10^10)
                -0.0000
    Dipole Moment (Debye)
         X       0.0622      Y       0.3877      Z       0.0357
       Tot       0.3943
    Quadrupole Moments (Debye-Ang)
        XX     -39.3481     XY      -0.6308     YY     -38.0661
        XZ      -0.0930     YZ       0.7293     ZZ     -46.4226

 Total job time:  50.98s(wall), 202.65s(cpu)
        *  Thank you very much for using Q-Chem.  Have a nice day.  *
