 Q-Chem 5.0, Q-Chem, Inc., Pleasanton, CA (2017)
 Q-Chem 5.0.1 for Intel X86 EM64T Linux

User input:
--------------------------------------------------------------
$molecule
0  1
--
0  1
C        -0.54444000        -0.68370000        -0.06689000
C        -0.55709000        +0.71878000        +0.05493000
C        -1.74320000        -1.41616000        -0.12552000
C        -2.93952000        -0.70056000        -0.05285000
C        -2.95313000        +0.68255000        +0.06934000
C        -1.77161000        +1.42404000        +0.12810000
H        -3.90354000        +1.20325000        +0.11710000
H        -3.87892000        -1.24211000        -0.08988000
C        -1.83960000        +2.92746000        +0.24839000
C        -1.78103000        -2.92226000        -0.24590000
H        -1.39752000        -3.25223000        -1.21323000
H        -2.80572000        -3.28175000        -0.13627000
H        -1.16958000        -3.40777000        +0.51926000
H        -1.24214000        +3.42352000        -0.52065000
H        -1.45503000        +3.26427000        +1.21284000
H        -2.87211000        +3.26623000        +0.14638000
H        +0.35825000        -1.18166000        -0.11386000
H        +0.33551000        +1.23549000        +0.09097000
--
0  1
C        -1.61110000        -0.10553000        +3.21609000
C        -1.62375000        +1.29695000        +3.33791000
C        -2.80986000        -0.83799000        +3.15746000
C        -4.00618000        -0.12239000        +3.23013000
C        -4.01979000        +1.26072000        +3.35232000
C        -2.83827000        +2.00221000        +3.41108000
H        -4.97020000        +1.78142000        +3.40008000
H        -4.94558000        -0.66394000        +3.19310000
C        -2.90626000        +3.50563000        +3.53137000
C        -2.84769000        -2.34409000        +3.03708000
H        -2.46418000        -2.67406000        +2.06975000
H        -3.87238000        -2.70358000        +3.14671000
H        -2.23624000        -2.82960000        +3.80224000
H        -2.30880000        +4.00169000        +2.76233000
H        -2.52169000        +3.84244000        +4.49582000
H        -3.93877000        +3.84440000        +3.42936000
H        -0.70841000        -0.60349000        +3.16912000
H        -0.73115000        +1.81366000        +3.37395000
$end

$rem
JOBTYPE                   SP
METHOD                    B3LYP
DFT_D                     d3_op
BASIS                     6-311++G(d,p)
SYMMETRY                  False
THRESH                    12
SCF_CONVERGENCE           8
MAX_SUB_FILE_NUM          128
MEM_STATIC                400
MEM_TOTAL                 4000
$end
--------------------------------------------------------------

             Standard Nuclear Orientation (Angstroms)
    I     Atom           X                Y                Z
 ----------------------------------------------------------------
    1      C       2.0867018328     1.3451299572     0.9027832091
    2      C       0.8763954943     2.0628796128     0.8586891708
    3      C       2.4672444965     0.5017337418    -0.1559097450
    4      C       1.5983485508     0.4014217349    -1.2437990629
    5      C       0.4034092565     1.1073442606    -1.2874152423
    6      C       0.0118869481     1.9492137982    -0.2447189146
    7      H      -0.2425549232     1.0072070361    -2.1530892517
    8      H       1.8653149858    -0.2471726699    -2.0715515646
    9      C      -1.2911730258     2.7050336873    -0.3453917523
   10      C       3.7506887040    -0.2963883005    -0.1502674942
   11      H       4.6237203291     0.3567389485    -0.2043787510
   12      H       3.7722209277    -0.9781969075    -1.0022738203
   13      H       3.8566013864    -0.8914261765     0.7606514474
   14      H      -1.1539924380     3.7752775923    -0.1715643470
   15      H      -2.0096418315     2.3542058054     0.3977241445
   16      H      -1.7246768516     2.5758545529    -1.3386868934
   17      H       2.7038763189     1.4394292256     1.7245026749
   18      H       0.6205234588     2.6797828469     1.6454437495
   19      C      -0.3868293709    -1.0938324982     1.3306936091
   20      C      -1.5971357093    -0.3760828426     1.2865995708
   21      C      -0.0062867072    -1.9372287136     0.2720006550
   22      C      -0.8751826528    -2.0375407205    -0.8158886630
   23      C      -2.0701219471    -1.3316181948    -0.8595048423
   24      C      -2.4616442555    -0.4897486573     0.1831914854
   25      H      -2.7160861268    -1.4317554194    -1.7251788517
   26      H      -0.6082162179    -2.6861351254    -1.6436411646
   27      C      -3.7647042295     0.2660712318     0.0825186477
   28      C       1.2771575004    -2.7353507559     0.2776429058
   29      H       2.1501891255    -2.0822235070     0.2235316490
   30      H       1.2986897240    -3.4171593630    -0.5743634203
   31      H       1.3830701828    -3.3303886320     1.1885618473
   32      H      -3.6275236416     1.3363151368     0.2563460530
   33      H      -4.4831730351    -0.0847566501     0.8256345445
   34      H      -4.1982080553     0.1368920974    -0.9107764934
   35      H       0.2303451152    -0.9995332299     2.1524130748
   36      H      -1.8530077448     0.2408203914     2.0733541495
 ----------------------------------------------------------------

   14    -621.9550813102      6.13E-09 Convergence criterion met
 Total energy in the final basis set = -621.95508131

                    Orbital Energies (a.u.)
 --------------------------------------------------------------

 Alpha MOs
 -- Occupied --
-10.176 -10.175 -10.175 -10.174 -10.167 -10.164 -10.164 -10.163
-10.163 -10.163 -10.163 -10.162 -10.162 -10.162 -10.161 -10.160
 -0.857  -0.851  -0.787  -0.781  -0.742  -0.739  -0.722  -0.715
 -0.658  -0.652  -0.609  -0.607  -0.574  -0.572  -0.494  -0.491
 -0.469  -0.468  -0.457  -0.455  -0.440  -0.432  -0.417  -0.416
 -0.405  -0.405  -0.402  -0.397  -0.393  -0.392  -0.374  -0.371
 -0.354  -0.340  -0.337  -0.335  -0.334  -0.327  -0.257  -0.239
 -0.238  -0.224

          Ground-State Mulliken Net Atomic Charges

     Atom                 Charge (a.u.)
  ----------------------------------------
      1 C                    -0.519929
      2 C                    -0.072080
      3 C                     0.412621
      4 C                    -0.308115
      5 C                    -0.424082
      6 C                     0.580751
      7 H                     0.152535
      8 H                     0.167758
      9 C                    -0.600122
     10 C                    -0.622088
     11 H                     0.175231
     12 H                     0.138213
     13 H                     0.164221
     14 H                     0.163344
     15 H                     0.129807
     16 H                     0.139982
     17 H                     0.155673
     18 H                     0.167621
     19 C                    -0.328790
     20 C                    -0.249392
     21 C                     0.439098
     22 C                    -0.098725
     23 C                    -0.552519
     24 C                     0.425499
     25 H                     0.146047
     26 H                     0.167162
     27 C                    -0.545987
     28 C                    -0.674201
     29 H                     0.194036
     30 H                     0.127017
     31 H                     0.158144
     32 H                     0.149141
     33 H                     0.167324
     34 H                     0.136367
     35 H                     0.161512
     36 H                     0.176924
  ----------------------------------------
  Sum of atomic charges =    -0.000000

                    Cartesian Multipole Moments
 -----------------------------------------------------------------
    Charge (ESU x 10^10)
                -0.0000
    Dipole Moment (Debye)
         X       0.1054      Y       0.1220      Z       0.0987
       Tot       0.1890
    Quadrupole Moments (Debye-Ang)
        XX     -95.0847     XY      -6.1705     YY    -100.8296
        XZ       2.7912     YZ       4.3513     ZZ     -94.9976

 Total job time:  203.79s(wall), 811.36s(cpu)
        *  Thank you very much for using Q-Chem.  Have a nice day.  *
