 Q-Chem 5.0, Q-Chem, Inc., Pleasanton, CA (2017)
 Q-Chem 5.0.1 for Intel X86 EM64T Linux

User input:
--------------------------------------------------------------
$molecule
0  1
C        -0.58454000        -0.67556000        -0.07544000
C        -0.59851000        +0.70920000        +0.05808000
C        -1.77633000        -1.40990000        -0.13252000
C        -2.97828000        -0.70388000        -0.05611000
C        -2.99244000        +0.68477000        +0.07719000
C        -1.80513000        +1.41687000        +0.13452000
H        -3.94378000        +1.20441000        +0.13594000
H        -3.91864000        -1.24474000        -0.10022000
C        -1.81546000        +2.92210000        +0.24949000
C        -1.75732000        -2.91589000        -0.24640000
H        -1.03160000        -3.25185000        -0.99235000
H        -2.73712000        -3.30600000        -0.53105000
H        -1.48213000        -3.37940000        +0.70725000
H        -1.54006000        +3.39064000        -0.70147000
H        -1.10219000        +3.26991000        +1.00208000
H        -2.80465000        +3.29345000        +0.52612000
H        +0.36601000        -1.19708000        -0.13515000
H        +0.34176000        +1.25035000        +0.10232000
@C        -0.55288000        -1.01040000        +3.40836000
@C        -0.56685000        +0.37436000        +3.54188000
@C        -1.74467000        -1.74474000        +3.35128000
@C        -2.94662000        -1.03872000        +3.42769000
@C        -2.96078000        +0.34993000        +3.56099000
@C        -1.77347000        +1.08203000        +3.61832000
@H        -3.91212000        +0.86957000        +3.61974000
@H        -3.88698000        -1.57958000        +3.38358000
@C        -1.78380000        +2.58726000        +3.73329000
@C        -1.72566000        -3.25073000        +3.23740000
@H        -0.99994000        -3.58669000        +2.49145000
@H        -2.70546000        -3.64084000        +2.95275000
@H        -1.45047000        -3.71424000        +4.19105000
@H        -1.50840000        +3.05580000        +2.78233000
@H        -1.07053000        +2.93507000        +4.48588000
@H        -2.77299000        +2.95861000        +4.00992000
@H        +0.39767000        -1.53192000        +3.34865000
@H        +0.37342000        +0.91551000        +3.58612000
$end

$rem
JOBTYPE                   SP
METHOD                    B3LYP
DFT_D                     d3_op
BASIS                     6-311++G(d,p)
SYMMETRY                  False
THRESH                    12
SCF_CONVERGENCE           8
MAX_SUB_FILE_NUM          128
MEM_STATIC                400
MEM_TOTAL                 4000
$end
--------------------------------------------------------------

             Standard Nuclear Orientation (Angstroms)
    I     Atom           X                Y                Z
 ----------------------------------------------------------------
    1      C      -0.5845400000    -0.6755600000    -0.0754400000
    2      C      -0.5985100000     0.7092000000     0.0580800000
    3      C      -1.7763300000    -1.4099000000    -0.1325200000
    4      C      -2.9782800000    -0.7038800000    -0.0561100000
    5      C      -2.9924400000     0.6847700000     0.0771900000
    6      C      -1.8051300000     1.4168700000     0.1345200000
    7      H      -3.9437800000     1.2044100000     0.1359400000
    8      H      -3.9186400000    -1.2447400000    -0.1002200000
    9      C      -1.8154600000     2.9221000000     0.2494900000
   10      C      -1.7573200000    -2.9158900000    -0.2464000000
   11      H      -1.0316000000    -3.2518500000    -0.9923500000
   12      H      -2.7371200000    -3.3060000000    -0.5310500000
   13      H      -1.4821300000    -3.3794000000     0.7072500000
   14      H      -1.5400600000     3.3906400000    -0.7014700000
   15      H      -1.1021900000     3.2699100000     1.0020800000
   16      H      -2.8046500000     3.2934500000     0.5261200000
   17      H       0.3660100000    -1.1970800000    -0.1351500000
   18      H       0.3417600000     1.2503500000     0.1023200000
   19      GH     -0.5528800000    -1.0104000000     3.4083600000
   20      GH     -0.5668500000     0.3743600000     3.5418800000
   21      GH     -1.7446700000    -1.7447400000     3.3512800000
   22      GH     -2.9466200000    -1.0387200000     3.4276900000
   23      GH     -2.9607800000     0.3499300000     3.5609900000
   24      GH     -1.7734700000     1.0820300000     3.6183200000
   25      GH     -3.9121200000     0.8695700000     3.6197400000
   26      GH     -3.8869800000    -1.5795800000     3.3835800000
   27      GH     -1.7838000000     2.5872600000     3.7332900000
   28      GH     -1.7256600000    -3.2507300000     3.2374000000
   29      GH     -0.9999400000    -3.5866900000     2.4914500000
   30      GH     -2.7054600000    -3.6408400000     2.9527500000
   31      GH     -1.4504700000    -3.7142400000     4.1910500000
   32      GH     -1.5084000000     3.0558000000     2.7823300000
   33      GH     -1.0705300000     2.9350700000     4.4858800000
   34      GH     -2.7729900000     2.9586100000     4.0099200000
   35      GH      0.3976700000    -1.5319200000     3.3486500000
   36      GH      0.3734200000     0.9155100000     3.5861200000
 ----------------------------------------------------------------

   13    -310.9816417217      1.05E-09 Convergence criterion met
 Total energy in the final basis set = -310.98164172

                    Orbital Energies (a.u.)
 --------------------------------------------------------------

 Alpha MOs
 -- Occupied --
-10.180 -10.180 -10.171 -10.170 -10.170 -10.170 -10.167 -10.167
 -0.860  -0.787  -0.744  -0.721  -0.657  -0.608  -0.575  -0.494
 -0.473  -0.452  -0.425  -0.419  -0.417  -0.402  -0.398  -0.375
 -0.347  -0.342  -0.337  -0.254  -0.237

          Ground-State Mulliken Net Atomic Charges

     Atom                 Charge (a.u.)
  ----------------------------------------
      1 C                    -0.383960
      2 C                    -0.265663
      3 C                     0.418537
      4 C                    -0.383582
      5 C                    -0.382977
      6 C                     0.581969
      7 H                     0.161470
      8 H                     0.173360
      9 C                    -0.579993
     10 C                    -0.726954
     11 H                     0.144274
     12 H                     0.140529
     13 H                     0.185881
     14 H                     0.167344
     15 H                     0.143167
     16 H                     0.137668
     17 H                     0.177896
     18 H                     0.177278
     19 GH                    0.040513
     20 GH                    0.005873
     21 GH                    0.025379
     22 GH                    0.019823
     23 GH                    0.023376
     24 GH                   -0.109914
     25 GH                    0.014506
     26 GH                    0.006724
     27 GH                   -0.026675
     28 GH                    0.079683
     29 GH                   -0.007268
     30 GH                   -0.000855
     31 GH                    0.001679
     32 GH                    0.027190
     33 GH                    0.000186
     34 GH                   -0.003501
     35 GH                    0.008247
     36 GH                    0.008788
  ----------------------------------------
  Sum of atomic charges =     0.000000

                    Cartesian Multipole Moments
 -----------------------------------------------------------------
    Charge (ESU x 10^10)
                 0.0000
    Dipole Moment (Debye)
         X       0.0582      Y       0.0031      Z       0.0060
       Tot       0.0586
    Quadrupole Moments (Debye-Ang)
        XX     -46.3738     XY      -0.0052     YY     -44.8986
        XZ      -0.0740     YZ       0.6046     ZZ     -52.6807

 Total job time:  185.37s(wall), 737.00s(cpu)
        *  Thank you very much for using Q-Chem.  Have a nice day.  *
