 Q-Chem 5.0, Q-Chem, Inc., Pleasanton, CA (2017)
 Q-Chem 5.0.1 for Intel X86 EM64T Linux

User input:
--------------------------------------------------------------
$molecule
0  1
--
0  1
C        -0.58454000        -0.67556000        -0.07544000
C        -0.59851000        +0.70920000        +0.05808000
C        -1.77633000        -1.40990000        -0.13252000
C        -2.97828000        -0.70388000        -0.05611000
C        -2.99244000        +0.68477000        +0.07719000
C        -1.80513000        +1.41687000        +0.13452000
H        -3.94378000        +1.20441000        +0.13594000
H        -3.91864000        -1.24474000        -0.10022000
C        -1.81546000        +2.92210000        +0.24949000
C        -1.75732000        -2.91589000        -0.24640000
H        -1.03160000        -3.25185000        -0.99235000
H        -2.73712000        -3.30600000        -0.53105000
H        -1.48213000        -3.37940000        +0.70725000
H        -1.54006000        +3.39064000        -0.70147000
H        -1.10219000        +3.26991000        +1.00208000
H        -2.80465000        +3.29345000        +0.52612000
H        +0.36601000        -1.19708000        -0.13515000
H        +0.34176000        +1.25035000        +0.10232000
--
0  1
C        -0.55288000        -1.01040000        +3.40836000
C        -0.56685000        +0.37436000        +3.54188000
C        -1.74467000        -1.74474000        +3.35128000
C        -2.94662000        -1.03872000        +3.42769000
C        -2.96078000        +0.34993000        +3.56099000
C        -1.77347000        +1.08203000        +3.61832000
H        -3.91212000        +0.86957000        +3.61974000
H        -3.88698000        -1.57958000        +3.38358000
C        -1.78380000        +2.58726000        +3.73329000
C        -1.72566000        -3.25073000        +3.23740000
H        -0.99994000        -3.58669000        +2.49145000
H        -2.70546000        -3.64084000        +2.95275000
H        -1.45047000        -3.71424000        +4.19105000
H        -1.50840000        +3.05580000        +2.78233000
H        -1.07053000        +2.93507000        +4.48588000
H        -2.77299000        +2.95861000        +4.00992000
H        +0.39767000        -1.53192000        +3.34865000
H        +0.37342000        +0.91551000        +3.58612000
$end

$rem
JOBTYPE                   SP
METHOD                    B3LYP
DFT_D                     d3_op
BASIS                     6-311++G(d,p)
SYMMETRY                  False
THRESH                    12
SCF_CONVERGENCE           8
MAX_SUB_FILE_NUM          128
MEM_STATIC                400
MEM_TOTAL                 4000
$end
--------------------------------------------------------------

             Standard Nuclear Orientation (Angstroms)
    I     Atom           X                Y                Z
 ----------------------------------------------------------------
    1      C       0.5786913158    -1.7921396467    -1.1967479674
    2      C      -0.8095531806    -1.7007063170    -1.1963316487
    3      C       1.3020916304    -1.8369737013     0.0022343755
    4      C       0.5817162304    -1.7920549156     1.1972356795
    5      C      -0.8104115512    -1.7009607856     1.1977991038
    6      C      -1.5316268192    -1.6558466753     0.0033220513
    7      H      -1.3413814885    -1.6659497498     2.1440391583
    8      H       1.1139361241    -1.8276697045     2.1428707745
    9      C      -3.0396789398    -1.5865691277    -0.0013239915
   10      C       2.8109598261    -1.9050659297    -0.0017819798
   11      H       3.1768707662    -2.6343901130    -0.7299134666
   12      H       3.1993998642    -2.1859949113     0.9797539180
   13      H       3.2481305809    -0.9355503106    -0.2643473512
   14      H      -3.4762788296    -2.5489267098    -0.2893313417
   15      H      -3.4027906028    -0.8388881289    -0.7121268061
   16      H      -3.4294374325    -1.3296159254     0.9860893995
   17      H       1.1115612701    -1.8280599504    -2.1421859825
   18      H      -1.3420677989    -1.6649711232    -2.1418787656
   19      C       0.8079646425     1.7003403264    -1.1967273906
   20      C      -0.5802798539     1.7917736561    -1.1963110719
   21      C       1.5313649572     1.6555062718     0.0022549523
   22      C       0.8109895571     1.7004250575     1.1972562563
   23      C      -0.5811382244     1.7915191875     1.1978196806
   24      C      -1.3023534925     1.8366332978     0.0033426281
   25      H      -1.1121081617     1.8265302233     2.1440597351
   26      H       1.3432094509     1.6648102686     2.1428913513
   27      C      -2.8104056131     1.9059108453    -0.0013034147
   28      C       3.0402331529     1.5874140434    -0.0017614030
   29      H       3.4061440930     0.8580898600    -0.7298928898
   30      H       3.4286731910     1.3064850618     0.9797744948
   31      H       3.4774039076     2.5569296625    -0.2643267744
   32      H      -3.2470055028     0.9435532633    -0.2893107649
   33      H      -3.1735172760     2.6535918442    -0.7121062293
   34      H      -3.2001641058     2.1628640476     0.9861099763
   35      H       1.3408345969     1.6644200227    -2.1421654057
   36      H      -1.1127944721     1.8275088499    -2.1418581888
 ----------------------------------------------------------------

   13    -621.9625282282      6.54E-09 Convergence criterion met
 Total energy in the final basis set = -621.96252823

                    Orbital Energies (a.u.)
 --------------------------------------------------------------

 Alpha MOs
 -- Occupied --
-10.175 -10.175 -10.175 -10.175 -10.166 -10.166 -10.165 -10.165
-10.165 -10.165 -10.165 -10.164 -10.164 -10.164 -10.163 -10.163
 -0.857  -0.853  -0.786  -0.781  -0.741  -0.737  -0.722  -0.714
 -0.658  -0.651  -0.605  -0.602  -0.573  -0.569  -0.493  -0.488
 -0.470  -0.467  -0.450  -0.447  -0.441  -0.435  -0.415  -0.412
 -0.404  -0.402  -0.401  -0.396  -0.395  -0.389  -0.375  -0.370
 -0.357  -0.340  -0.337  -0.334  -0.331  -0.325  -0.262  -0.245
 -0.233  -0.218

          Ground-State Mulliken Net Atomic Charges

     Atom                 Charge (a.u.)
  ----------------------------------------
      1 C                    -0.378249
      2 C                    -0.206353
      3 C                     0.361922
      4 C                    -0.373851
      5 C                    -0.356044
      6 C                     0.574769
      7 H                     0.161091
      8 H                     0.178473
      9 C                    -0.484311
     10 C                    -0.722541
     11 H                     0.141545
     12 H                     0.136400
     13 H                     0.182560
     14 H                     0.166901
     15 H                     0.123910
     16 H                     0.138056
     17 H                     0.176911
     18 H                     0.178208
     19 C                    -0.208493
     20 C                    -0.378492
     21 C                     0.589886
     22 C                    -0.361535
     23 C                    -0.376063
     24 C                     0.351847
     25 H                     0.178070
     26 H                     0.161484
     27 C                    -0.716426
     28 C                    -0.485095
     29 H                     0.124291
     30 H                     0.138411
     31 H                     0.167033
     32 H                     0.182167
     33 H                     0.142694
     34 H                     0.135945
     35 H                     0.177751
     36 H                     0.177128
  ----------------------------------------
  Sum of atomic charges =     0.000000

                    Cartesian Multipole Moments
 -----------------------------------------------------------------
    Charge (ESU x 10^10)
                -0.0000
    Dipole Moment (Debye)
         X       0.0010      Y       0.0078      Z      -0.0665
       Tot       0.0670
    Quadrupole Moments (Debye-Ang)
        XX     -91.1845     XY      -0.4799     YY    -107.3927
        XZ       0.0057     YZ      -0.0011     ZZ     -92.6216

 Total job time:  204.76s(wall), 814.08s(cpu)
        *  Thank you very much for using Q-Chem.  Have a nice day.  *
