 Q-Chem 5.0, Q-Chem, Inc., Pleasanton, CA (2017)
 Q-Chem 5.0.1 for Intel X86 EM64T Linux

User input:
--------------------------------------------------------------
$molecule
0  1
C        -2.03776000        +0.12574000        +4.52928000
C        -2.05041000        +1.52822000        +4.65110000
C        -3.23652000        -0.60672000        +4.47065000
C        -4.43284000        +0.10888000        +4.54332000
C        -4.44645000        +1.49199000        +4.66551000
C        -3.26493000        +2.23348000        +4.72427000
H        -5.39686000        +2.01269000        +4.71327000
H        -5.37224000        -0.43267000        +4.50629000
C        -3.33292000        +3.73690000        +4.84456000
C        -3.27435000        -2.11282000        +4.35027000
H        -2.89084000        -2.44279000        +3.38294000
H        -4.29904000        -2.47231000        +4.45990000
H        -2.66290000        -2.59833000        +5.11543000
H        -2.73546000        +4.23296000        +4.07552000
H        -2.94835000        +4.07371000        +5.80901000
H        -4.36543000        +4.07567000        +4.74255000
H        -1.13507000        -0.37222000        +4.48231000
H        -1.15781000        +2.04493000        +4.68714000
@C        -0.54444000        -0.68370000        -0.06689000
@C        -0.55709000        +0.71878000        +0.05493000
@C        -1.74320000        -1.41616000        -0.12552000
@C        -2.93952000        -0.70056000        -0.05285000
@C        -2.95313000        +0.68255000        +0.06934000
@C        -1.77161000        +1.42404000        +0.12810000
@H        -3.90354000        +1.20325000        +0.11710000
@H        -3.87892000        -1.24211000        -0.08988000
@C        -1.83960000        +2.92746000        +0.24839000
@C        -1.78103000        -2.92226000        -0.24590000
@H        -1.39752000        -3.25223000        -1.21323000
@H        -2.80572000        -3.28175000        -0.13627000
@H        -1.16958000        -3.40777000        +0.51926000
@H        -1.24214000        +3.42352000        -0.52065000
@H        -1.45503000        +3.26427000        +1.21284000
@H        -2.87211000        +3.26623000        +0.14638000
@H        +0.35825000        -1.18166000        -0.11386000
@H        +0.33551000        +1.23549000        +0.09097000
$end

$rem
JOBTYPE                   SP
METHOD                    B3LYP
DFT_D                     d3_op
BASIS                     6-311++G(d,p)
SYMMETRY                  False
THRESH                    12
SCF_CONVERGENCE           8
MAX_SUB_FILE_NUM          128
MEM_STATIC                400
MEM_TOTAL                 4000
$end
--------------------------------------------------------------

             Standard Nuclear Orientation (Angstroms)
    I     Atom           X                Y                Z
 ----------------------------------------------------------------
    1      C      -2.0377600000     0.1257400000     4.5292800000
    2      C      -2.0504100000     1.5282200000     4.6511000000
    3      C      -3.2365200000    -0.6067200000     4.4706500000
    4      C      -4.4328400000     0.1088800000     4.5433200000
    5      C      -4.4464500000     1.4919900000     4.6655100000
    6      C      -3.2649300000     2.2334800000     4.7242700000
    7      H      -5.3968600000     2.0126900000     4.7132700000
    8      H      -5.3722400000    -0.4326700000     4.5062900000
    9      C      -3.3329200000     3.7369000000     4.8445600000
   10      C      -3.2743500000    -2.1128200000     4.3502700000
   11      H      -2.8908400000    -2.4427900000     3.3829400000
   12      H      -4.2990400000    -2.4723100000     4.4599000000
   13      H      -2.6629000000    -2.5983300000     5.1154300000
   14      H      -2.7354600000     4.2329600000     4.0755200000
   15      H      -2.9483500000     4.0737100000     5.8090100000
   16      H      -4.3654300000     4.0756700000     4.7425500000
   17      H      -1.1350700000    -0.3722200000     4.4823100000
   18      H      -1.1578100000     2.0449300000     4.6871400000
   19      GH     -0.5444400000    -0.6837000000    -0.0668900000
   20      GH     -0.5570900000     0.7187800000     0.0549300000
   21      GH     -1.7432000000    -1.4161600000    -0.1255200000
   22      GH     -2.9395200000    -0.7005600000    -0.0528500000
   23      GH     -2.9531300000     0.6825500000     0.0693400000
   24      GH     -1.7716100000     1.4240400000     0.1281000000
   25      GH     -3.9035400000     1.2032500000     0.1171000000
   26      GH     -3.8789200000    -1.2421100000    -0.0898800000
   27      GH     -1.8396000000     2.9274600000     0.2483900000
   28      GH     -1.7810300000    -2.9222600000    -0.2459000000
   29      GH     -1.3975200000    -3.2522300000    -1.2132300000
   30      GH     -2.8057200000    -3.2817500000    -0.1362700000
   31      GH     -1.1695800000    -3.4077700000     0.5192600000
   32      GH     -1.2421400000     3.4235200000    -0.5206500000
   33      GH     -1.4550300000     3.2642700000     1.2128400000
   34      GH     -2.8721100000     3.2662300000     0.1463800000
   35      GH      0.3582500000    -1.1816600000    -0.1138600000
   36      GH      0.3355100000     1.2354900000     0.0909700000
 ----------------------------------------------------------------

   12    -310.9760733758      7.51E-09 Convergence criterion met
 Total energy in the final basis set = -310.97607338

                    Orbital Energies (a.u.)
 --------------------------------------------------------------

 Alpha MOs
 -- Occupied --
-10.180 -10.180 -10.168 -10.168 -10.168 -10.167 -10.167 -10.167
 -0.859  -0.787  -0.745  -0.721  -0.658  -0.612  -0.577  -0.496
 -0.472  -0.460  -0.425  -0.421  -0.417  -0.404  -0.397  -0.376
 -0.345  -0.342  -0.339  -0.252  -0.236

          Ground-State Mulliken Net Atomic Charges

     Atom                 Charge (a.u.)
  ----------------------------------------
      1 C                    -0.320695
      2 C                    -0.189572
      3 C                     0.611793
      4 C                    -0.474795
      5 C                    -0.474322
      6 C                     0.579862
      7 H                     0.152281
      8 H                     0.158524
      9 C                    -0.635359
     10 C                    -0.639196
     11 H                     0.187475
     12 H                     0.138166
     13 H                     0.147916
     14 H                     0.155114
     15 H                     0.160405
     16 H                     0.141549
     17 H                     0.163586
     18 H                     0.163874
     19 GH                   -0.013812
     20 GH                   -0.028956
     21 GH                   -0.011470
     22 GH                   -0.004112
     23 GH                    0.005278
     24 GH                    0.044374
     25 GH                   -0.004463
     26 GH                   -0.000767
     27 GH                   -0.014002
     28 GH                    0.002725
     29 GH                   -0.000044
     30 GH                   -0.001254
     31 GH                    0.003017
     32 GH                   -0.001703
     33 GH                   -0.002995
     34 GH                    0.003961
     35 GH                   -0.001724
     36 GH                   -0.000658
  ----------------------------------------
  Sum of atomic charges =     0.000000

                    Cartesian Multipole Moments
 -----------------------------------------------------------------
    Charge (ESU x 10^10)
                 0.0000
    Dipole Moment (Debye)
         X       0.0929      Y       0.0046      Z      -0.0072
       Tot       0.0933
    Quadrupole Moments (Debye-Ang)
        XX     -46.5794     XY       0.0616     YY     -44.7148
        XZ       0.4107     YZ       0.6865     ZZ     -52.7620

 Total job time:  135.12s(wall), 537.66s(cpu)
        *  Thank you very much for using Q-Chem.  Have a nice day.  *
