 Q-Chem 5.0, Q-Chem, Inc., Pleasanton, CA (2017)
 Q-Chem 5.0.1 for Intel X86 EM64T Linux

User input:
--------------------------------------------------------------
$molecule
0  1
--
0  1
C        -0.54444000        -0.68370000        -0.06689000
C        -0.55709000        +0.71878000        +0.05493000
C        -1.74320000        -1.41616000        -0.12552000
C        -2.93952000        -0.70056000        -0.05285000
C        -2.95313000        +0.68255000        +0.06934000
C        -1.77161000        +1.42404000        +0.12810000
H        -3.90354000        +1.20325000        +0.11710000
H        -3.87892000        -1.24211000        -0.08988000
C        -1.83960000        +2.92746000        +0.24839000
C        -1.78103000        -2.92226000        -0.24590000
H        -1.39752000        -3.25223000        -1.21323000
H        -2.80572000        -3.28175000        -0.13627000
H        -1.16958000        -3.40777000        +0.51926000
H        -1.24214000        +3.42352000        -0.52065000
H        -1.45503000        +3.26427000        +1.21284000
H        -2.87211000        +3.26623000        +0.14638000
H        +0.35825000        -1.18166000        -0.11386000
H        +0.33551000        +1.23549000        +0.09097000
--
0  1
C        -2.67775000        +0.47264000        +6.49907000
C        -2.69040000        +1.87512000        +6.62089000
C        -3.87651000        -0.25982000        +6.44044000
C        -5.07283000        +0.45578000        +6.51311000
C        -5.08644000        +1.83889000        +6.63530000
C        -3.90492000        +2.58038000        +6.69406000
H        -6.03685000        +2.35959000        +6.68306000
H        -6.01223000        -0.08577000        +6.47608000
C        -3.97291000        +4.08380000        +6.81435000
C        -3.91434000        -1.76592000        +6.32006000
H        -3.53083000        -2.09589000        +5.35273000
H        -4.93903000        -2.12541000        +6.42969000
H        -3.30289000        -2.25143000        +7.08522000
H        -3.37545000        +4.57986000        +6.04531000
H        -3.58834000        +4.42061000        +7.77880000
H        -5.00542000        +4.42257000        +6.71234000
H        -1.77506000        -0.02532000        +6.45210000
H        -1.79780000        +2.39183000        +6.65693000
$end

$rem
JOBTYPE                   SP
METHOD                    B3LYP
DFT_D                     d3_op
BASIS                     6-311++G(d,p)
SYMMETRY                  False
THRESH                    12
SCF_CONVERGENCE           8
MAX_SUB_FILE_NUM          128
MEM_STATIC                400
MEM_TOTAL                 4000
$end
--------------------------------------------------------------

             Standard Nuclear Orientation (Angstroms)
    I     Atom           X                Y                Z
 ----------------------------------------------------------------
    1      C       4.1121425983    -0.1771897262     1.0751811241
    2      C       3.6408279584     1.1488947362     1.0389486224
    3      C       3.9703820938    -1.0265511641    -0.0363267585
    4      C       3.3418761938    -0.5059628066    -1.1688080727
    5      C       2.8748352471     0.8012014716    -1.2049079913
    6      C       3.0087018382     1.6570310970    -0.1099718944
    7      H       2.3967664152     1.1708246255    -2.1057507033
    8      H       3.2144089842    -1.1422137607    -2.0383233499
    9      C       2.4955615222     3.0738287051    -0.2034361890
   10      C       4.4506303781    -2.4595854445    -0.0421577187
   11      H       5.5399824075    -2.5126337001     0.0045914891
   12      H       4.1158542036    -2.9637423501    -0.9504484876
   13      H       4.0693921833    -3.0206837514     0.8150977957
   14      H       3.2621425583     3.8021284292     0.0729503591
   15      H       1.6513809106     3.2333333880     0.4699256859
   16      H       2.1743735122     3.2905585592    -1.2237863669
   17      H       4.5685406763    -0.5311836495     1.9304054662
   18      H       3.7606209453     1.7553242136     1.8653358167
   19      C      -2.8576232561    -0.8031108715     1.2499699367
   20      C      -3.3289378959     0.5229735908     1.2137374349
   21      C      -2.9993837605    -1.6524723095     0.1384620540
   22      C      -3.6278896606    -1.1318839519    -0.9940192601
   23      C      -4.0949306073     0.1752803263    -1.0301191787
   24      C      -3.9610640161     1.0311099517     0.0648169181
   25      H      -4.5729994391     0.5449034801    -1.9309618908
   26      H      -3.7553568702    -1.7681349060    -1.8635345373
   27      C      -4.4742043321     2.4479075598    -0.0286473764
   28      C      -2.5191354763    -3.0855065898     0.1326310938
   29      H      -1.4297834468    -3.1385548455     0.1793803016
   30      H      -2.8539116507    -3.5896634954    -0.7756596750
   31      H      -2.9003736711    -3.6466048967     0.9898866082
   32      H      -3.7076232961     3.1762072838     0.2477391716
   33      H      -5.3183849438     2.6074122427     0.6447144984
   34      H      -4.7953923421     2.6646374139    -1.0489975544
   35      H      -2.4012251780    -1.1571047948     2.1051942787
   36      H      -3.2091449090     1.1294030683     2.0401246292
 ----------------------------------------------------------------

   13    -621.9518004305      4.36E-09 Convergence criterion met
 Total energy in the final basis set = -621.95180043

                    Orbital Energies (a.u.)
 --------------------------------------------------------------

 Alpha MOs
 -- Occupied --
-10.179 -10.179 -10.179 -10.178 -10.167 -10.167 -10.166 -10.166
-10.166 -10.166 -10.166 -10.166 -10.166 -10.165 -10.165 -10.165
 -0.857  -0.857  -0.786  -0.786  -0.744  -0.744  -0.720  -0.719
 -0.657  -0.657  -0.611  -0.611  -0.576  -0.576  -0.495  -0.494
 -0.471  -0.471  -0.459  -0.458  -0.423  -0.423  -0.419  -0.419
 -0.416  -0.415  -0.403  -0.403  -0.396  -0.396  -0.375  -0.374
 -0.344  -0.344  -0.341  -0.341  -0.338  -0.337  -0.251  -0.251
 -0.235  -0.235

          Ground-State Mulliken Net Atomic Charges

     Atom                 Charge (a.u.)
  ----------------------------------------
      1 C                    -0.153634
      2 C                    -0.187150
      3 C                     0.661159
      4 C                    -0.590238
      5 C                    -0.622053
      6 C                     0.640103
      7 H                     0.138461
      8 H                     0.135371
      9 C                    -0.626722
     10 C                    -0.602836
     11 H                     0.156815
     12 H                     0.148127
     13 H                     0.147715
     14 H                     0.143831
     15 H                     0.154278
     16 H                     0.146430
     17 H                     0.152464
     18 H                     0.158890
     19 C                    -0.111296
     20 C                    -0.150817
     21 C                     0.677574
     22 C                    -0.706678
     23 C                    -0.652309
     24 C                     0.704319
     25 H                     0.131713
     26 H                     0.135471
     27 C                    -0.609256
     28 C                    -0.624612
     29 H                     0.147005
     30 H                     0.148302
     31 H                     0.146657
     32 H                     0.146569
     33 H                     0.156831
     34 H                     0.148589
     35 H                     0.156821
     36 H                     0.154105
  ----------------------------------------
  Sum of atomic charges =     0.000000

                    Cartesian Multipole Moments
 -----------------------------------------------------------------
    Charge (ESU x 10^10)
                 0.0000
    Dipole Moment (Debye)
         X       0.0627      Y       0.0287      Z       0.1635
       Tot       0.1774
    Quadrupole Moments (Debye-Ang)
        XX    -103.0707     XY      -4.3953     YY     -90.9824
        XZ       4.1366     YZ       1.3675     ZZ     -93.5772

 Total job time:  94.45s(wall), 375.91s(cpu)
        *  Thank you very much for using Q-Chem.  Have a nice day.  *
