 Q-Chem 5.0, Q-Chem, Inc., Pleasanton, CA (2017)
 Q-Chem 5.0.1 for Intel X86 EM64T Linux

User input:
--------------------------------------------------------------
$molecule
0  1
C        -2.67775000        +0.47264000        +6.49907000
C        -2.69040000        +1.87512000        +6.62089000
C        -3.87651000        -0.25982000        +6.44044000
C        -5.07283000        +0.45578000        +6.51311000
C        -5.08644000        +1.83889000        +6.63530000
C        -3.90492000        +2.58038000        +6.69406000
H        -6.03685000        +2.35959000        +6.68306000
H        -6.01223000        -0.08577000        +6.47608000
C        -3.97291000        +4.08380000        +6.81435000
C        -3.91434000        -1.76592000        +6.32006000
H        -3.53083000        -2.09589000        +5.35273000
H        -4.93903000        -2.12541000        +6.42969000
H        -3.30289000        -2.25143000        +7.08522000
H        -3.37545000        +4.57986000        +6.04531000
H        -3.58834000        +4.42061000        +7.77880000
H        -5.00542000        +4.42257000        +6.71234000
H        -1.77506000        -0.02532000        +6.45210000
H        -1.79780000        +2.39183000        +6.65693000
@C        -0.54444000        -0.68370000        -0.06689000
@C        -0.55709000        +0.71878000        +0.05493000
@C        -1.74320000        -1.41616000        -0.12552000
@C        -2.93952000        -0.70056000        -0.05285000
@C        -2.95313000        +0.68255000        +0.06934000
@C        -1.77161000        +1.42404000        +0.12810000
@H        -3.90354000        +1.20325000        +0.11710000
@H        -3.87892000        -1.24211000        -0.08988000
@C        -1.83960000        +2.92746000        +0.24839000
@C        -1.78103000        -2.92226000        -0.24590000
@H        -1.39752000        -3.25223000        -1.21323000
@H        -2.80572000        -3.28175000        -0.13627000
@H        -1.16958000        -3.40777000        +0.51926000
@H        -1.24214000        +3.42352000        -0.52065000
@H        -1.45503000        +3.26427000        +1.21284000
@H        -2.87211000        +3.26623000        +0.14638000
@H        +0.35825000        -1.18166000        -0.11386000
@H        +0.33551000        +1.23549000        +0.09097000
$end

$rem
JOBTYPE                   SP
METHOD                    B3LYP
DFT_D                     d3_op
BASIS                     6-311++G(d,p)
SYMMETRY                  False
THRESH                    12
SCF_CONVERGENCE           8
MAX_SUB_FILE_NUM          128
MEM_STATIC                400
MEM_TOTAL                 4000
$end
--------------------------------------------------------------

             Standard Nuclear Orientation (Angstroms)
    I     Atom           X                Y                Z
 ----------------------------------------------------------------
    1      C      -2.6777500000     0.4726400000     6.4990700000
    2      C      -2.6904000000     1.8751200000     6.6208900000
    3      C      -3.8765100000    -0.2598200000     6.4404400000
    4      C      -5.0728300000     0.4557800000     6.5131100000
    5      C      -5.0864400000     1.8388900000     6.6353000000
    6      C      -3.9049200000     2.5803800000     6.6940600000
    7      H      -6.0368500000     2.3595900000     6.6830600000
    8      H      -6.0122300000    -0.0857700000     6.4760800000
    9      C      -3.9729100000     4.0838000000     6.8143500000
   10      C      -3.9143400000    -1.7659200000     6.3200600000
   11      H      -3.5308300000    -2.0958900000     5.3527300000
   12      H      -4.9390300000    -2.1254100000     6.4296900000
   13      H      -3.3028900000    -2.2514300000     7.0852200000
   14      H      -3.3754500000     4.5798600000     6.0453100000
   15      H      -3.5883400000     4.4206100000     7.7788000000
   16      H      -5.0054200000     4.4225700000     6.7123400000
   17      H      -1.7750600000    -0.0253200000     6.4521000000
   18      H      -1.7978000000     2.3918300000     6.6569300000
   19      GH     -0.5444400000    -0.6837000000    -0.0668900000
   20      GH     -0.5570900000     0.7187800000     0.0549300000
   21      GH     -1.7432000000    -1.4161600000    -0.1255200000
   22      GH     -2.9395200000    -0.7005600000    -0.0528500000
   23      GH     -2.9531300000     0.6825500000     0.0693400000
   24      GH     -1.7716100000     1.4240400000     0.1281000000
   25      GH     -3.9035400000     1.2032500000     0.1171000000
   26      GH     -3.8789200000    -1.2421100000    -0.0898800000
   27      GH     -1.8396000000     2.9274600000     0.2483900000
   28      GH     -1.7810300000    -2.9222600000    -0.2459000000
   29      GH     -1.3975200000    -3.2522300000    -1.2132300000
   30      GH     -2.8057200000    -3.2817500000    -0.1362700000
   31      GH     -1.1695800000    -3.4077700000     0.5192600000
   32      GH     -1.2421400000     3.4235200000    -0.5206500000
   33      GH     -1.4550300000     3.2642700000     1.2128400000
   34      GH     -2.8721100000     3.2662300000     0.1463800000
   35      GH      0.3582500000    -1.1816600000    -0.1138600000
   36      GH      0.3355100000     1.2354900000     0.0909700000
 ----------------------------------------------------------------

   11    -310.9758179749      9.07E-09 Convergence criterion met
 Total energy in the final basis set = -310.97581797

                    Orbital Energies (a.u.)
 --------------------------------------------------------------

 Alpha MOs
 -- Occupied --
-10.180 -10.180 -10.168 -10.168 -10.168 -10.167 -10.167 -10.167
 -0.859  -0.787  -0.745  -0.721  -0.658  -0.612  -0.577  -0.496
 -0.472  -0.460  -0.425  -0.421  -0.417  -0.404  -0.397  -0.376
 -0.345  -0.343  -0.339  -0.252  -0.236

          Ground-State Mulliken Net Atomic Charges

     Atom                 Charge (a.u.)
  ----------------------------------------
      1 C                    -0.115392
      2 C                    -0.150089
      3 C                     0.668063
      4 C                    -0.703421
      5 C                    -0.652156
      6 C                     0.700918
      7 H                     0.132450
      8 H                     0.136219
      9 C                    -0.606583
     10 C                    -0.616996
     11 H                     0.146216
     12 H                     0.148905
     13 H                     0.147265
     14 H                     0.147077
     15 H                     0.157237
     16 H                     0.148811
     17 H                     0.157388
     18 H                     0.155023
     19 GH                   -0.000749
     20 GH                    0.000896
     21 GH                    0.000918
     22 GH                    0.000336
     23 GH                   -0.003435
     24 GH                    0.001802
     25 GH                   -0.000792
     26 GH                   -0.000236
     27 GH                   -0.000259
     28 GH                    0.000603
     29 GH                    0.000006
     30 GH                    0.000041
     31 GH                    0.000086
     32 GH                   -0.000004
     33 GH                   -0.000258
     34 GH                    0.000182
     35 GH                   -0.000040
     36 GH                   -0.000029
  ----------------------------------------
  Sum of atomic charges =     0.000000

                    Cartesian Multipole Moments
 -----------------------------------------------------------------
    Charge (ESU x 10^10)
                 0.0000
    Dipole Moment (Debye)
         X       0.0925      Y       0.0021      Z      -0.0018
       Tot       0.0926
    Quadrupole Moments (Debye-Ang)
        XX     -46.6573     XY       0.1035     YY     -44.6822
        XZ       0.5673     YZ       0.6904     ZZ     -52.7520

 Total job time:  80.27s(wall), 319.24s(cpu)
        *  Thank you very much for using Q-Chem.  Have a nice day.  *
