 Q-Chem 5.0, Q-Chem, Inc., Pleasanton, CA (2017)
 Q-Chem 5.0.1 for Intel X86 EM64T Linux

User input:
--------------------------------------------------------------
$molecule
0  1
C        -0.54444000        -0.68370000        -0.06689000
C        -0.55709000        +0.71878000        +0.05493000
C        -1.74320000        -1.41616000        -0.12552000
C        -2.93952000        -0.70056000        -0.05285000
C        -2.95313000        +0.68255000        +0.06934000
C        -1.77161000        +1.42404000        +0.12810000
H        -3.90354000        +1.20325000        +0.11710000
H        -3.87892000        -1.24211000        -0.08988000
C        -1.83960000        +2.92746000        +0.24839000
C        -1.78103000        -2.92226000        -0.24590000
H        -1.39752000        -3.25223000        -1.21323000
H        -2.80572000        -3.28175000        -0.13627000
H        -1.16958000        -3.40777000        +0.51926000
H        -1.24214000        +3.42352000        -0.52065000
H        -1.45503000        +3.26427000        +1.21284000
H        -2.87211000        +3.26623000        +0.14638000
H        +0.35825000        -1.18166000        -0.11386000
H        +0.33551000        +1.23549000        +0.09097000
@C        -1.61110000        -0.10553000        +3.21609000
@C        -1.62375000        +1.29695000        +3.33791000
@C        -2.80986000        -0.83799000        +3.15746000
@C        -4.00618000        -0.12239000        +3.23013000
@C        -4.01979000        +1.26072000        +3.35232000
@C        -2.83827000        +2.00221000        +3.41108000
@H        -4.97020000        +1.78142000        +3.40008000
@H        -4.94558000        -0.66394000        +3.19310000
@C        -2.90626000        +3.50563000        +3.53137000
@C        -2.84769000        -2.34409000        +3.03708000
@H        -2.46418000        -2.67406000        +2.06975000
@H        -3.87238000        -2.70358000        +3.14671000
@H        -2.23624000        -2.82960000        +3.80224000
@H        -2.30880000        +4.00169000        +2.76233000
@H        -2.52169000        +3.84244000        +4.49582000
@H        -3.93877000        +3.84440000        +3.42936000
@H        -0.70841000        -0.60349000        +3.16912000
@H        -0.73115000        +1.81366000        +3.37395000
$end

$rem
JOBTYPE                   SP
METHOD                    B3LYP
DFT_D                     d3_op
BASIS                     6-311++G(d,p)
SYMMETRY                  False
THRESH                    12
SCF_CONVERGENCE           8
MAX_SUB_FILE_NUM          128
MEM_STATIC                400
MEM_TOTAL                 4000
$end
--------------------------------------------------------------

             Standard Nuclear Orientation (Angstroms)
    I     Atom           X                Y                Z
 ----------------------------------------------------------------
    1      C      -0.5444400000    -0.6837000000    -0.0668900000
    2      C      -0.5570900000     0.7187800000     0.0549300000
    3      C      -1.7432000000    -1.4161600000    -0.1255200000
    4      C      -2.9395200000    -0.7005600000    -0.0528500000
    5      C      -2.9531300000     0.6825500000     0.0693400000
    6      C      -1.7716100000     1.4240400000     0.1281000000
    7      H      -3.9035400000     1.2032500000     0.1171000000
    8      H      -3.8789200000    -1.2421100000    -0.0898800000
    9      C      -1.8396000000     2.9274600000     0.2483900000
   10      C      -1.7810300000    -2.9222600000    -0.2459000000
   11      H      -1.3975200000    -3.2522300000    -1.2132300000
   12      H      -2.8057200000    -3.2817500000    -0.1362700000
   13      H      -1.1695800000    -3.4077700000     0.5192600000
   14      H      -1.2421400000     3.4235200000    -0.5206500000
   15      H      -1.4550300000     3.2642700000     1.2128400000
   16      H      -2.8721100000     3.2662300000     0.1463800000
   17      H       0.3582500000    -1.1816600000    -0.1138600000
   18      H       0.3355100000     1.2354900000     0.0909700000
   19      GH     -1.6111000000    -0.1055300000     3.2160900000
   20      GH     -1.6237500000     1.2969500000     3.3379100000
   21      GH     -2.8098600000    -0.8379900000     3.1574600000
   22      GH     -4.0061800000    -0.1223900000     3.2301300000
   23      GH     -4.0197900000     1.2607200000     3.3523200000
   24      GH     -2.8382700000     2.0022100000     3.4110800000
   25      GH     -4.9702000000     1.7814200000     3.4000800000
   26      GH     -4.9455800000    -0.6639400000     3.1931000000
   27      GH     -2.9062600000     3.5056300000     3.5313700000
   28      GH     -2.8476900000    -2.3440900000     3.0370800000
   29      GH     -2.4641800000    -2.6740600000     2.0697500000
   30      GH     -3.8723800000    -2.7035800000     3.1467100000
   31      GH     -2.2362400000    -2.8296000000     3.8022400000
   32      GH     -2.3088000000     4.0016900000     2.7623300000
   33      GH     -2.5216900000     3.8424400000     4.4958200000
   34      GH     -3.9387700000     3.8444000000     3.4293600000
   35      GH     -0.7084100000    -0.6034900000     3.1691200000
   36      GH     -0.7311500000     1.8136600000     3.3739500000
 ----------------------------------------------------------------

   13    -310.9763799691      1.09E-09 Convergence criterion met
 Total energy in the final basis set = -310.97637997

                    Orbital Energies (a.u.)
 --------------------------------------------------------------

 Alpha MOs
 -- Occupied --
-10.180 -10.180 -10.168 -10.168 -10.168 -10.167 -10.167 -10.167
 -0.858  -0.787  -0.745  -0.721  -0.658  -0.612  -0.577  -0.496
 -0.472  -0.460  -0.424  -0.421  -0.417  -0.404  -0.397  -0.376
 -0.345  -0.342  -0.339  -0.252  -0.236

          Ground-State Mulliken Net Atomic Charges

     Atom                 Charge (a.u.)
  ----------------------------------------
      1 C                    -0.409338
      2 C                    -0.211723
      3 C                     0.478049
      4 C                    -0.369881
      5 C                    -0.375191
      6 C                     0.444510
      7 H                     0.154177
      8 H                     0.156315
      9 C                    -0.660193
     10 C                    -0.637041
     11 H                     0.174579
     12 H                     0.137627
     13 H                     0.167269
     14 H                     0.163265
     15 H                     0.182039
     16 H                     0.135553
     17 H                     0.164986
     18 H                     0.166921
     19 GH                   -0.096692
     20 GH                   -0.000254
     21 GH                    0.117083
     22 GH                    0.174565
     23 GH                   -0.156805
     24 GH                    0.086912
     25 GH                   -0.007265
     26 GH                    0.013281
     27 GH                    0.024873
     28 GH                   -0.103395
     29 GH                    0.069877
     30 GH                   -0.009951
     31 GH                    0.002293
     32 GH                    0.001788
     33 GH                   -0.000582
     34 GH                   -0.000898
     35 GH                    0.002916
     36 GH                    0.020331
  ----------------------------------------
  Sum of atomic charges =     0.000000

                    Cartesian Multipole Moments
 -----------------------------------------------------------------
    Charge (ESU x 10^10)
                -0.0000
    Dipole Moment (Debye)
         X       0.0839      Y       0.0033      Z       0.0202
       Tot       0.0863
    Quadrupole Moments (Debye-Ang)
        XX     -46.3579     XY      -0.0066     YY     -44.8141
        XZ      -0.0950     YZ       0.6602     ZZ     -52.6046

 Total job time:  178.55s(wall), 710.77s(cpu)
        *  Thank you very much for using Q-Chem.  Have a nice day.  *
