 Q-Chem 5.0, Q-Chem, Inc., Pleasanton, CA (2017)
 Q-Chem 5.0.1 for Intel X86 EM64T Linux

User input:
--------------------------------------------------------------
$molecule
0  1
--
0  1
C        -0.54444000        -0.68370000        -0.06689000
C        -0.55709000        +0.71878000        +0.05493000
C        -1.74320000        -1.41616000        -0.12552000
C        -2.93952000        -0.70056000        -0.05285000
C        -2.95313000        +0.68255000        +0.06934000
C        -1.77161000        +1.42404000        +0.12810000
H        -3.90354000        +1.20325000        +0.11710000
H        -3.87892000        -1.24211000        -0.08988000
C        -1.83960000        +2.92746000        +0.24839000
C        -1.78103000        -2.92226000        -0.24590000
H        -1.39752000        -3.25223000        -1.21323000
H        -2.80572000        -3.28175000        -0.13627000
H        -1.16958000        -3.40777000        +0.51926000
H        -1.24214000        +3.42352000        -0.52065000
H        -1.45503000        +3.26427000        +1.21284000
H        -2.87211000        +3.26623000        +0.14638000
H        +0.35825000        -1.18166000        -0.11386000
H        +0.33551000        +1.23549000        +0.09097000
--
0  1
C        -2.03776000        +0.12574000        +4.52928000
C        -2.05041000        +1.52822000        +4.65110000
C        -3.23652000        -0.60672000        +4.47065000
C        -4.43284000        +0.10888000        +4.54332000
C        -4.44645000        +1.49199000        +4.66551000
C        -3.26493000        +2.23348000        +4.72427000
H        -5.39686000        +2.01269000        +4.71327000
H        -5.37224000        -0.43267000        +4.50629000
C        -3.33292000        +3.73690000        +4.84456000
C        -3.27435000        -2.11282000        +4.35027000
H        -2.89084000        -2.44279000        +3.38294000
H        -4.29904000        -2.47231000        +4.45990000
H        -2.66290000        -2.59833000        +5.11543000
H        -2.73546000        +4.23296000        +4.07552000
H        -2.94835000        +4.07371000        +5.80901000
H        -4.36543000        +4.07567000        +4.74255000
H        -1.13507000        -0.37222000        +4.48231000
H        -1.15781000        +2.04493000        +4.68714000
$end

$rem
JOBTYPE                   SP
METHOD                    B3LYP
DFT_D                     d3_op
BASIS                     6-311++G(d,p)
SYMMETRY                  False
THRESH                    12
SCF_CONVERGENCE           8
MAX_SUB_FILE_NUM          128
MEM_STATIC                400
MEM_TOTAL                 4000
$end
--------------------------------------------------------------

             Standard Nuclear Orientation (Angstroms)
    I     Atom           X                Y                Z
 ----------------------------------------------------------------
    1      C       3.0967073435     0.2623440523     1.0161982132
    2      C       2.4096661962     1.4905224782     0.9774361003
    3      C       3.0697190317    -0.6172412126    -0.0804156928
    4      C       2.3335526383    -0.2277193388    -1.2006288789
    5      C       1.6538883240     0.9825208447    -1.2391518386
    6      C       1.6715806242     1.8668898339    -0.1589536431
    7      H       1.0972971455     1.2521619356    -2.1303244469
    8      H       2.2913983866    -0.8907742769    -2.0583591112
    9      C       0.9266571466     3.1765702665    -0.2548191608
   10      C       3.7823301394    -1.9500728029    -0.0826572470
   11      H       4.8660790482    -1.8200124528    -0.0665309308
   12      H       3.5127649036    -2.5181040948    -0.9747987314
   13      H       3.5228417836    -2.5524446150     0.7919140087
   14      H       1.5677649698     4.0269786984    -0.0093751655
   15      H       0.0856675654     3.2043766400     0.4404952956
   16      H       0.5470946726     3.3196285076    -1.2680884838
   17      H       3.6281308624     0.0037359011     1.8622067512
   18      H       2.4481070700     2.1221765890     1.7926405221
   19      C      -1.6354221417    -0.9807803463     1.2837214262
   20      C      -2.3224632890     0.2473980796     1.2449593133
   21      C      -1.6624104535    -1.8603656112     0.1871075202
   22      C      -2.3985768469    -1.4708437374    -0.9331056659
   23      C      -3.0782411613    -0.2606035539    -0.9716286256
   24      C      -3.0605488610     0.6237654353     0.1085695699
   25      H      -3.6348323397     0.0090375370    -1.8628012339
   26      H      -2.4407310986    -2.1338986755    -1.7908358982
   27      C      -3.8054723386     1.9334458679     0.0127040522
   28      C      -0.9497993458    -3.1931972015     0.1848659660
   29      H       0.1339495629    -3.0631368514     0.2009922822
   30      H      -1.2193645816    -3.7612284934    -0.7072755184
   31      H      -1.2092877016    -3.7955690136     1.0594372217
   32      H      -3.1643645154     2.7838542998     0.2581480475
   33      H      -4.6464619199     1.9612522414     0.7080185086
   34      H      -4.1850348127     2.0765041090    -1.0005652708
   35      H      -1.1039986229    -1.2393884976     2.1297299642
   36      H      -2.2840224152     0.8790521904     2.0601637351
 ----------------------------------------------------------------

   13    -621.9544642178      6.94E-09 Convergence criterion met
 Total energy in the final basis set = -621.95446422

                    Orbital Energies (a.u.)
 --------------------------------------------------------------

 Alpha MOs
 -- Occupied --
-10.178 -10.177 -10.177 -10.177 -10.166 -10.166 -10.165 -10.165
-10.165 -10.165 -10.165 -10.165 -10.164 -10.164 -10.164 -10.164
 -0.856  -0.855  -0.785  -0.785  -0.743  -0.742  -0.719  -0.718
 -0.656  -0.655  -0.610  -0.609  -0.574  -0.574  -0.493  -0.493
 -0.470  -0.469  -0.457  -0.457  -0.424  -0.421  -0.418  -0.418
 -0.416  -0.413  -0.402  -0.402  -0.395  -0.395  -0.374  -0.373
 -0.344  -0.341  -0.340  -0.340  -0.336  -0.336  -0.250  -0.248
 -0.234  -0.233

          Ground-State Mulliken Net Atomic Charges

     Atom                 Charge (a.u.)
  ----------------------------------------
      1 C                    -0.201575
      2 C                    -0.383064
      3 C                     0.507950
      4 C                    -0.427443
      5 C                    -0.357701
      6 C                     0.668426
      7 H                     0.148439
      8 H                     0.145411
      9 C                    -0.679202
     10 C                    -0.651470
     11 H                     0.156165
     12 H                     0.140638
     13 H                     0.150215
     14 H                     0.143172
     15 H                     0.166469
     16 H                     0.137610
     17 H                     0.163217
     18 H                     0.166786
     19 C                    -0.376945
     20 C                    -0.225047
     21 C                     0.672164
     22 C                    -0.450934
     23 C                    -0.486463
     24 C                     0.605374
     25 H                     0.148203
     26 H                     0.156229
     27 C                    -0.622697
     28 C                    -0.657821
     29 H                     0.190272
     30 H                     0.135513
     31 H                     0.146078
     32 H                     0.151354
     33 H                     0.159812
     34 H                     0.141380
     35 H                     0.155143
     36 H                     0.164345
  ----------------------------------------
  Sum of atomic charges =    -0.000000

                    Cartesian Multipole Moments
 -----------------------------------------------------------------
    Charge (ESU x 10^10)
                -0.0000
    Dipole Moment (Debye)
         X       0.0752      Y       0.0429      Z       0.1429
       Tot       0.1671
    Quadrupole Moments (Debye-Ang)
        XX    -101.5722     XY      -5.9329     YY     -93.2456
        XZ       4.0535     YZ       2.1129     ZZ     -94.0242

 Total job time:  133.29s(wall), 530.52s(cpu)
        *  Thank you very much for using Q-Chem.  Have a nice day.  *
