 Q-Chem 5.0, Q-Chem, Inc., Pleasanton, CA (2017)
 Q-Chem 5.0.1 for Intel X86 EM64T Linux

User input:
--------------------------------------------------------------
$molecule
0  1
C        +0.24096000        +2.07909000        +3.92961000
C        +0.64452000        +0.62068000        +4.34237000
C        -1.16374000        +2.26644000        +3.38743000
C        -0.35631000        -0.48222000        +4.06699000
O        -2.07346000        +1.82253000        +4.28332000
O        -1.45510000        +2.79360000        +2.34484000
O        -0.89538000        -0.39371000        +2.83746000
O        -0.60382000        -1.37456000        +4.84277000
C        -1.84308000        -1.41320000        +2.47806000
C        -3.45242000        +1.90913000        +3.88286000
C        +1.34834000        +2.43395000        +2.90875000
C        +2.64896000        +2.75121000        +3.67221000
C        +3.06162000        +1.32772000        +4.14666000
C        +1.96249000        +0.44122000        +3.49628000
O        +1.64666000        +1.17084000        +2.29990000
H        +0.29637000        +2.72207000        +4.81266000
H        +0.85749000        +0.55379000        +5.40774000
H        -2.66923000        -1.43256000        +3.19070000
H        -3.74250000        +2.94943000        +3.72772000
H        +3.39060000        +3.17203000        +2.99171000
H        +2.50062000        +3.45909000        +4.49017000
H        +4.04008000        +1.04415000        +3.75527000
H        +3.09185000        +1.22159000        +5.23294000
H        -2.19322000        -1.14344000        +1.48429000
H        -1.36236000        -2.39276000        +2.46270000
H        -4.02029000        +1.47044000        +4.70037000
H        -3.61294000        +1.35121000        +2.95871000
H        +1.05096000        +3.23364000        +2.26302000
H        +2.26165000        -0.58075000        +3.39152000
@C        +0.22270000        +1.04488000        +0.58595000
@C        +0.62626000        -0.41353000        +0.99871000
@C        -1.18200000        +1.23223000        +0.04377000
@C        -0.37457000        -1.51643000        +0.72333000
@O        -2.09172000        +0.78832000        +0.93966000
@O        -1.47336000        +1.75939000        -0.99882000
@O        -0.91364000        -1.42792000        -0.50620000
@O        -0.62208000        -2.40877000        +1.49911000
@C        -1.86134000        -2.44741000        -0.86560000
@C        -3.47068000        +0.87492000        +0.53920000
@C        +1.33008000        +1.39974000        -0.43491000
@C        +2.63070000        +1.71700000        +0.32855000
@C        +3.04336000        +0.29351000        +0.80300000
@C        +1.94423000        -0.59299000        +0.15262000
@O        +1.62840000        +0.13663000        -1.04376000
@H        +0.27811000        +1.68786000        +1.46900000
@H        +0.83923000        -0.48042000        +2.06408000
@H        -2.68749000        -2.46677000        -0.15296000
@H        -3.76076000        +1.91522000        +0.38406000
@H        +3.37234000        +2.13782000        -0.35195000
@H        +2.48236000        +2.42488000        +1.14651000
@H        +4.02182000        +0.00994000        +0.41161000
@H        +3.07359000        +0.18738000        +1.88928000
@H        -2.21148000        -2.17765000        -1.85937000
@H        -1.38062000        -3.42697000        -0.88096000
@H        -4.03855000        +0.43623000        +1.35671000
@H        -3.63120000        +0.31700000        -0.38495000
@H        +1.03270000        +2.19943000        -1.08064000
@H        +2.24339000        -1.61496000        +0.04786000
$end

$rem
JOBTYPE                   SP
METHOD                    B3LYP
DFT_D                     d3_op
BASIS                     6-311++G(d,p)
SYMMETRY                  False
THRESH                    12
SCF_CONVERGENCE           8
MAX_SUB_FILE_NUM          128
MEM_STATIC                400
MEM_TOTAL                 4000
$end
--------------------------------------------------------------

             Standard Nuclear Orientation (Angstroms)
    I     Atom           X                Y                Z
 ----------------------------------------------------------------
    1      C       0.2409600000     2.0790900000     3.9296100000
    2      C       0.6445200000     0.6206800000     4.3423700000
    3      C      -1.1637400000     2.2664400000     3.3874300000
    4      C      -0.3563100000    -0.4822200000     4.0669900000
    5      O      -2.0734600000     1.8225300000     4.2833200000
    6      O      -1.4551000000     2.7936000000     2.3448400000
    7      O      -0.8953800000    -0.3937100000     2.8374600000
    8      O      -0.6038200000    -1.3745600000     4.8427700000
    9      C      -1.8430800000    -1.4132000000     2.4780600000
   10      C      -3.4524200000     1.9091300000     3.8828600000
   11      C       1.3483400000     2.4339500000     2.9087500000
   12      C       2.6489600000     2.7512100000     3.6722100000
   13      C       3.0616200000     1.3277200000     4.1466600000
   14      C       1.9624900000     0.4412200000     3.4962800000
   15      O       1.6466600000     1.1708400000     2.2999000000
   16      H       0.2963700000     2.7220700000     4.8126600000
   17      H       0.8574900000     0.5537900000     5.4077400000
   18      H      -2.6692300000    -1.4325600000     3.1907000000
   19      H      -3.7425000000     2.9494300000     3.7277200000
   20      H       3.3906000000     3.1720300000     2.9917100000
   21      H       2.5006200000     3.4590900000     4.4901700000
   22      H       4.0400800000     1.0441500000     3.7552700000
   23      H       3.0918500000     1.2215900000     5.2329400000
   24      H      -2.1932200000    -1.1434400000     1.4842900000
   25      H      -1.3623600000    -2.3927600000     2.4627000000
   26      H      -4.0202900000     1.4704400000     4.7003700000
   27      H      -3.6129400000     1.3512100000     2.9587100000
   28      H       1.0509600000     3.2336400000     2.2630200000
   29      H       2.2616500000    -0.5807500000     3.3915200000
   30      GH      0.2227000000     1.0448800000     0.5859500000
   31      GH      0.6262600000    -0.4135300000     0.9987100000
   32      GH     -1.1820000000     1.2322300000     0.0437700000
   33      GH     -0.3745700000    -1.5164300000     0.7233300000
   34      GH     -2.0917200000     0.7883200000     0.9396600000
   35      GH     -1.4733600000     1.7593900000    -0.9988200000
   36      GH     -0.9136400000    -1.4279200000    -0.5062000000
   37      GH     -0.6220800000    -2.4087700000     1.4991100000
   38      GH     -1.8613400000    -2.4474100000    -0.8656000000
   39      GH     -3.4706800000     0.8749200000     0.5392000000
   40      GH      1.3300800000     1.3997400000    -0.4349100000
   41      GH      2.6307000000     1.7170000000     0.3285500000
   42      GH      3.0433600000     0.2935100000     0.8030000000
   43      GH      1.9442300000    -0.5929900000     0.1526200000
   44      GH      1.6284000000     0.1366300000    -1.0437600000
   45      GH      0.2781100000     1.6878600000     1.4690000000
   46      GH      0.8392300000    -0.4804200000     2.0640800000
   47      GH     -2.6874900000    -2.4667700000    -0.1529600000
   48      GH     -3.7607600000     1.9152200000     0.3840600000
   49      GH      3.3723400000     2.1378200000    -0.3519500000
   50      GH      2.4823600000     2.4248800000     1.1465100000
   51      GH      4.0218200000     0.0099400000     0.4116100000
   52      GH      3.0735900000     0.1873800000     1.8892800000
   53      GH     -2.2114800000    -2.1776500000    -1.8593700000
   54      GH     -1.3806200000    -3.4269700000    -0.8809600000
   55      GH     -4.0385500000     0.4362300000     1.3567100000
   56      GH     -3.6312000000     0.3170000000    -0.3849500000
   57      GH      1.0327000000     2.1994300000    -1.0806400000
   58      GH      2.2433900000    -1.6149600000     0.0478600000
 ----------------------------------------------------------------

   14    -765.8624863719      6.73E-09 Convergence criterion met
 Total energy in the final basis set = -765.86248637

                    Orbital Energies (a.u.)
 --------------------------------------------------------------

 Alpha MOs
 -- Occupied --
-19.176 -19.174 -19.137 -19.120 -19.116 -10.310 -10.306 -10.242
-10.232 -10.232 -10.230 -10.207 -10.206 -10.182 -10.180  -1.120
 -1.113  -1.065  -1.031  -1.027  -0.833  -0.785  -0.778  -0.739
 -0.729  -0.658  -0.610  -0.596  -0.580  -0.567  -0.551  -0.520
 -0.506  -0.496  -0.488  -0.484  -0.475  -0.473  -0.461  -0.439
 -0.426  -0.424  -0.418  -0.399  -0.385  -0.376  -0.371  -0.368
 -0.362  -0.356  -0.336  -0.334  -0.320  -0.313  -0.290  -0.282
 -0.276

          Ground-State Mulliken Net Atomic Charges

     Atom                 Charge (a.u.)
  ----------------------------------------
      1 C                    -0.166227
      2 C                    -0.116092
      3 C                    -0.661379
      4 C                    -0.423453
      5 O                     0.140092
      6 O                    -0.050242
      7 O                    -0.137189
      8 O                    -0.114124
      9 C                    -0.364553
     10 C                    -0.159160
     11 C                     0.113257
     12 C                    -0.676696
     13 C                    -0.524836
     14 C                     0.270817
     15 O                    -0.163565
     16 H                     0.246699
     17 H                     0.287850
     18 H                     0.254023
     19 H                     0.173706
     20 H                     0.172385
     21 H                     0.135131
     22 H                     0.167082
     23 H                     0.131408
     24 H                     0.152836
     25 H                     0.237841
     26 H                     0.179384
     27 H                     0.213065
     28 H                     0.291911
     29 H                     0.269290
     30 GH                   -0.084021
     31 GH                    0.205535
     32 GH                   -0.021378
     33 GH                    0.094438
     34 GH                   -0.066006
     35 GH                    0.013695
     36 GH                   -0.007683
     37 GH                   -0.056025
     38 GH                    0.012024
     39 GH                   -0.009689
     40 GH                   -0.120221
     41 GH                    0.013106
     42 GH                    0.128751
     43 GH                   -0.020255
     44 GH                   -0.003956
     45 GH                    0.146892
     46 GH                   -0.099443
     47 GH                    0.001382
     48 GH                    0.004848
     49 GH                    0.008009
     50 GH                   -0.023528
     51 GH                    0.011746
     52 GH                    0.017507
     53 GH                   -0.000963
     54 GH                    0.001036
     55 GH                   -0.004550
     56 GH                   -0.001290
     57 GH                   -0.009913
     58 GH                   -0.009310
  ----------------------------------------
  Sum of atomic charges =     0.000000

                    Cartesian Multipole Moments
 -----------------------------------------------------------------
    Charge (ESU x 10^10)
                 0.0000
    Dipole Moment (Debye)
         X       0.0139      Y       0.7235      Z       1.1608
       Tot       1.3679
    Quadrupole Moments (Debye-Ang)
        XX     -75.3053     XY       2.9405     YY     -88.3482
        XZ       3.3436     YZ      14.3144     ZZ     -87.8846

 Total job time:  8502.98s(wall), 8482.61s(cpu)
        *  Thank you very much for using Q-Chem.  Have a nice day.  *
