 Q-Chem 5.0, Q-Chem, Inc., Pleasanton, CA (2017)
 Q-Chem 5.0.1 for Intel X86 EM64T Linux

User input:
--------------------------------------------------------------
$molecule
0  1
--
0  1
C        +0.22270000        +1.04488000        +0.58595000
C        +0.62626000        -0.41353000        +0.99871000
C        -1.18200000        +1.23223000        +0.04377000
C        -0.37457000        -1.51643000        +0.72333000
O        -2.09172000        +0.78832000        +0.93966000
O        -1.47336000        +1.75939000        -0.99882000
O        -0.91364000        -1.42792000        -0.50620000
O        -0.62208000        -2.40877000        +1.49911000
C        -1.86134000        -2.44741000        -0.86560000
C        -3.47068000        +0.87492000        +0.53920000
C        +1.33008000        +1.39974000        -0.43491000
C        +2.63070000        +1.71700000        +0.32855000
C        +3.04336000        +0.29351000        +0.80300000
C        +1.94423000        -0.59299000        +0.15262000
O        +1.62840000        +0.13663000        -1.04376000
H        +0.27811000        +1.68786000        +1.46900000
H        +0.83923000        -0.48042000        +2.06408000
H        -2.68749000        -2.46677000        -0.15296000
H        -3.76076000        +1.91522000        +0.38406000
H        +3.37234000        +2.13782000        -0.35195000
H        +2.48236000        +2.42488000        +1.14651000
H        +4.02182000        +0.00994000        +0.41161000
H        +3.07359000        +0.18738000        +1.88928000
H        -2.21148000        -2.17765000        -1.85937000
H        -1.38062000        -3.42697000        -0.88096000
H        -4.03855000        +0.43623000        +1.35671000
H        -3.63120000        +0.31700000        -0.38495000
H        +1.03270000        +2.19943000        -1.08064000
H        +2.24339000        -1.61496000        +0.04786000
--
0  1
C        +0.24096000        +2.07909000        +3.92961000
C        +0.64452000        +0.62068000        +4.34237000
C        -1.16374000        +2.26644000        +3.38743000
C        -0.35631000        -0.48222000        +4.06699000
O        -2.07346000        +1.82253000        +4.28332000
O        -1.45510000        +2.79360000        +2.34484000
O        -0.89538000        -0.39371000        +2.83746000
O        -0.60382000        -1.37456000        +4.84277000
C        -1.84308000        -1.41320000        +2.47806000
C        -3.45242000        +1.90913000        +3.88286000
C        +1.34834000        +2.43395000        +2.90875000
C        +2.64896000        +2.75121000        +3.67221000
C        +3.06162000        +1.32772000        +4.14666000
C        +1.96249000        +0.44122000        +3.49628000
O        +1.64666000        +1.17084000        +2.29990000
H        +0.29637000        +2.72207000        +4.81266000
H        +0.85749000        +0.55379000        +5.40774000
H        -2.66923000        -1.43256000        +3.19070000
H        -3.74250000        +2.94943000        +3.72772000
H        +3.39060000        +3.17203000        +2.99171000
H        +2.50062000        +3.45909000        +4.49017000
H        +4.04008000        +1.04415000        +3.75527000
H        +3.09185000        +1.22159000        +5.23294000
H        -2.19322000        -1.14344000        +1.48429000
H        -1.36236000        -2.39276000        +2.46270000
H        -4.02029000        +1.47044000        +4.70037000
H        -3.61294000        +1.35121000        +2.95871000
H        +1.05096000        +3.23364000        +2.26302000
H        +2.26165000        -0.58075000        +3.39152000
$end

$rem
JOBTYPE                   SP
METHOD                    B3LYP
DFT_D                     d3_op
BASIS                     6-311++G(d,p)
SYMMETRY                  False
THRESH                    12
SCF_CONVERGENCE           8
MAX_SUB_FILE_NUM          128
MEM_STATIC                400
MEM_TOTAL                 4000
$end
--------------------------------------------------------------

             Standard Nuclear Orientation (Angstroms)
    I     Atom           X                Y                Z
 ----------------------------------------------------------------
    1      C       0.3924776787     0.9733035541    -0.9265407892
    2      C       0.5140224356     1.2147072298     0.6184971898
    3      C       1.5415844109     0.2379298447    -1.5906345255
    4      C       1.8043203622     0.7914300502     1.2892064660
    5      O       1.7337126690    -0.9615124752    -0.9975996933
    6      O       2.1624270630     0.6155425321    -2.5507101907
    7      O       2.8934672741     1.1637017516     0.5925377566
    8      O       1.8538972299     0.2303292068     2.3578853054
    9      C       4.1676497978     0.8228601731     1.1643326715
   10      C       2.8199187606    -1.7546105080    -1.5080409633
   11      C       0.1953199266     2.4143523315    -1.4546302376
   12      C      -1.2518345359     2.8588659302    -1.1660317521
   13      C      -1.1909276163     3.0625995603     0.3755576269
   14      C       0.3068293545     2.7763088249     0.6784186884
   15      O       0.9528704140     3.2062150529    -0.5303950368
   16      H      -0.4912652838     0.3578013249    -1.1173973663
   17      H      -0.2741861418     0.6993839868     1.1644027894
   18      H       4.2384391509    -0.2548707112     1.3200227811
   19      H       2.6452355124    -2.0180353066    -2.5523263909
   20      H      -1.4663305982     3.7964393213    -1.6809562004
   21      H      -1.9941580024     2.1227368187    -1.4810352663
   22      H      -1.4306684195     4.0906181890     0.6524765587
   23      H      -1.8603997620     2.4016617875     0.9297687553
   24      H       4.9071266277     1.1606178474     0.4418085809
   25      H       4.3051796582     1.3310435540     2.1202095624
   26      H       2.8450551301    -2.6469219334    -0.8864330996
   27      H       3.7588009024    -1.2036755349    -1.4301590119
   28      H       0.4456546422     2.4943440739    -2.4918573317
   29      H       0.6345292906     3.2111356490     1.5995226070
   30      C      -2.2185779942    -1.3067485434    -0.4430776023
   31      C      -2.0970332373    -1.0653448677     1.1019603767
   32      C      -1.0694712620    -2.0421222528    -1.1071713386
   33      C      -0.8067353107    -1.4886220473     1.7726696529
   34      O      -0.8773430039    -3.2415645727    -0.5141365064
   35      O      -0.4486286099    -1.6645095655    -2.0672470038
   36      O       0.2824116012    -1.1163503459     1.0760009435
   37      O      -0.7571584430    -2.0497228907     2.8413484923
   38      C       1.5565941249    -1.4571919244     1.6477958584
   39      C       0.2088630877    -4.0346626055    -1.0245777763
   40      C      -2.4157357462     0.1343002340    -0.9711670507
   41      C      -3.8628902087     0.5788138327    -0.6825685652
   42      C      -3.8019832892     0.7825474628     0.8590208138
   43      C      -2.3042263184     0.4962567274     1.1618818753
   44      O      -1.6581852588     0.9261629554    -0.0469318499
   45      H      -3.1023209567    -1.9222507726    -0.6339341794
   46      H      -2.8852418147    -1.5806681107     1.6478659763
   47      H       1.6273834780    -2.5349228087     1.8034859680
   48      H       0.0341798395    -4.2980874041    -2.0688632039
   49      H      -4.0773862711     1.5163872238    -1.1974930135
   50      H      -4.6052136752    -0.1573152788    -0.9975720794
   51      H      -4.0417240923     1.8105660915     1.1359397456
   52      H      -4.4714554349     0.1216096900     1.4132319422
   53      H       2.2960709548    -1.1194342501     0.9252717678
   54      H       1.6941239854    -0.9490085435     2.6036727493
   55      H       0.2339994573    -4.9269740309    -0.4029699127
   56      H       1.1477452295    -3.4837276324    -0.9466958250
   57      H      -2.1654010307     0.2142919764    -2.0083941448
   58      H      -1.9765263823     0.9310835515     2.0829857939
 ----------------------------------------------------------------

   15   -1531.4051973733      8.23E-09 Convergence criterion met
 Total energy in the final basis set = -1531.40519737

                    Orbital Energies (a.u.)
 --------------------------------------------------------------

 Alpha MOs
 -- Occupied --
-19.182 -19.168 -19.167 -19.154 -19.147 -19.129 -19.128 -19.117
-19.114 -19.097 -10.319 -10.308 -10.289 -10.285 -10.261 -10.253
-10.234 -10.230 -10.225 -10.222 -10.220 -10.219 -10.209 -10.200
-10.199 -10.187 -10.176 -10.169 -10.156 -10.155  -1.140  -1.126
 -1.113  -1.105  -1.099  -1.055  -1.042  -1.041  -1.026  -1.011
 -0.857  -0.815  -0.805  -0.799  -0.770  -0.759  -0.750  -0.737
 -0.729  -0.720  -0.676  -0.652  -0.632  -0.629  -0.616  -0.601
 -0.589  -0.583  -0.577  -0.567  -0.554  -0.549  -0.541  -0.531
 -0.525  -0.520  -0.511  -0.501  -0.493  -0.487  -0.485  -0.480
 -0.471  -0.469  -0.468  -0.462  -0.459  -0.457  -0.447  -0.442
 -0.435  -0.432  -0.422  -0.416  -0.411  -0.407  -0.400  -0.399
 -0.386  -0.381  -0.378  -0.374  -0.372  -0.370  -0.363  -0.362
 -0.353  -0.352  -0.345  -0.342  -0.338  -0.329  -0.327  -0.323
 -0.312  -0.301  -0.298  -0.294  -0.291  -0.287  -0.282  -0.262
 -0.251  -0.220

          Ground-State Mulliken Net Atomic Charges

     Atom                 Charge (a.u.)
  ----------------------------------------
      1 C                    -0.032959
      2 C                    -0.258288
      3 C                    -0.047262
      4 C                    -0.184365
      5 O                     0.005522
      6 O                    -0.116454
      7 O                     0.119255
      8 O                     0.217064
      9 C                    -0.055630
     10 C                    -0.290304
     11 C                    -0.775720
     12 C                    -0.093839
     13 C                    -0.337090
     14 C                    -0.857829
     15 O                    -0.107643
     16 H                     0.269253
     17 H                     0.309772
     18 H                     0.200128
     19 H                     0.221411
     20 H                     0.211857
     21 H                     0.144709
     22 H                     0.196134
     23 H                     0.164703
     24 H                     0.189236
     25 H                     0.169066
     26 H                     0.149953
     27 H                     0.202285
     28 H                     0.253304
     29 H                     0.232164
     30 C                    -0.065705
     31 C                     0.020598
     32 C                    -0.705234
     33 C                    -0.364864
     34 O                     0.134749
     35 O                    -0.023154
     36 O                     0.065231
     37 O                    -0.106178
     38 C                    -0.264674
     39 C                    -0.118557
     40 C                    -0.158746
     41 C                    -0.626301
     42 C                    -0.474533
     43 C                    -0.023115
     44 O                    -0.106539
     45 H                     0.260681
     46 H                     0.307336
     47 H                     0.215392
     48 H                     0.171247
     49 H                     0.177731
     50 H                     0.146274
     51 H                     0.180319
     52 H                     0.141930
     53 H                    -0.126845
     54 H                     0.276874
     55 H                     0.181164
     56 H                     0.164459
     57 H                     0.331205
     58 H                     0.290819
  ----------------------------------------
  Sum of atomic charges =     0.000000

                    Cartesian Multipole Moments
 -----------------------------------------------------------------
    Charge (ESU x 10^10)
                 0.0000
    Dipole Moment (Debye)
         X      -3.3011      Y      -2.5350      Z       0.3902
       Tot       4.1804
    Quadrupole Moments (Debye-Ang)
        XX    -152.7968     XY     -11.3574     YY    -180.8423
        XZ       9.0292     YZ      15.6023     ZZ    -195.6120

 Total job time:  9038.22s(wall), 9016.72s(cpu)
        *  Thank you very much for using Q-Chem.  Have a nice day.  *
