 Q-Chem 5.0, Q-Chem, Inc., Pleasanton, CA (2017)
 Q-Chem 5.0.1 for Intel X86 EM64T Linux

User input:
--------------------------------------------------------------
$molecule
0  1
--
0  1
C        -0.54444000        -0.68370000        -0.06689000
C        -0.55709000        +0.71878000        +0.05493000
C        +0.74969000        -1.43776000        -0.09374000
C        +0.72843000        +1.48436000        +0.06598000
O        +1.53645000        -1.09176000        +0.94813000
O        +1.04702000        -2.28405000        -0.90088000
O        +1.53784000        +1.08301000        -0.93877000
O        +1.01035000        +2.37097000        +0.83478000
C        +2.83449000        +1.70121000        -0.99358000
C        +2.82316000        -1.73208000        +1.00475000
C        -1.74320000        -1.41616000        -0.12552000
C        -2.93952000        -0.70056000        -0.05285000
C        -2.95313000        +0.68255000        +0.06934000
C        -1.77161000        +1.42404000        +0.12810000
H        +2.73835000        +2.77989000        -1.12464000
H        +2.70778000        -2.81319000        +1.09555000
H        -3.90354000        +1.20325000        +0.11710000
H        +3.38998000        +1.50093000        -0.07544000
H        +3.33184000        +1.25269000        -1.85067000
H        +3.31095000        -1.32281000        +1.88650000
H        +3.39889000        -1.50934000        +0.10459000
H        -3.87892000        -1.24211000        -0.08988000
H        -1.78886000        +2.45164000        +0.22176000
H        -1.73878000        -2.44393000        -0.21875000
--
0  1
C        -0.52035000        -0.98887000        +3.41970000
C        -0.53300000        +0.41361000        +3.54152000
C        +0.77378000        -1.74293000        +3.39285000
C        +0.75252000        +1.17919000        +3.55257000
O        +1.56054000        -1.39693000        +4.43472000
O        +1.07111000        -2.58922000        +2.58571000
O        +1.56193000        +0.77784000        +2.54782000
O        +1.03444000        +2.06580000        +4.32137000
C        +2.85858000        +1.39604000        +2.49301000
C        +2.84725000        -2.03725000        +4.49134000
C        -1.71911000        -1.72133000        +3.36107000
C        -2.91543000        -1.00573000        +3.43374000
C        -2.92904000        +0.37738000        +3.55593000
C        -1.74752000        +1.11887000        +3.61469000
H        +2.76244000        +2.47472000        +2.36195000
H        +2.73187000        -3.11836000        +4.58214000
H        -3.87945000        +0.89808000        +3.60369000
H        +3.41407000        +1.19576000        +3.41115000
H        +3.35593000        +0.94752000        +1.63592000
H        +3.33504000        -1.62798000        +5.37309000
H        +3.42298000        -1.81451000        +3.59118000
H        -3.85483000        -1.54728000        +3.39671000
H        -1.76477000        +2.14647000        +3.70835000
H        -1.71469000        -2.74910000        +3.26784000
$end

$rem
JOBTYPE                   SP
METHOD                    B3LYP
DFT_D                     d3_op
BASIS                     6-311++G(d,p)
SYMMETRY                  False
THRESH                    12
SCF_CONVERGENCE           8
MAX_SUB_FILE_NUM          128
MEM_STATIC                400
MEM_TOTAL                 4000
$end
--------------------------------------------------------------

             Standard Nuclear Orientation (Angstroms)
    I     Atom           X                Y                Z
 ----------------------------------------------------------------
    1      C      -0.9372829654     1.5172825041    -1.0328814090
    2      C      -0.9778084667     1.7957344129     0.3465287923
    3      C       0.3711762542     1.4208658802    -1.7558877494
    4      C       0.2856549082     2.0914167089     1.0915313357
    5      O       1.2154360669     0.5768805958    -1.1241325730
    6      O       0.6365111928     1.9750690318    -2.7944170507
    7      O       1.0374572830     2.9961934228     0.4267597807
    8      O       0.5945881064     1.6258971560     2.1613263831
    9      C       2.3114771001     3.3140663516     1.0118297813
   10      C       2.5190551151     0.4321889563    -1.7144543984
   11      C      -2.1181684977     1.2825562435    -1.7590863445
   12      C      -3.3250719561     1.3311362601    -1.0593936581
   13      C      -3.3660350855     1.6036990808     0.3015400035
   14      C      -2.2025693841     1.8396410030     1.0363383699
   15      H       2.1793765765     3.7372081618     2.0085597476
   16      H       2.4375828529     0.0320478362    -2.7261882423
   17      H      -4.3242833925     1.6383400795     0.8087370648
   18      H       2.9309094212     2.4180399997     1.0832626482
   19      H       2.7628812127     4.0423688183     0.3417996886
   20      H       3.0529694177    -0.2617043022    -1.0691856615
   21      H       3.0286416947     1.3966790157    -1.7524887170
   22      H      -4.2507104401     1.1478214676    -1.5948458663
   23      H      -2.2399354164     2.0388917004     2.0482348356
   24      H      -2.0935681091     1.0819464507    -2.7711007090
   25      C      -0.6768587917    -1.9030211290    -0.3373807315
   26      C      -0.7173842930    -1.6245692201     1.0420294698
   27      C       0.6316004279    -1.9994377529    -1.0603870719
   28      C       0.5460790818    -1.3288869242     1.7870320131
   29      O       1.4758602406    -2.8434230373    -0.4286318955
   30      O       0.8969353664    -1.4452346012    -2.0989163732
   31      O       1.2978814567    -0.4241102103     1.1222604582
   32      O       0.8550122801    -1.7944064771     2.8568270605
   33      C       2.5719012737    -0.1062372815     1.7073304587
   34      C       2.7794792888    -2.9881146768    -1.0189537210
   35      C      -1.8577443240    -2.1377473895    -1.0635856670
   36      C      -3.0646477824    -2.0891673730    -0.3638929806
   37      C      -3.1056109118    -1.8166045523     0.9970406809
   38      C      -1.9421452105    -1.5806626301     1.7318390474
   39      H       2.4398007502     0.3169045287     2.7040604250
   40      H       2.6980070266    -3.3882557969    -2.0306875649
   41      H      -4.0638592188    -1.7819635536     1.5042377423
   42      H       3.1913335948    -1.0022636334     1.7787633256
   43      H       3.0233053864     0.6220651852     1.0373003660
   44      H       3.3133935914    -3.6820079353    -0.3736849841
   45      H       3.2890658684    -2.0236246174    -1.0569880395
   46      H      -3.9902862664    -2.2724821655    -0.8993451888
   47      H      -1.9795112428    -1.3814119327     2.7437355131
   48      H      -1.8331439355    -2.3383571824    -2.0756000316
 ----------------------------------------------------------------

   15   -1376.3913802987      7.95E-09 Convergence criterion met
 Total energy in the final basis set = -1376.39138030

                    Orbital Energies (a.u.)
 --------------------------------------------------------------

 Alpha MOs
 -- Occupied --
-19.178 -19.177 -19.160 -19.157 -19.118 -19.118 -19.110 -19.109
-10.312 -10.312 -10.303 -10.301 -10.235 -10.234 -10.222 -10.220
-10.210 -10.210 -10.209 -10.208 -10.194 -10.194 -10.194 -10.194
-10.193 -10.193 -10.193 -10.192  -1.124  -1.120  -1.106  -1.104
 -1.035  -1.033  -1.020  -1.016  -0.885  -0.881  -0.798  -0.793
 -0.784  -0.781  -0.742  -0.739  -0.731  -0.723  -0.653  -0.651
 -0.644  -0.640  -0.594  -0.591  -0.577  -0.574  -0.555  -0.545
 -0.527  -0.524  -0.517  -0.507  -0.503  -0.493  -0.491  -0.485
 -0.484  -0.477  -0.476  -0.468  -0.466  -0.463  -0.460  -0.459
 -0.440  -0.433  -0.428  -0.423  -0.414  -0.410  -0.404  -0.400
 -0.390  -0.386  -0.385  -0.384  -0.376  -0.369  -0.366  -0.365
 -0.363  -0.342  -0.326  -0.321  -0.306  -0.303  -0.297  -0.295
 -0.287  -0.284  -0.276  -0.274  -0.259  -0.257

          Ground-State Mulliken Net Atomic Charges

     Atom                 Charge (a.u.)
  ----------------------------------------
      1 C                     0.429179
      2 C                     0.468502
      3 C                    -0.577274
      4 C                    -0.902436
      5 O                     0.127477
      6 O                    -0.146773
      7 O                     0.194437
      8 O                    -0.116353
      9 C                    -0.079479
     10 C                    -0.357838
     11 C                     0.041232
     12 C                    -0.277347
     13 C                    -0.360782
     14 C                    -0.238643
     15 H                     0.172013
     16 H                     0.254467
     17 H                     0.181609
     18 H                     0.193061
     19 H                     0.177932
     20 H                     0.026570
     21 H                     0.193821
     22 H                     0.180130
     23 H                     0.206552
     24 H                     0.221511
     25 C                     0.367335
     26 C                     0.512243
     27 C                    -0.888008
     28 C                    -0.592740
     29 O                     0.198924
     30 O                    -0.116761
     31 O                     0.119639
     32 O                    -0.142639
     33 C                    -0.397848
     34 C                    -0.075010
     35 C                    -0.225676
     36 C                    -0.349999
     37 C                    -0.286466
     38 C                     0.042457
     39 H                     0.260412
     40 H                     0.172721
     41 H                     0.180729
     42 H                     0.195589
     43 H                     0.032352
     44 H                     0.178694
     45 H                     0.195034
     46 H                     0.181762
     47 H                     0.221837
     48 H                     0.203850
  ----------------------------------------
  Sum of atomic charges =     0.000000

                    Cartesian Multipole Moments
 -----------------------------------------------------------------
    Charge (ESU x 10^10)
                 0.0000
    Dipole Moment (Debye)
         X      -0.3540      Y      -0.2583      Z      -0.1798
       Tot       0.4737
    Quadrupole Moments (Debye-Ang)
        XX    -127.5309     XY       2.3364     YY    -165.5241
        XZ      -0.8980     YZ      17.3610     ZZ    -179.5644

 Total job time:  1497.15s(wall), 2980.06s(cpu)
        *  Thank you very much for using Q-Chem.  Have a nice day.  *
