 Q-Chem 5.0, Q-Chem, Inc., Pleasanton, CA (2017)
 Q-Chem 5.0.1 for Intel X86 EM64T Linux

User input:
--------------------------------------------------------------
$molecule
0  1
C        -0.54444000        -0.68370000        -0.06689000
C        -0.55709000        +0.71878000        +0.05493000
C        +0.74969000        -1.43776000        -0.09374000
C        +0.72843000        +1.48436000        +0.06598000
O        +1.53645000        -1.09176000        +0.94813000
O        +1.04702000        -2.28405000        -0.90088000
O        +1.53784000        +1.08301000        -0.93877000
O        +1.01035000        +2.37097000        +0.83478000
C        +2.83449000        +1.70121000        -0.99358000
C        +2.82316000        -1.73208000        +1.00475000
C        -1.74320000        -1.41616000        -0.12552000
C        -2.93952000        -0.70056000        -0.05285000
C        -2.95313000        +0.68255000        +0.06934000
C        -1.77161000        +1.42404000        +0.12810000
H        +2.73835000        +2.77989000        -1.12464000
H        +2.70778000        -2.81319000        +1.09555000
H        -3.90354000        +1.20325000        +0.11710000
H        +3.38998000        +1.50093000        -0.07544000
H        +3.33184000        +1.25269000        -1.85067000
H        +3.31095000        -1.32281000        +1.88650000
H        +3.39889000        -1.50934000        +0.10459000
H        -3.87892000        -1.24211000        -0.08988000
H        -1.78886000        +2.45164000        +0.22176000
H        -1.73878000        -2.44393000        -0.21875000
@C        -0.52035000        -0.98887000        +3.41970000
@C        -0.53300000        +0.41361000        +3.54152000
@C        +0.77378000        -1.74293000        +3.39285000
@C        +0.75252000        +1.17919000        +3.55257000
@O        +1.56054000        -1.39693000        +4.43472000
@O        +1.07111000        -2.58922000        +2.58571000
@O        +1.56193000        +0.77784000        +2.54782000
@O        +1.03444000        +2.06580000        +4.32137000
@C        +2.85858000        +1.39604000        +2.49301000
@C        +2.84725000        -2.03725000        +4.49134000
@C        -1.71911000        -1.72133000        +3.36107000
@C        -2.91543000        -1.00573000        +3.43374000
@C        -2.92904000        +0.37738000        +3.55593000
@C        -1.74752000        +1.11887000        +3.61469000
@H        +2.76244000        +2.47472000        +2.36195000
@H        +2.73187000        -3.11836000        +4.58214000
@H        -3.87945000        +0.89808000        +3.60369000
@H        +3.41407000        +1.19576000        +3.41115000
@H        +3.35593000        +0.94752000        +1.63592000
@H        +3.33504000        -1.62798000        +5.37309000
@H        +3.42298000        -1.81451000        +3.59118000
@H        -3.85483000        -1.54728000        +3.39671000
@H        -1.76477000        +2.14647000        +3.70835000
@H        -1.71469000        -2.74910000        +3.26784000
$end

$rem
JOBTYPE                   SP
METHOD                    B3LYP
DFT_D                     d3_op
BASIS                     6-311++G(d,p)
SYMMETRY                  False
THRESH                    12
SCF_CONVERGENCE           8
MAX_SUB_FILE_NUM          128
MEM_STATIC                400
MEM_TOTAL                 4000
$end
--------------------------------------------------------------

             Standard Nuclear Orientation (Angstroms)
    I     Atom           X                Y                Z
 ----------------------------------------------------------------
    1      C      -0.5444400000    -0.6837000000    -0.0668900000
    2      C      -0.5570900000     0.7187800000     0.0549300000
    3      C       0.7496900000    -1.4377600000    -0.0937400000
    4      C       0.7284300000     1.4843600000     0.0659800000
    5      O       1.5364500000    -1.0917600000     0.9481300000
    6      O       1.0470200000    -2.2840500000    -0.9008800000
    7      O       1.5378400000     1.0830100000    -0.9387700000
    8      O       1.0103500000     2.3709700000     0.8347800000
    9      C       2.8344900000     1.7012100000    -0.9935800000
   10      C       2.8231600000    -1.7320800000     1.0047500000
   11      C      -1.7432000000    -1.4161600000    -0.1255200000
   12      C      -2.9395200000    -0.7005600000    -0.0528500000
   13      C      -2.9531300000     0.6825500000     0.0693400000
   14      C      -1.7716100000     1.4240400000     0.1281000000
   15      H       2.7383500000     2.7798900000    -1.1246400000
   16      H       2.7077800000    -2.8131900000     1.0955500000
   17      H      -3.9035400000     1.2032500000     0.1171000000
   18      H       3.3899800000     1.5009300000    -0.0754400000
   19      H       3.3318400000     1.2526900000    -1.8506700000
   20      H       3.3109500000    -1.3228100000     1.8865000000
   21      H       3.3988900000    -1.5093400000     0.1045900000
   22      H      -3.8789200000    -1.2421100000    -0.0898800000
   23      H      -1.7888600000     2.4516400000     0.2217600000
   24      H      -1.7387800000    -2.4439300000    -0.2187500000
   25      GH     -0.5203500000    -0.9888700000     3.4197000000
   26      GH     -0.5330000000     0.4136100000     3.5415200000
   27      GH      0.7737800000    -1.7429300000     3.3928500000
   28      GH      0.7525200000     1.1791900000     3.5525700000
   29      GH      1.5605400000    -1.3969300000     4.4347200000
   30      GH      1.0711100000    -2.5892200000     2.5857100000
   31      GH      1.5619300000     0.7778400000     2.5478200000
   32      GH      1.0344400000     2.0658000000     4.3213700000
   33      GH      2.8585800000     1.3960400000     2.4930100000
   34      GH      2.8472500000    -2.0372500000     4.4913400000
   35      GH     -1.7191100000    -1.7213300000     3.3610700000
   36      GH     -2.9154300000    -1.0057300000     3.4337400000
   37      GH     -2.9290400000     0.3773800000     3.5559300000
   38      GH     -1.7475200000     1.1188700000     3.6146900000
   39      GH      2.7624400000     2.4747200000     2.3619500000
   40      GH      2.7318700000    -3.1183600000     4.5821400000
   41      GH     -3.8794500000     0.8980800000     3.6036900000
   42      GH      3.4140700000     1.1957600000     3.4111500000
   43      GH      3.3559300000     0.9475200000     1.6359200000
   44      GH      3.3350400000    -1.6279800000     5.3730900000
   45      GH      3.4229800000    -1.8145100000     3.5911800000
   46      GH     -3.8548300000    -1.5472800000     3.3967100000
   47      GH     -1.7647700000     2.1464700000     3.7083500000
   48      GH     -1.7146900000    -2.7491000000     3.2678400000
 ----------------------------------------------------------------

   14    -688.2129056167      5.77E-09 Convergence criterion met
 Total energy in the final basis set = -688.21290562

                    Orbital Energies (a.u.)
 --------------------------------------------------------------

 Alpha MOs
 -- Occupied --
-19.179 -19.179 -19.122 -19.122 -10.314 -10.314 -10.233 -10.233
-10.215 -10.214 -10.198 -10.198 -10.197 -10.197  -1.123  -1.116
 -1.033  -1.032  -0.887  -0.800  -0.787  -0.744  -0.733  -0.656
 -0.646  -0.596  -0.579  -0.555  -0.524  -0.516  -0.493  -0.492
 -0.485  -0.479  -0.472  -0.468  -0.440  -0.431  -0.416  -0.408
 -0.389  -0.386  -0.384  -0.369  -0.366  -0.324  -0.315  -0.301
 -0.297  -0.275  -0.272

          Ground-State Mulliken Net Atomic Charges

     Atom                 Charge (a.u.)
  ----------------------------------------
      1 C                     0.564870
      2 C                     0.611582
      3 C                    -0.610797
      4 C                    -0.893755
      5 O                     0.100937
      6 O                    -0.139370
      7 O                     0.193005
      8 O                    -0.087890
      9 C                    -0.109025
     10 C                    -0.403711
     11 C                    -0.147236
     12 C                    -0.296978
     13 C                    -0.372943
     14 C                    -0.319876
     15 H                     0.170701
     16 H                     0.216385
     17 H                     0.184452
     18 H                     0.210377
     19 H                     0.175180
     20 H                     0.118502
     21 H                     0.208302
     22 H                     0.184855
     23 H                     0.203765
     24 H                     0.211992
     25 GH                   -0.200902
     26 GH                   -0.225775
     27 GH                    0.109502
     28 GH                    0.042607
     29 GH                   -0.005498
     30 GH                   -0.047447
     31 GH                    0.077800
     32 GH                   -0.003710
     33 GH                   -0.008897
     34 GH                   -0.008601
     35 GH                    0.065593
     36 GH                    0.014639
     37 GH                    0.017638
     38 GH                    0.203288
     39 GH                    0.009856
     40 GH                    0.001596
     41 GH                    0.002268
     42 GH                   -0.003561
     43 GH                   -0.046187
     44 GH                   -0.001604
     45 GH                    0.006079
     46 GH                    0.004869
     47 GH                    0.012150
     48 GH                    0.010973
  ----------------------------------------
  Sum of atomic charges =     0.000000

                    Cartesian Multipole Moments
 -----------------------------------------------------------------
    Charge (ESU x 10^10)
                 0.0000
    Dipole Moment (Debye)
         X      -0.0497      Y      -0.1145      Z       0.0950
       Tot       0.1568
    Quadrupole Moments (Debye-Ang)
        XX     -61.5277     XY      -0.0286     YY     -84.4334
        XZ       0.1062     YZ      -9.6833     ZZ     -86.8989

 Total job time:  1520.21s(wall), 3022.55s(cpu)
        *  Thank you very much for using Q-Chem.  Have a nice day.  *
