 Q-Chem 5.0, Q-Chem, Inc., Pleasanton, CA (2017)
 Q-Chem 5.0.1 for Intel X86 EM64T Linux

User input:
--------------------------------------------------------------
$molecule
0  1
--
0  1
C        +0.22270000        +1.04488000        +0.58595000
C        +0.62626000        -0.41353000        +0.99871000
C        -1.18200000        +1.23223000        +0.04377000
C        -0.37457000        -1.51643000        +0.72333000
O        -2.09172000        +0.78832000        +0.93966000
O        -1.47336000        +1.75939000        -0.99882000
O        -0.91364000        -1.42792000        -0.50620000
O        -0.62208000        -2.40877000        +1.49911000
C        -1.86134000        -2.44741000        -0.86560000
C        -3.47068000        +0.87492000        +0.53920000
C        +1.33008000        +1.39974000        -0.43491000
C        +2.63070000        +1.71700000        +0.32855000
C        +3.04336000        +0.29351000        +0.80300000
C        +1.94423000        -0.59299000        +0.15262000
O        +1.62840000        +0.13663000        -1.04376000
H        +0.27811000        +1.68786000        +1.46900000
H        +0.83923000        -0.48042000        +2.06408000
H        -2.68749000        -2.46677000        -0.15296000
H        -3.76076000        +1.91522000        +0.38406000
H        +3.37234000        +2.13782000        -0.35195000
H        +2.48236000        +2.42488000        +1.14651000
H        +4.02182000        +0.00994000        +0.41161000
H        +3.07359000        +0.18738000        +1.88928000
H        -2.21148000        -2.17765000        -1.85937000
H        -1.38062000        -3.42697000        -0.88096000
H        -4.03855000        +0.43623000        +1.35671000
H        -3.63120000        +0.31700000        -0.38495000
C        +2.35450000        -2.01267000        -0.16812000
H        +3.26311000        -2.00678000        -0.77366000
H        +2.54990000        -2.57059000        +0.75079000
H        +1.57335000        -2.52896000        -0.72872000
H        +1.03270000        +2.19943000        -1.08064000
--
0  1
C        +0.24096000        +2.07909000        +3.92961000
C        +0.64452000        +0.62068000        +4.34237000
C        -1.16374000        +2.26644000        +3.38743000
C        -0.35631000        -0.48222000        +4.06699000
O        -2.07346000        +1.82253000        +4.28332000
O        -1.45510000        +2.79360000        +2.34484000
O        -0.89538000        -0.39371000        +2.83746000
O        -0.60382000        -1.37456000        +4.84277000
C        -1.84308000        -1.41320000        +2.47806000
C        -3.45242000        +1.90913000        +3.88286000
C        +1.34834000        +2.43395000        +2.90875000
C        +2.64896000        +2.75121000        +3.67221000
C        +3.06162000        +1.32772000        +4.14666000
C        +1.96249000        +0.44122000        +3.49628000
O        +1.64666000        +1.17084000        +2.29990000
H        +0.29637000        +2.72207000        +4.81266000
H        +0.85749000        +0.55379000        +5.40774000
H        -2.66923000        -1.43256000        +3.19070000
H        -3.74250000        +2.94943000        +3.72772000
H        +3.39060000        +3.17203000        +2.99171000
H        +2.50062000        +3.45909000        +4.49017000
H        +4.04008000        +1.04415000        +3.75527000
H        +3.09185000        +1.22159000        +5.23294000
H        -2.19322000        -1.14344000        +1.48429000
H        -1.36236000        -2.39276000        +2.46270000
H        -4.02029000        +1.47044000        +4.70037000
H        -3.61294000        +1.35121000        +2.95871000
C        +2.37276000        -0.97846000        +3.17554000
H        +3.28137000        -0.97257000        +2.57000000
H        +2.56816000        -1.53638000        +4.09445000
H        +1.59161000        -1.49475000        +2.61494000
H        +1.05096000        +3.23364000        +2.26302000
$end

$rem
JOBTYPE                   SP
METHOD                    B3LYP
DFT_D                     d3_op
BASIS                     6-311++G(d,p)
SYMMETRY                  False
THRESH                    12
SCF_CONVERGENCE           8
MAX_SUB_FILE_NUM          128
MEM_STATIC                400
MEM_TOTAL                 4000
$end
--------------------------------------------------------------

             Standard Nuclear Orientation (Angstroms)
    I     Atom           X                Y                Z
 ----------------------------------------------------------------
    1      C      -0.5636389863    -0.5085937729    -1.1887465853
    2      C      -0.7156616554    -1.0114957301     0.2891471689
    3      C      -1.5648755477     0.5303993196    -1.6580652052
    4      C      -1.9026274205    -0.5005859670     1.0790628162
    5      O      -1.5315399530     1.6112726811    -0.8469752145
    6      O      -2.2510254705     0.4565258333    -2.6447380055
    7      O      -3.0463701547    -0.5360341932     0.3714114282
    8      O      -1.8415899154    -0.1512347159     2.2338764854
    9      C      -4.2331920805    -0.0889642705     1.0483499119
   10      C      -2.4593084937     2.6659267892    -1.1573760851
   11      C      -0.6354446555    -1.8359868913    -1.9807331247
   12      C       0.7089536655    -2.5760072507    -1.8389569425
   13      C       0.6233763378    -3.0526069610    -0.3600235108
   14      C      -0.7951797928    -2.5679541859     0.0520120984
   15      O      -1.5174359582    -2.6409950154    -1.1875160806
   16      H       0.4157903259    -0.0345276182    -1.2994279036
   17      H       0.1570394178    -0.7561610349     0.8875122416
   18      H      -4.1058649441     0.9352911127     1.4025294031
   19      H      -2.2473531414     3.0863032059    -2.1416512056
   20      H       0.7457609992    -3.4226037620    -2.5260662345
   21      H       1.5703229272    -1.9369774013    -2.0435083012
   22      H       0.6743944520    -4.1402996209    -0.2871957808
   23      H       1.4058350777    -2.6371536931     0.2782073023
   24      H      -5.0270128434    -0.1481106123     0.3072037746
   25      H      -4.4537284849    -0.7356867721     1.8992195505
   26      H      -2.3173513348     3.4151643500    -0.3816576467
   27      H      -3.4820579981     2.2852892834    -1.1434778966
   28      C      -1.4772826392    -3.3825017984     1.1280858954
   29      H      -1.4904275902    -4.4360339265     0.8414105020
   30      H      -0.9442070029    -3.2845494619     2.0768151403
   31      H      -2.5080844753    -3.0547581535     1.2731883578
   32      H      -0.9037600407    -1.6734225086    -3.0037120438
   33      C       2.4216673068     1.1404584272    -0.4022612867
   34      C       2.2696446377     0.6375564701     1.0756324675
   35      C       1.4204307454     2.1794515197    -0.8715799066
   36      C       1.0826788726     1.1484662332     1.8655481148
   37      O       1.4537663401     3.2603248813    -0.0604899159
   38      O       0.7342808227     2.1055780334    -1.8582527069
   39      O      -0.0610638616     1.1130180069     1.1578967268
   40      O       1.1437163778     1.4978174843     3.0203617840
   41      C      -1.2478857874     1.5600879296     1.8348352105
   42      C       0.5259977994     4.3149789893    -0.3708907865
   43      C       2.3498616377    -0.1869346912    -1.1942478261
   44      C       3.6942599586    -0.9269550506    -1.0524716439
   45      C       3.6086826309    -1.4035547609     0.4264617878
   46      C       2.1901265003    -0.9189019858     0.8384973969
   47      O       1.4678703349    -0.9919428152    -0.4010307820
   48      H       3.4010966190     1.6145245820    -0.5129426050
   49      H       3.1423457109     0.8928911653     1.6739975402
   50      H      -1.1205586510     2.5843433128     2.1890147017
   51      H       0.7379531517     4.7353554060    -1.3551659070
   52      H       3.7310672924    -1.7735515619    -1.7395809359
   53      H       4.5556292203    -0.2879252012    -1.2570230026
   54      H       3.6597007451    -2.4912474207     0.4992895178
   55      H       4.3911413708    -0.9881014930     1.0646926009
   56      H      -2.0417065502     1.5009415878     1.0936890732
   57      H      -1.4684221918     0.9133654280     2.6857048491
   58      H       0.6679549584     5.0642165501     0.4048276519
   59      H      -0.4967517050     3.9343414835    -0.3569925980
   60      C       1.5080236539    -1.7334495983     1.9145711940
   61      H       1.4948787029    -2.7869817264     1.6278958006
   62      H       2.0410992902    -1.6354972618     2.8633004389
   63      H       0.4772218178    -1.4057059534     2.0596736564
   64      H       2.0815462524    -0.0243703085    -2.2172267452
 ----------------------------------------------------------------

   15   -1610.0368775446      8.20E-09 Convergence criterion met
 Total energy in the final basis set = -1610.03687754

                    Orbital Energies (a.u.)
 --------------------------------------------------------------

 Alpha MOs
 -- Occupied --
-19.181 -19.169 -19.168 -19.153 -19.141 -19.131 -19.127 -19.117
-19.109 -19.095 -10.318 -10.308 -10.290 -10.284 -10.264 -10.250
-10.233 -10.231 -10.224 -10.224 -10.220 -10.217 -10.205 -10.197
-10.196 -10.188 -10.178 -10.169 -10.166 -10.159 -10.151 -10.147
 -1.141  -1.125  -1.113  -1.104  -1.098  -1.056  -1.041  -1.039
 -1.026  -1.010  -0.855  -0.832  -0.814  -0.798  -0.776  -0.770
 -0.753  -0.740  -0.735  -0.722  -0.717  -0.684  -0.673  -0.651
 -0.629  -0.621  -0.611  -0.589  -0.580  -0.577  -0.567  -0.562
 -0.552  -0.544  -0.538  -0.527  -0.523  -0.515  -0.511  -0.500
 -0.493  -0.488  -0.486  -0.483  -0.472  -0.472  -0.468  -0.463
 -0.461  -0.456  -0.451  -0.444  -0.435  -0.432  -0.430  -0.426
 -0.418  -0.414  -0.410  -0.408  -0.401  -0.393  -0.390  -0.381
 -0.378  -0.375  -0.372  -0.370  -0.368  -0.364  -0.357  -0.353
 -0.347  -0.343  -0.339  -0.336  -0.330  -0.327  -0.323  -0.319
 -0.309  -0.299  -0.294  -0.292  -0.290  -0.284  -0.277  -0.260
 -0.248  -0.221

          Ground-State Mulliken Net Atomic Charges

     Atom                 Charge (a.u.)
  ----------------------------------------
      1 C                     0.035809
      2 C                    -0.460082
      3 C                    -0.263749
      4 C                    -0.761644
      5 O                     0.003441
      6 O                    -0.101911
      7 O                     0.234641
      8 O                     0.275591
      9 C                    -0.083754
     10 C                    -0.311960
     11 C                    -0.349945
     12 C                    -0.199489
     13 C                     0.023190
     14 C                    -0.882401
     15 O                     0.074361
     16 H                     0.302944
     17 H                     0.013274
     18 H                     0.205045
     19 H                     0.223118
     20 H                     0.211160
     21 H                     0.107415
     22 H                     0.184760
     23 H                     0.002047
     24 H                     0.189924
     25 H                     0.173588
     26 H                     0.145322
     27 H                     0.203562
     28 C                    -0.249575
     29 H                     0.207033
     30 H                     0.130249
     31 H                     0.195766
     32 H                     0.263224
     33 C                     0.145139
     34 C                     0.321029
     35 C                    -0.820035
     36 C                    -0.696498
     37 O                     0.142656
     38 O                    -0.028999
     39 O                     0.080262
     40 O                    -0.049229
     41 C                    -0.106263
     42 C                    -0.130626
     43 C                    -0.294267
     44 C                    -0.484225
     45 C                    -0.284408
     46 C                    -0.305014
     47 O                    -0.143856
     48 H                     0.262346
     49 H                     0.296535
     50 H                     0.219479
     51 H                     0.171949
     52 H                     0.187314
     53 H                     0.150539
     54 H                     0.190907
     55 H                     0.157759
     56 H                    -0.058041
     57 H                     0.265048
     58 H                     0.179322
     59 H                     0.164793
     60 C                    -0.432106
     61 H                     0.272966
     62 H                     0.206849
     63 H                     0.330050
     64 H                     0.347670
  ----------------------------------------
  Sum of atomic charges =     0.000000

                    Cartesian Multipole Moments
 -----------------------------------------------------------------
    Charge (ESU x 10^10)
                 0.0000
    Dipole Moment (Debye)
         X       3.4472      Y       1.5312      Z       1.1122
       Tot       3.9325
    Quadrupole Moments (Debye-Ang)
        XX    -171.4467     XY     -12.0896     YY    -183.3737
        XZ     -15.1016     YZ      -9.6169     ZZ    -213.5006

 Total job time:  8582.98s(wall), 8562.60s(cpu)
        *  Thank you very much for using Q-Chem.  Have a nice day.  *
