 Q-Chem 5.0, Q-Chem, Inc., Pleasanton, CA (2017)
 Q-Chem 5.0.1 for Intel X86 EM64T Linux

User input:
--------------------------------------------------------------
$molecule
0  1
--
0  1
C        +0.22270000        +1.04488000        +0.58595000
C        +0.62626000        -0.41353000        +0.99871000
C        -1.18200000        +1.23223000        +0.04377000
C        -0.37457000        -1.51643000        +0.72333000
O        -2.09172000        +0.78832000        +0.93966000
O        -1.47336000        +1.75939000        -0.99882000
O        -0.91364000        -1.42792000        -0.50620000
O        -0.62208000        -2.40877000        +1.49911000
C        -1.86134000        -2.44741000        -0.86560000
C        -3.47068000        +0.87492000        +0.53920000
C        +1.33008000        +1.39974000        -0.43491000
C        +2.63070000        +1.71700000        +0.32855000
C        +3.04336000        +0.29351000        +0.80300000
C        +1.94423000        -0.59299000        +0.15262000
O        +1.62840000        +0.13663000        -1.04376000
H        +0.27811000        +1.68786000        +1.46900000
H        +0.83923000        -0.48042000        +2.06408000
H        -2.68749000        -2.46677000        -0.15296000
H        -3.76076000        +1.91522000        +0.38406000
H        +3.37234000        +2.13782000        -0.35195000
H        +2.48236000        +2.42488000        +1.14651000
H        +4.02182000        +0.00994000        +0.41161000
H        +3.07359000        +0.18738000        +1.88928000
H        -2.21148000        -2.17765000        -1.85937000
H        -1.38062000        -3.42697000        -0.88096000
H        -4.03855000        +0.43623000        +1.35671000
H        -3.63120000        +0.31700000        -0.38495000
C        +0.90028000        +2.39077000        -1.49430000
C        +2.35450000        -2.01267000        -0.16812000
H        +3.26311000        -2.00678000        -0.77366000
H        +2.54990000        -2.57059000        +0.75079000
H        +1.57335000        -2.52896000        -0.72872000
H        +1.71845000        +2.58186000        -2.15686000
H        +0.59919000        +3.30478000        -1.02650000
H        +0.07925000        +1.98653000        -2.04874000
--
0  1
C        +0.24096000        +2.07909000        +3.92961000
C        +0.64452000        +0.62068000        +4.34237000
C        -1.16374000        +2.26644000        +3.38743000
C        -0.35631000        -0.48222000        +4.06699000
O        -2.07346000        +1.82253000        +4.28332000
O        -1.45510000        +2.79360000        +2.34484000
O        -0.89538000        -0.39371000        +2.83746000
O        -0.60382000        -1.37456000        +4.84277000
C        -1.84308000        -1.41320000        +2.47806000
C        -3.45242000        +1.90913000        +3.88286000
C        +1.34834000        +2.43395000        +2.90875000
C        +2.64896000        +2.75121000        +3.67221000
C        +3.06162000        +1.32772000        +4.14666000
C        +1.96249000        +0.44122000        +3.49628000
O        +1.64666000        +1.17084000        +2.29990000
H        +0.29637000        +2.72207000        +4.81266000
H        +0.85749000        +0.55379000        +5.40774000
H        -2.66923000        -1.43256000        +3.19070000
H        -3.74250000        +2.94943000        +3.72772000
H        +3.39060000        +3.17203000        +2.99171000
H        +2.50062000        +3.45909000        +4.49017000
H        +4.04008000        +1.04415000        +3.75527000
H        +3.09185000        +1.22159000        +5.23294000
H        -2.19322000        -1.14344000        +1.48429000
H        -1.36236000        -2.39276000        +2.46270000
H        -4.02029000        +1.47044000        +4.70037000
H        -3.61294000        +1.35121000        +2.95871000
C        +0.91854000        +3.42498000        +1.84936000
C        +2.37276000        -0.97846000        +3.17554000
H        +3.28137000        -0.97257000        +2.57000000
H        +2.56816000        -1.53638000        +4.09445000
H        +1.59161000        -1.49475000        +2.61494000
H        +1.73671000        +3.61607000        +1.18680000
H        +0.61745000        +4.33899000        +2.31716000
H        +0.09751000        +3.02074000        +1.29492000
$end

$rem
JOBTYPE                   SP
METHOD                    B3LYP
DFT_D                     d3_op
BASIS                     6-311++G(d,p)
SYMMETRY                  False
THRESH                    12
SCF_CONVERGENCE           8
MAX_SUB_FILE_NUM          128
MEM_STATIC                400
MEM_TOTAL                 4000
$end
--------------------------------------------------------------

             Standard Nuclear Orientation (Angstroms)
    I     Atom           X                Y                Z
 ----------------------------------------------------------------
    1      C       0.7180485547    -0.4018695783     0.9232457728
    2      C       0.9646308929    -0.6170500053    -0.6107313306
    3      C       1.3803417399     0.8091319080     1.5533921064
    4      C       1.9202220552     0.3334227906    -1.3016222324
    5      O       1.0014253926     1.9362944826     0.9105916780
    6      O       2.0890245448     0.8013479478     2.5267832484
    7      O       3.0451880556     0.5388016855    -0.5927883214
    8      O       1.7209126280     0.8119408945    -2.3927971315
    9      C       4.0232473595     1.4126519441    -1.1813877044
   10      C       1.5838140054     3.1631524784     1.3849769802
   11      C       1.2062442400    -1.7473598476     1.5112016656
   12      C       0.1382862429    -2.8260990247     1.2448842463
   13      C       0.3136132070    -3.0361395650    -0.2870616683
   14      C       1.5102435535    -2.0960347405    -0.6052469666
   15      O       2.2613155599    -2.1288584058     0.6187761075
   16      H      -0.3538446332    -0.2628692410     1.0905620927
   17      H       0.0365980680    -0.5499348686    -1.1756157119
   18      H       3.5862127120     2.3922245974    -1.3818684654
   19      H       1.2885681793     3.3540411110     2.4178517781
   20      H       0.3767025304    -3.7352241677     1.7988235573
   21      H      -0.8668693027    -2.5098317203     1.5308820310
   22      H       0.5854623568    -4.0669664859    -0.5204624982
   23      H      -0.5771172482    -2.7852713926    -0.8665839582
   24      H       4.8223757641     1.4864234411    -0.4472904021
   25      H       4.3981907438     0.9914762408    -2.1156756296
   26      H       1.2008262775     3.9399168727     0.7267936250
   27      H       2.6724454248     3.1112109122     1.3277203154
   28      C       1.7400627209    -1.6479824451     2.9234118604
   29      C       2.3682308808    -2.5052312497    -1.7813009134
   30      H       2.7028011972    -3.5367208565    -1.6533266574
   31      H       1.7997170027    -2.4345517725    -2.7117028999
   32      H       3.2500124221    -1.8674822457    -1.8635235863
   33      H       2.0551963820    -2.6154428779     3.2544924809
   34      H       0.9703884791    -1.2826892601     3.5707670632
   35      H       2.5721166087    -0.9755399233     2.9436932499
   36      C      -2.6460226011     0.3770144649     0.3519745123
   37      C      -2.3994402630     0.1618340380    -1.1820025911
   38      C      -1.9837294159     1.5880159512     0.9821208460
   39      C      -1.4438491006     1.1123068338    -1.8728934928
   40      O      -2.3626457633     2.7151785258     0.3393204176
   41      O      -1.2750466110     1.5802319911     1.9555119880
   42      O      -0.3188831002     1.3176857288    -1.1640595819
   43      O      -1.6431585278     1.5908249377    -2.9640683920
   44      C       0.6591762037     2.1915359874    -1.7526589649
   45      C      -1.7802571504     3.9420365216     0.8137057198
   46      C      -2.1578269158    -0.9684758043     0.9399304052
   47      C      -3.2257849129    -2.0472149815     0.6736129859
   48      C      -3.0504579488    -2.2572555218    -0.8583329288
   49      C      -1.8538276024    -1.3171506972    -1.1765182270
   50      O      -1.1027555959    -1.3499743626     0.0475048470
   51      H      -3.7179157890     0.5160148022     0.5192908322
   52      H      -3.3274730879     0.2289491747    -1.7468869723
   53      H       0.2221415561     3.1711086406    -1.9531397258
   54      H      -2.0755029765     4.1329251542     1.8465805177
   55      H      -2.9873686254    -2.9563401244     1.2275522969
   56      H      -4.2309404585    -1.7309476771     0.9596107706
   57      H      -2.7786087990    -3.2880824427    -1.0917337587
   58      H      -3.9411884040    -2.0063873493    -1.4378552187
   59      H       1.4583046083     2.2653074844    -1.0185616625
   60      H       1.0341195879     1.7703602840    -2.6869468901
   61      H      -2.1632448783     4.7188009160     0.1555223646
   62      H      -0.6916257310     3.8900949554     0.7564490550
   63      C      -1.6240084349    -0.8690984019     2.3521406000
   64      C      -0.9958402750    -1.7263472065    -2.3525721738
   65      H      -0.6612699587    -2.7578368133    -2.2245979178
   66      H      -1.5643541531    -1.6556677292    -3.2829741603
   67      H      -0.1140587337    -1.0885982024    -2.4347948468
   68      H      -1.3088747738    -1.8365588347     2.6832212205
   69      H      -2.3936826768    -0.5038052168     2.9994958028
   70      H      -0.7919545471    -0.1966558801     2.3724219894
 ----------------------------------------------------------------

   15   -1688.6386478023      7.59E-09 Convergence criterion met
 Total energy in the final basis set = -1688.63864780

                    Orbital Energies (a.u.)
 --------------------------------------------------------------

 Alpha MOs
 -- Occupied --
-19.182 -19.169 -19.167 -19.156 -19.135 -19.131 -19.126 -19.116
-19.103 -19.097 -10.320 -10.307 -10.289 -10.288 -10.261 -10.252
-10.234 -10.231 -10.226 -10.220 -10.219 -10.216 -10.209 -10.195
-10.193 -10.188 -10.175 -10.167 -10.162 -10.157 -10.151 -10.143
-10.141 -10.120  -1.141  -1.127  -1.113  -1.102  -1.101  -1.056
 -1.043  -1.039  -1.026  -1.016  -0.854  -0.841  -0.817  -0.800
 -0.785  -0.771  -0.756  -0.747  -0.740  -0.735  -0.721  -0.707
 -0.696  -0.669  -0.661  -0.636  -0.624  -0.611  -0.607  -0.588
 -0.580  -0.576  -0.564  -0.561  -0.547  -0.540  -0.533  -0.524
 -0.519  -0.515  -0.506  -0.501  -0.494  -0.492  -0.487  -0.478
 -0.473  -0.471  -0.468  -0.467  -0.464  -0.457  -0.453  -0.450
 -0.446  -0.436  -0.433  -0.426  -0.422  -0.420  -0.412  -0.408
 -0.402  -0.400  -0.394  -0.390  -0.387  -0.383  -0.377  -0.376
 -0.372  -0.372  -0.368  -0.364  -0.357  -0.356  -0.351  -0.345
 -0.344  -0.338  -0.334  -0.328  -0.326  -0.322  -0.317  -0.310
 -0.304  -0.299  -0.293  -0.290  -0.285  -0.278  -0.273  -0.249
 -0.245  -0.220

          Ground-State Mulliken Net Atomic Charges

     Atom                 Charge (a.u.)
  ----------------------------------------
      1 C                     0.120223
      2 C                    -0.863348
      3 C                    -0.118885
      4 C                    -0.676718
      5 O                     0.026860
      6 O                    -0.025101
      7 O                     0.223553
      8 O                     0.298616
      9 C                    -0.091434
     10 C                    -0.266646
     11 C                    -0.270534
     12 C                     0.158237
     13 C                    -0.055843
     14 C                    -0.411850
     15 O                     0.188508
     16 H                    -0.113235
     17 H                    -0.026387
     18 H                     0.206180
     19 H                     0.222856
     20 H                     0.212838
     21 H                     0.014373
     22 H                     0.202056
     23 H                    -0.056363
     24 H                     0.184238
     25 H                     0.174935
     26 H                     0.159651
     27 H                     0.207417
     28 C                    -0.546129
     29 C                    -0.504634
     30 H                     0.201058
     31 H                     0.123621
     32 H                     0.183373
     33 H                     0.144184
     34 H                     0.122562
     35 H                     0.202074
     36 C                    -0.043342
     37 C                     0.204707
     38 C                    -0.908215
     39 C                    -0.545041
     40 O                     0.156418
     41 O                    -0.029817
     42 O                     0.041968
     43 O                    -0.054354
     44 C                    -0.065404
     45 C                    -0.124511
     46 C                     0.039632
     47 C                    -0.139084
     48 C                    -0.127812
     49 C                    -0.252524
     50 O                    -0.187389
     51 H                     0.249641
     52 H                     0.294107
     53 H                     0.225922
     54 H                     0.171441
     55 H                     0.201708
     56 H                     0.164122
     57 H                     0.192916
     58 H                     0.162774
     59 H                    -0.068152
     60 H                     0.257110
     61 H                     0.181999
     62 H                     0.141618
     63 C                    -0.745605
     64 C                    -0.485922
     65 H                     0.281063
     66 H                     0.203008
     67 H                     0.337330
     68 H                     0.220395
     69 H                     0.175404
     70 H                     0.323585
  ----------------------------------------
  Sum of atomic charges =     0.000000

                    Cartesian Multipole Moments
 -----------------------------------------------------------------
    Charge (ESU x 10^10)
                 0.0000
    Dipole Moment (Debye)
         X      -3.4659      Y       1.1486      Z      -0.4952
       Tot       3.6847
    Quadrupole Moments (Debye-Ang)
        XX    -193.4766     XY      15.6931     YY    -192.1498
        XZ     -14.5615     YZ      10.2779     ZZ    -223.2586

 Total job time:  4555.00s(wall), 9069.04s(cpu)
        *  Thank you very much for using Q-Chem.  Have a nice day.  *
