 Q-Chem 5.0, Q-Chem, Inc., Pleasanton, CA (2017)
 Q-Chem 5.0.1 for Intel X86 EM64T Linux

User input:
--------------------------------------------------------------
$molecule
0  1
C        -0.54444000        -0.68370000        -0.06689000
C        -0.55709000        +0.71878000        +0.05493000
C        +0.74969000        -1.43776000        -0.09374000
C        +0.72843000        +1.48436000        +0.06598000
O        +1.53645000        -1.09176000        +0.94813000
O        +1.04702000        -2.28405000        -0.90088000
O        +1.53784000        +1.08301000        -0.93877000
O        +1.01035000        +2.37097000        +0.83478000
C        +2.83449000        +1.70121000        -0.99358000
C        +2.82316000        -1.73208000        +1.00475000
C        -1.74320000        -1.41616000        -0.12552000
C        -2.93952000        -0.70056000        -0.05285000
C        -2.95313000        +0.68255000        +0.06934000
C        -1.77161000        +1.42404000        +0.12810000
H        +2.73835000        +2.77989000        -1.12464000
H        +2.70778000        -2.81319000        +1.09555000
H        -3.90354000        +1.20325000        +0.11710000
H        +3.38998000        +1.50093000        -0.07544000
H        +3.33184000        +1.25269000        -1.85067000
H        +3.31095000        -1.32281000        +1.88650000
H        +3.39889000        -1.50934000        +0.10459000
H        -3.87892000        -1.24211000        -0.08988000
C        -1.83960000        +2.92746000        +0.24839000
H        -1.24214000        +3.42352000        -0.52065000
H        -1.45503000        +3.26427000        +1.21284000
H        -2.87211000        +3.26623000        +0.14638000
H        -1.73878000        -2.44393000        -0.21875000
@C        -0.52035000        -0.98887000        +3.41970000
@C        -0.53300000        +0.41361000        +3.54152000
@C        +0.77378000        -1.74293000        +3.39285000
@C        +0.75252000        +1.17919000        +3.55257000
@O        +1.56054000        -1.39693000        +4.43472000
@O        +1.07111000        -2.58922000        +2.58571000
@O        +1.56193000        +0.77784000        +2.54782000
@O        +1.03444000        +2.06580000        +4.32137000
@C        +2.85858000        +1.39604000        +2.49301000
@C        +2.84725000        -2.03725000        +4.49134000
@C        -1.71911000        -1.72133000        +3.36107000
@C        -2.91543000        -1.00573000        +3.43374000
@C        -2.92904000        +0.37738000        +3.55593000
@C        -1.74752000        +1.11887000        +3.61469000
@H        +2.76244000        +2.47472000        +2.36195000
@H        +2.73187000        -3.11836000        +4.58214000
@H        -3.87945000        +0.89808000        +3.60369000
@H        +3.41407000        +1.19576000        +3.41115000
@H        +3.35593000        +0.94752000        +1.63592000
@H        +3.33504000        -1.62798000        +5.37309000
@H        +3.42298000        -1.81451000        +3.59118000
@H        -3.85483000        -1.54728000        +3.39671000
@C        -1.81551000        +2.62229000        +3.73498000
@H        -1.21805000        +3.11835000        +2.96594000
@H        -1.43094000        +2.95910000        +4.69943000
@H        -2.84802000        +2.96106000        +3.63297000
@H        -1.71469000        -2.74910000        +3.26784000
$end

$rem
JOBTYPE                   SP
METHOD                    B3LYP
DFT_D                     d3_op
BASIS                     6-311++G(d,p)
SYMMETRY                  False
THRESH                    12
SCF_CONVERGENCE           8
MAX_SUB_FILE_NUM          128
MEM_STATIC                400
MEM_TOTAL                 4000
$end
--------------------------------------------------------------

             Standard Nuclear Orientation (Angstroms)
    I     Atom           X                Y                Z
 ----------------------------------------------------------------
    1      C      -0.5444400000    -0.6837000000    -0.0668900000
    2      C      -0.5570900000     0.7187800000     0.0549300000
    3      C       0.7496900000    -1.4377600000    -0.0937400000
    4      C       0.7284300000     1.4843600000     0.0659800000
    5      O       1.5364500000    -1.0917600000     0.9481300000
    6      O       1.0470200000    -2.2840500000    -0.9008800000
    7      O       1.5378400000     1.0830100000    -0.9387700000
    8      O       1.0103500000     2.3709700000     0.8347800000
    9      C       2.8344900000     1.7012100000    -0.9935800000
   10      C       2.8231600000    -1.7320800000     1.0047500000
   11      C      -1.7432000000    -1.4161600000    -0.1255200000
   12      C      -2.9395200000    -0.7005600000    -0.0528500000
   13      C      -2.9531300000     0.6825500000     0.0693400000
   14      C      -1.7716100000     1.4240400000     0.1281000000
   15      H       2.7383500000     2.7798900000    -1.1246400000
   16      H       2.7077800000    -2.8131900000     1.0955500000
   17      H      -3.9035400000     1.2032500000     0.1171000000
   18      H       3.3899800000     1.5009300000    -0.0754400000
   19      H       3.3318400000     1.2526900000    -1.8506700000
   20      H       3.3109500000    -1.3228100000     1.8865000000
   21      H       3.3988900000    -1.5093400000     0.1045900000
   22      H      -3.8789200000    -1.2421100000    -0.0898800000
   23      C      -1.8396000000     2.9274600000     0.2483900000
   24      H      -1.2421400000     3.4235200000    -0.5206500000
   25      H      -1.4550300000     3.2642700000     1.2128400000
   26      H      -2.8721100000     3.2662300000     0.1463800000
   27      H      -1.7387800000    -2.4439300000    -0.2187500000
   28      GH     -0.5203500000    -0.9888700000     3.4197000000
   29      GH     -0.5330000000     0.4136100000     3.5415200000
   30      GH      0.7737800000    -1.7429300000     3.3928500000
   31      GH      0.7525200000     1.1791900000     3.5525700000
   32      GH      1.5605400000    -1.3969300000     4.4347200000
   33      GH      1.0711100000    -2.5892200000     2.5857100000
   34      GH      1.5619300000     0.7778400000     2.5478200000
   35      GH      1.0344400000     2.0658000000     4.3213700000
   36      GH      2.8585800000     1.3960400000     2.4930100000
   37      GH      2.8472500000    -2.0372500000     4.4913400000
   38      GH     -1.7191100000    -1.7213300000     3.3610700000
   39      GH     -2.9154300000    -1.0057300000     3.4337400000
   40      GH     -2.9290400000     0.3773800000     3.5559300000
   41      GH     -1.7475200000     1.1188700000     3.6146900000
   42      GH      2.7624400000     2.4747200000     2.3619500000
   43      GH      2.7318700000    -3.1183600000     4.5821400000
   44      GH     -3.8794500000     0.8980800000     3.6036900000
   45      GH      3.4140700000     1.1957600000     3.4111500000
   46      GH      3.3559300000     0.9475200000     1.6359200000
   47      GH      3.3350400000    -1.6279800000     5.3730900000
   48      GH      3.4229800000    -1.8145100000     3.5911800000
   49      GH     -3.8548300000    -1.5472800000     3.3967100000
   50      GH     -1.8155100000     2.6222900000     3.7349800000
   51      GH     -1.2180500000     3.1183500000     2.9659400000
   52      GH     -1.4309400000     2.9591000000     4.6994300000
   53      GH     -2.8480200000     2.9610600000     3.6329700000
   54      GH     -1.7146900000    -2.7491000000     3.2678400000
 ----------------------------------------------------------------

   14    -727.5462554671      5.69E-09 Convergence criterion met
 Total energy in the final basis set = -727.54625547

                    Orbital Energies (a.u.)
 --------------------------------------------------------------

 Alpha MOs
 -- Occupied --
-19.178 -19.177 -19.121 -19.119 -10.313 -10.312 -10.233 -10.232
-10.211 -10.208 -10.207 -10.193 -10.191 -10.190 -10.174  -1.122
 -1.115  -1.033  -1.030  -0.886  -0.801  -0.795  -0.747  -0.731
 -0.704  -0.655  -0.627  -0.581  -0.575  -0.550  -0.521  -0.514
 -0.492  -0.490  -0.482  -0.478  -0.472  -0.447  -0.435  -0.431
 -0.429  -0.412  -0.406  -0.395  -0.384  -0.378  -0.370  -0.365
 -0.364  -0.322  -0.314  -0.296  -0.294  -0.269  -0.264

          Ground-State Mulliken Net Atomic Charges

     Atom                 Charge (a.u.)
  ----------------------------------------
      1 C                     0.449993
      2 C                     0.081623
      3 C                    -0.544439
      4 C                    -0.840031
      5 O                     0.108547
      6 O                    -0.139385
      7 O                     0.206680
      8 O                    -0.075750
      9 C                    -0.080368
     10 C                    -0.395667
     11 C                    -0.274665
     12 C                    -0.256591
     13 C                    -0.171350
     14 C                     0.256756
     15 H                     0.165972
     16 H                     0.214220
     17 H                     0.164366
     18 H                     0.212099
     19 H                     0.176210
     20 H                     0.117098
     21 H                     0.208716
     22 H                     0.186201
     23 C                    -0.584880
     24 H                     0.176816
     25 H                     0.216696
     26 H                     0.149269
     27 H                     0.197433
     28 GH                   -0.189708
     29 GH                   -0.074982
     30 GH                    0.115455
     31 GH                   -0.039424
     32 GH                   -0.006139
     33 GH                   -0.044896
     34 GH                    0.078207
     35 GH                   -0.003235
     36 GH                    0.030642
     37 GH                   -0.005229
     38 GH                    0.076194
     39 GH                    0.015179
     40 GH                   -0.026230
     41 GH                    0.059906
     42 GH                    0.004242
     43 GH                    0.001637
     44 GH                    0.005058
     45 GH                    0.000434
     46 GH                   -0.042096
     47 GH                   -0.001566
     48 GH                    0.006511
     49 GH                    0.003826
     50 GH                    0.097867
     51 GH                   -0.001036
     52 GH                   -0.000979
     53 GH                    0.002688
     54 GH                    0.012103
  ----------------------------------------
  Sum of atomic charges =     0.000000

                    Cartesian Multipole Moments
 -----------------------------------------------------------------
    Charge (ESU x 10^10)
                 0.0000
    Dipole Moment (Debye)
         X      -0.0003      Y       0.4792      Z       0.2242
       Tot       0.5291
    Quadrupole Moments (Debye-Ang)
        XX     -68.9604     XY      -0.6653     YY     -89.8058
        XZ      -0.0570     YZ      -9.2830     ZZ     -93.1231

 Total job time:  2057.83s(wall), 4076.96s(cpu)
        *  Thank you very much for using Q-Chem.  Have a nice day.  *
