 Q-Chem 5.0, Q-Chem, Inc., Pleasanton, CA (2017)
 Q-Chem 5.0.1 for Intel X86 EM64T Linux

User input:
--------------------------------------------------------------
$molecule
0  1
--
0  1
C        -0.54444000        -0.68370000        -0.06689000
C        -0.55709000        +0.71878000        +0.05493000
C        +0.74969000        -1.43776000        -0.09374000
C        +0.72843000        +1.48436000        +0.06598000
O        +1.53645000        -1.09176000        +0.94813000
O        +1.04702000        -2.28405000        -0.90088000
O        +1.53784000        +1.08301000        -0.93877000
O        +1.01035000        +2.37097000        +0.83478000
C        +2.83449000        +1.70121000        -0.99358000
C        +2.82316000        -1.73208000        +1.00475000
C        -1.74320000        -1.41616000        -0.12552000
C        -2.93952000        -0.70056000        -0.05285000
C        -2.95313000        +0.68255000        +0.06934000
C        -1.77161000        +1.42404000        +0.12810000
H        +2.73835000        +2.77989000        -1.12464000
H        +2.70778000        -2.81319000        +1.09555000
H        -3.90354000        +1.20325000        +0.11710000
H        +3.38998000        +1.50093000        -0.07544000
H        +3.33184000        +1.25269000        -1.85067000
H        +3.31095000        -1.32281000        +1.88650000
H        +3.39889000        -1.50934000        +0.10459000
H        -3.87892000        -1.24211000        -0.08988000
C        -1.83960000        +2.92746000        +0.24839000
H        -1.24214000        +3.42352000        -0.52065000
H        -1.45503000        +3.26427000        +1.21284000
H        -2.87211000        +3.26623000        +0.14638000
H        -1.73878000        -2.44393000        -0.21875000
--
0  1
C        -0.52035000        -0.98887000        +3.41970000
C        -0.53300000        +0.41361000        +3.54152000
C        +0.77378000        -1.74293000        +3.39285000
C        +0.75252000        +1.17919000        +3.55257000
O        +1.56054000        -1.39693000        +4.43472000
O        +1.07111000        -2.58922000        +2.58571000
O        +1.56193000        +0.77784000        +2.54782000
O        +1.03444000        +2.06580000        +4.32137000
C        +2.85858000        +1.39604000        +2.49301000
C        +2.84725000        -2.03725000        +4.49134000
C        -1.71911000        -1.72133000        +3.36107000
C        -2.91543000        -1.00573000        +3.43374000
C        -2.92904000        +0.37738000        +3.55593000
C        -1.74752000        +1.11887000        +3.61469000
H        +2.76244000        +2.47472000        +2.36195000
H        +2.73187000        -3.11836000        +4.58214000
H        -3.87945000        +0.89808000        +3.60369000
H        +3.41407000        +1.19576000        +3.41115000
H        +3.35593000        +0.94752000        +1.63592000
H        +3.33504000        -1.62798000        +5.37309000
H        +3.42298000        -1.81451000        +3.59118000
H        -3.85483000        -1.54728000        +3.39671000
C        -1.81551000        +2.62229000        +3.73498000
H        -1.21805000        +3.11835000        +2.96594000
H        -1.43094000        +2.95910000        +4.69943000
H        -2.84802000        +2.96106000        +3.63297000
H        -1.71469000        -2.74910000        +3.26784000
$end

$rem
JOBTYPE                   SP
METHOD                    B3LYP
DFT_D                     d3_op
BASIS                     6-311++G(d,p)
SYMMETRY                  False
THRESH                    12
SCF_CONVERGENCE           8
MAX_SUB_FILE_NUM          128
MEM_STATIC                400
MEM_TOTAL                 4000
$end
--------------------------------------------------------------

             Standard Nuclear Orientation (Angstroms)
    I     Atom           X                Y                Z
 ----------------------------------------------------------------
    1      C       0.6193204389    -1.3530157455    -1.4716545028
    2      C       1.1586710106    -1.5522837161    -0.1866083861
    3      C      -0.8425866154    -1.5562318708    -1.7278396586
    4      C       0.2921803631    -2.0608826835     0.9221375530
    5      O      -1.5926613206    -0.8707244543    -0.8380824372
    6      O      -1.3085100619    -2.2008235365    -2.6353107596
    7      O      -0.4306563026    -3.1288133500     0.5186772955
    8      O       0.2557956299    -1.6172212504     2.0439442665
    9      C      -1.3538879098    -3.6687856697     1.4791719035
   10      C      -3.0172577190    -1.0194818357    -0.9693626490
   11      C       1.4281061614    -0.9197974865    -2.5370878706
   12      C       2.7788202449    -0.6913272380    -2.2689113588
   13      C       3.3114082378    -0.8856160047    -1.0013503918
   14      C       2.5217385689    -1.3161109503     0.0665192557
   15      H      -0.8235087009    -4.0092093234     2.3695537297
   16      H      -3.3503990238    -0.6592627392    -1.9438446088
   17      H       4.3674483688    -0.7026496276    -0.8340446172
   18      H      -2.0875346279    -2.9134948549     1.7672006456
   19      H      -1.8371497718    -4.5038153680     0.9768633760
   20      H      -3.4453411694    -0.4176924200    -0.1709153193
   21      H      -3.3019849366    -2.0675266545    -0.8602817832
   22      H       3.4238166149    -0.3508175863    -3.0721254294
   23      C       3.1508959977    -1.5247097958     1.4229894810
   24      H       2.9315440403    -2.5175695589     1.8237022289
   25      H       2.7742132413    -0.8013439642     2.1484898863
   26      H       4.2350319902    -1.4187769534     1.3546123225
   27      H       1.0379058280    -0.7761687576    -3.4816179285
   28      C      -0.1006838899     1.9736832821    -0.6563715878
   29      C       0.4386666818     1.7744153115     0.6286745289
   30      C      -1.5625909442     1.7704671568    -0.9125567437
   31      C      -0.4278239657     1.2658163441     1.7374204680
   32      O      -2.3126656494     2.4559745733    -0.0227995223
   33      O      -2.0285143907     1.1258754910    -1.8200278446
   34      O      -1.1506606315     0.1978856776     1.3339602104
   35      O      -0.4642086989     1.7094777772     2.8592271814
   36      C      -2.0738922387    -0.3420866421     2.2944548185
   37      C      -3.7372620478     2.3072171919    -0.1540797340
   38      C       0.7081018325     2.4069015411    -1.7218049556
   39      C       2.0588159161     2.6353717896    -1.4536284439
   40      C       2.5914039090     2.4410830229    -0.1860674768
   41      C       1.8017342401     2.0105880773     0.8818021707
   42      H      -1.5435130297    -0.6825102959     3.1848366446
   43      H      -4.0704033526     2.6674362884    -1.1285616939
   44      H       3.6474440400     2.6240494000    -0.0187617022
   45      H      -2.8075389567     0.4132041726     2.5824835606
   46      H      -2.5571541006    -1.1771163404     1.7921462909
   47      H      -4.1653454982     2.9090066076     0.6443675956
   48      H      -4.0219892654     1.2591723730    -0.0449988682
   49      H       2.7038122861     2.9758814412    -2.2568425145
   50      C       2.4308916689     1.8019892318     2.2382723959
   51      H       2.2115397115     0.8091294687     2.6389851438
   52      H       2.0542089125     2.5253550634     2.9637728013
   53      H       3.5150276614     1.9079220742     2.1698952375
   54      H       0.3179014991     2.5505302700    -2.6663350135
 ----------------------------------------------------------------

   15   -1455.0573985473      8.57E-09 Convergence criterion met
 Total energy in the final basis set = -1455.05739855

                    Orbital Energies (a.u.)
 --------------------------------------------------------------

 Alpha MOs
 -- Occupied --
-19.177 -19.176 -19.159 -19.155 -19.118 -19.115 -19.110 -19.106
-10.311 -10.309 -10.302 -10.298 -10.234 -10.234 -10.222 -10.218
-10.207 -10.205 -10.204 -10.203 -10.203 -10.202 -10.190 -10.189
-10.188 -10.186 -10.186 -10.185 -10.173 -10.169  -1.122  -1.119
 -1.106  -1.102  -1.034  -1.033  -1.021  -1.014  -0.884  -0.880
 -0.800  -0.795  -0.793  -0.789  -0.746  -0.741  -0.730  -0.722
 -0.705  -0.698  -0.652  -0.650  -0.625  -0.621  -0.580  -0.577
 -0.576  -0.566  -0.549  -0.542  -0.527  -0.520  -0.512  -0.506
 -0.501  -0.493  -0.491  -0.485  -0.482  -0.476  -0.474  -0.466
 -0.463  -0.459  -0.450  -0.445  -0.440  -0.430  -0.429  -0.427
 -0.422  -0.415  -0.409  -0.407  -0.403  -0.399  -0.392  -0.390
 -0.384  -0.380  -0.376  -0.374  -0.370  -0.363  -0.362  -0.359
 -0.353  -0.340  -0.325  -0.320  -0.303  -0.301  -0.292  -0.291
 -0.282  -0.279  -0.273  -0.269  -0.254  -0.247

          Ground-State Mulliken Net Atomic Charges

     Atom                 Charge (a.u.)
  ----------------------------------------
      1 C                     0.273187
      2 C                     0.044953
      3 C                    -0.410095
      4 C                    -0.890120
      5 O                     0.129843
      6 O                    -0.146059
      7 O                     0.208345
      8 O                    -0.098581
      9 C                    -0.046778
     10 C                    -0.345821
     11 C                    -0.177512
     12 C                    -0.193542
     13 C                    -0.129755
     14 C                     0.158321
     15 H                     0.167422
     16 H                     0.251552
     17 H                     0.166806
     18 H                     0.195869
     19 H                     0.179423
     20 H                     0.033846
     21 H                     0.192891
     22 H                     0.182198
     23 C                    -0.484634
     24 H                     0.175866
     25 H                     0.163798
     26 H                     0.151151
     27 H                     0.202477
     28 C                     0.279801
     29 C                     0.404446
     30 C                    -0.878172
     31 C                    -0.677846
     32 O                     0.194812
     33 O                    -0.108608
     34 O                     0.149549
     35 O                    -0.092243
     36 C                    -0.287189
     37 C                    -0.065810
     38 C                    -0.393082
     39 C                    -0.376858
     40 C                    -0.273302
     41 C                     0.483501
     42 H                     0.244225
     43 H                     0.172608
     44 H                     0.166535
     45 H                     0.198759
     46 H                     0.043748
     47 H                     0.179206
     48 H                     0.192807
     49 H                     0.185240
     50 C                    -0.463739
     51 H                     0.234642
     52 H                     0.216500
     53 H                     0.124681
     54 H                     0.190738
  ----------------------------------------
  Sum of atomic charges =     0.000000

                    Cartesian Multipole Moments
 -----------------------------------------------------------------
    Charge (ESU x 10^10)
                 0.0000
    Dipole Moment (Debye)
         X       0.4442      Y       0.2756      Z       0.6853
       Tot       0.8619
    Quadrupole Moments (Debye-Ang)
        XX    -146.4129     XY       3.3277     YY    -177.5974
        XZ      -9.7604     YZ     -19.0451     ZZ    -187.6029

 Total job time:  1992.02s(wall), 3967.61s(cpu)
        *  Thank you very much for using Q-Chem.  Have a nice day.  *
