 Q-Chem 5.0, Q-Chem, Inc., Pleasanton, CA (2017)
 Q-Chem 5.0.1 for Intel X86 EM64T Linux

User input:
--------------------------------------------------------------
$molecule
0  1
C        -0.52035000        -0.98887000        +3.41970000
C        -0.53300000        +0.41361000        +3.54152000
C        +0.77378000        -1.74293000        +3.39285000
C        +0.75252000        +1.17919000        +3.55257000
O        +1.56054000        -1.39693000        +4.43472000
O        +1.07111000        -2.58922000        +2.58571000
O        +1.56193000        +0.77784000        +2.54782000
O        +1.03444000        +2.06580000        +4.32137000
C        +2.85858000        +1.39604000        +2.49301000
C        +2.84725000        -2.03725000        +4.49134000
C        -1.71911000        -1.72133000        +3.36107000
C        -2.91543000        -1.00573000        +3.43374000
C        -2.92904000        +0.37738000        +3.55593000
C        -1.74752000        +1.11887000        +3.61469000
H        +2.76244000        +2.47472000        +2.36195000
H        +2.73187000        -3.11836000        +4.58214000
H        -3.87945000        +0.89808000        +3.60369000
H        +3.41407000        +1.19576000        +3.41115000
H        +3.35593000        +0.94752000        +1.63592000
H        +3.33504000        -1.62798000        +5.37309000
H        +3.42298000        -1.81451000        +3.59118000
H        -3.85483000        -1.54728000        +3.39671000
C        -1.81551000        +2.62229000        +3.73498000
C        -1.75694000        -3.22743000        +3.24069000
H        -1.37343000        -3.55740000        +2.27336000
H        -2.78163000        -3.58692000        +3.35032000
H        -1.14549000        -3.71294000        +4.00585000
H        -1.21805000        +3.11835000        +2.96594000
H        -1.43094000        +2.95910000        +4.69943000
H        -2.84802000        +2.96106000        +3.63297000
@C        -0.54444000        -0.68370000        -0.06689000
@C        -0.55709000        +0.71878000        +0.05493000
@C        +0.74969000        -1.43776000        -0.09374000
@C        +0.72843000        +1.48436000        +0.06598000
@O        +1.53645000        -1.09176000        +0.94813000
@O        +1.04702000        -2.28405000        -0.90088000
@O        +1.53784000        +1.08301000        -0.93877000
@O        +1.01035000        +2.37097000        +0.83478000
@C        +2.83449000        +1.70121000        -0.99358000
@C        +2.82316000        -1.73208000        +1.00475000
@C        -1.74320000        -1.41616000        -0.12552000
@C        -2.93952000        -0.70056000        -0.05285000
@C        -2.95313000        +0.68255000        +0.06934000
@C        -1.77161000        +1.42404000        +0.12810000
@H        +2.73835000        +2.77989000        -1.12464000
@H        +2.70778000        -2.81319000        +1.09555000
@H        -3.90354000        +1.20325000        +0.11710000
@H        +3.38998000        +1.50093000        -0.07544000
@H        +3.33184000        +1.25269000        -1.85067000
@H        +3.31095000        -1.32281000        +1.88650000
@H        +3.39889000        -1.50934000        +0.10459000
@H        -3.87892000        -1.24211000        -0.08988000
@C        -1.83960000        +2.92746000        +0.24839000
@C        -1.78103000        -2.92226000        -0.24590000
@H        -1.39752000        -3.25223000        -1.21323000
@H        -2.80572000        -3.28175000        -0.13627000
@H        -1.16958000        -3.40777000        +0.51926000
@H        -1.24214000        +3.42352000        -0.52065000
@H        -1.45503000        +3.26427000        +1.21284000
@H        -2.87211000        +3.26623000        +0.14638000
$end

$rem
JOBTYPE                   SP
METHOD                    B3LYP
DFT_D                     d3_op
BASIS                     6-311++G(d,p)
SYMMETRY                  False
THRESH                    12
SCF_CONVERGENCE           8
MAX_SUB_FILE_NUM          128
MEM_STATIC                400
MEM_TOTAL                 4000
$end
--------------------------------------------------------------

             Standard Nuclear Orientation (Angstroms)
    I     Atom           X                Y                Z
 ----------------------------------------------------------------
    1      C      -0.5203500000    -0.9888700000     3.4197000000
    2      C      -0.5330000000     0.4136100000     3.5415200000
    3      C       0.7737800000    -1.7429300000     3.3928500000
    4      C       0.7525200000     1.1791900000     3.5525700000
    5      O       1.5605400000    -1.3969300000     4.4347200000
    6      O       1.0711100000    -2.5892200000     2.5857100000
    7      O       1.5619300000     0.7778400000     2.5478200000
    8      O       1.0344400000     2.0658000000     4.3213700000
    9      C       2.8585800000     1.3960400000     2.4930100000
   10      C       2.8472500000    -2.0372500000     4.4913400000
   11      C      -1.7191100000    -1.7213300000     3.3610700000
   12      C      -2.9154300000    -1.0057300000     3.4337400000
   13      C      -2.9290400000     0.3773800000     3.5559300000
   14      C      -1.7475200000     1.1188700000     3.6146900000
   15      H       2.7624400000     2.4747200000     2.3619500000
   16      H       2.7318700000    -3.1183600000     4.5821400000
   17      H      -3.8794500000     0.8980800000     3.6036900000
   18      H       3.4140700000     1.1957600000     3.4111500000
   19      H       3.3559300000     0.9475200000     1.6359200000
   20      H       3.3350400000    -1.6279800000     5.3730900000
   21      H       3.4229800000    -1.8145100000     3.5911800000
   22      H      -3.8548300000    -1.5472800000     3.3967100000
   23      C      -1.8155100000     2.6222900000     3.7349800000
   24      C      -1.7569400000    -3.2274300000     3.2406900000
   25      H      -1.3734300000    -3.5574000000     2.2733600000
   26      H      -2.7816300000    -3.5869200000     3.3503200000
   27      H      -1.1454900000    -3.7129400000     4.0058500000
   28      H      -1.2180500000     3.1183500000     2.9659400000
   29      H      -1.4309400000     2.9591000000     4.6994300000
   30      H      -2.8480200000     2.9610600000     3.6329700000
   31      GH     -0.5444400000    -0.6837000000    -0.0668900000
   32      GH     -0.5570900000     0.7187800000     0.0549300000
   33      GH      0.7496900000    -1.4377600000    -0.0937400000
   34      GH      0.7284300000     1.4843600000     0.0659800000
   35      GH      1.5364500000    -1.0917600000     0.9481300000
   36      GH      1.0470200000    -2.2840500000    -0.9008800000
   37      GH      1.5378400000     1.0830100000    -0.9387700000
   38      GH      1.0103500000     2.3709700000     0.8347800000
   39      GH      2.8344900000     1.7012100000    -0.9935800000
   40      GH      2.8231600000    -1.7320800000     1.0047500000
   41      GH     -1.7432000000    -1.4161600000    -0.1255200000
   42      GH     -2.9395200000    -0.7005600000    -0.0528500000
   43      GH     -2.9531300000     0.6825500000     0.0693400000
   44      GH     -1.7716100000     1.4240400000     0.1281000000
   45      GH      2.7383500000     2.7798900000    -1.1246400000
   46      GH      2.7077800000    -2.8131900000     1.0955500000
   47      GH     -3.9035400000     1.2032500000     0.1171000000
   48      GH      3.3899800000     1.5009300000    -0.0754400000
   49      GH      3.3318400000     1.2526900000    -1.8506700000
   50      GH      3.3109500000    -1.3228100000     1.8865000000
   51      GH      3.3988900000    -1.5093400000     0.1045900000
   52      GH     -3.8789200000    -1.2421100000    -0.0898800000
   53      GH     -1.8396000000     2.9274600000     0.2483900000
   54      GH     -1.7810300000    -2.9222600000    -0.2459000000
   55      GH     -1.3975200000    -3.2522300000    -1.2132300000
   56      GH     -2.8057200000    -3.2817500000    -0.1362700000
   57      GH     -1.1695800000    -3.4077700000     0.5192600000
   58      GH     -1.2421400000     3.4235200000    -0.5206500000
   59      GH     -1.4550300000     3.2642700000     1.2128400000
   60      GH     -2.8721100000     3.2662300000     0.1463800000
 ----------------------------------------------------------------

   14    -766.8791286901      5.92E-09 Convergence criterion met
 Total energy in the final basis set = -766.87912869

                    Orbital Energies (a.u.)
 --------------------------------------------------------------

 Alpha MOs
 -- Occupied --
-19.176 -19.176 -19.119 -19.119 -10.311 -10.311 -10.232 -10.232
-10.205 -10.205 -10.201 -10.201 -10.187 -10.186 -10.171 -10.170
 -1.121  -1.114  -1.031  -1.030  -0.885  -0.807  -0.795  -0.746
 -0.734  -0.724  -0.675  -0.649  -0.620  -0.577  -0.565  -0.537
 -0.517  -0.515  -0.491  -0.488  -0.480  -0.477  -0.469  -0.442
 -0.434  -0.429  -0.420  -0.416  -0.411  -0.405  -0.396  -0.387
 -0.380  -0.373  -0.362  -0.359  -0.357  -0.321  -0.313  -0.293
 -0.292  -0.266  -0.253

          Ground-State Mulliken Net Atomic Charges

     Atom                 Charge (a.u.)
  ----------------------------------------
      1 C                     0.006280
      2 C                     0.078722
      3 C                    -0.887885
      4 C                    -0.580693
      5 O                     0.212558
      6 O                    -0.074605
      7 O                     0.134688
      8 O                    -0.078801
      9 C                    -0.342895
     10 C                    -0.076414
     11 C                     0.195881
     12 C                    -0.220858
     13 C                    -0.189369
     14 C                     0.401277
     15 H                     0.205841
     16 H                     0.165294
     17 H                     0.171390
     18 H                     0.209913
     19 H                     0.124556
     20 H                     0.175656
     21 H                     0.206940
     22 H                     0.166743
     23 C                    -0.591487
     24 C                    -0.605399
     25 H                     0.220633
     26 H                     0.149265
     27 H                     0.173376
     28 H                     0.240958
     29 H                     0.218251
     30 H                     0.121445
     31 GH                   -0.138590
     32 GH                    0.035016
     33 GH                   -0.046829
     34 GH                   -0.004470
     35 GH                    0.087549
     36 GH                   -0.001335
     37 GH                   -0.011446
     38 GH                   -0.030619
     39 GH                   -0.019731
     40 GH                    0.031754
     41 GH                    0.045236
     42 GH                    0.037635
     43 GH                    0.036555
     44 GH                   -0.089140
     45 GH                    0.002164
     46 GH                    0.002641
     47 GH                    0.007948
     48 GH                    0.003646
     49 GH                   -0.002000
     50 GH                   -0.042670
     51 GH                    0.002127
     52 GH                    0.005768
     53 GH                    0.073624
     54 GH                    0.098054
     55 GH                   -0.001411
     56 GH                    0.002564
     57 GH                   -0.000680
     58 GH                    0.000421
     59 GH                   -0.014443
     60 GH                   -0.000597
  ----------------------------------------
  Sum of atomic charges =     0.000000

                    Cartesian Multipole Moments
 -----------------------------------------------------------------
    Charge (ESU x 10^10)
                 0.0000
    Dipole Moment (Debye)
         X       0.0626      Y      -0.1069      Z       0.0382
       Tot       0.1296
    Quadrupole Moments (Debye-Ang)
        XX     -76.3395     XY      -0.1177     YY     -95.5055
        XZ       0.3364     YZ      -9.2919     ZZ     -99.0838

 Total job time:  2803.42s(wall), 5583.21s(cpu)
        *  Thank you very much for using Q-Chem.  Have a nice day.  *
