 Q-Chem 5.0, Q-Chem, Inc., Pleasanton, CA (2017)
 Q-Chem 5.0.1 for Intel X86 EM64T Linux

User input:
--------------------------------------------------------------
$molecule
0  1
--
0  1
C        -0.54444000        -0.68370000        -0.06689000
C        -0.55709000        +0.71878000        +0.05493000
C        +0.74969000        -1.43776000        -0.09374000
C        +0.72843000        +1.48436000        +0.06598000
O        +1.53645000        -1.09176000        +0.94813000
O        +1.04702000        -2.28405000        -0.90088000
O        +1.53784000        +1.08301000        -0.93877000
O        +1.01035000        +2.37097000        +0.83478000
C        +2.83449000        +1.70121000        -0.99358000
C        +2.82316000        -1.73208000        +1.00475000
C        -1.74320000        -1.41616000        -0.12552000
C        -2.93952000        -0.70056000        -0.05285000
C        -2.95313000        +0.68255000        +0.06934000
C        -1.77161000        +1.42404000        +0.12810000
H        +2.73835000        +2.77989000        -1.12464000
H        +2.70778000        -2.81319000        +1.09555000
H        -3.90354000        +1.20325000        +0.11710000
H        +3.38998000        +1.50093000        -0.07544000
H        +3.33184000        +1.25269000        -1.85067000
H        +3.31095000        -1.32281000        +1.88650000
H        +3.39889000        -1.50934000        +0.10459000
H        -3.87892000        -1.24211000        -0.08988000
C        -1.83960000        +2.92746000        +0.24839000
C        -1.78103000        -2.92226000        -0.24590000
H        -1.39752000        -3.25223000        -1.21323000
H        -2.80572000        -3.28175000        -0.13627000
H        -1.16958000        -3.40777000        +0.51926000
H        -1.24214000        +3.42352000        -0.52065000
H        -1.45503000        +3.26427000        +1.21284000
H        -2.87211000        +3.26623000        +0.14638000
--
0  1
C        -0.52035000        -0.98887000        +3.41970000
C        -0.53300000        +0.41361000        +3.54152000
C        +0.77378000        -1.74293000        +3.39285000
C        +0.75252000        +1.17919000        +3.55257000
O        +1.56054000        -1.39693000        +4.43472000
O        +1.07111000        -2.58922000        +2.58571000
O        +1.56193000        +0.77784000        +2.54782000
O        +1.03444000        +2.06580000        +4.32137000
C        +2.85858000        +1.39604000        +2.49301000
C        +2.84725000        -2.03725000        +4.49134000
C        -1.71911000        -1.72133000        +3.36107000
C        -2.91543000        -1.00573000        +3.43374000
C        -2.92904000        +0.37738000        +3.55593000
C        -1.74752000        +1.11887000        +3.61469000
H        +2.76244000        +2.47472000        +2.36195000
H        +2.73187000        -3.11836000        +4.58214000
H        -3.87945000        +0.89808000        +3.60369000
H        +3.41407000        +1.19576000        +3.41115000
H        +3.35593000        +0.94752000        +1.63592000
H        +3.33504000        -1.62798000        +5.37309000
H        +3.42298000        -1.81451000        +3.59118000
H        -3.85483000        -1.54728000        +3.39671000
C        -1.81551000        +2.62229000        +3.73498000
C        -1.75694000        -3.22743000        +3.24069000
H        -1.37343000        -3.55740000        +2.27336000
H        -2.78163000        -3.58692000        +3.35032000
H        -1.14549000        -3.71294000        +4.00585000
H        -1.21805000        +3.11835000        +2.96594000
H        -1.43094000        +2.95910000        +4.69943000
H        -2.84802000        +2.96106000        +3.63297000
$end

$rem
JOBTYPE                   SP
METHOD                    B3LYP
DFT_D                     d3_op
BASIS                     6-311++G(d,p)
SYMMETRY                  False
THRESH                    12
SCF_CONVERGENCE           8
MAX_SUB_FILE_NUM          128
MEM_STATIC                400
MEM_TOTAL                 4000
$end
--------------------------------------------------------------

             Standard Nuclear Orientation (Angstroms)
    I     Atom           X                Y                Z
 ----------------------------------------------------------------
    1      C       0.6561862176    -0.9695530932    -1.5762976644
    2      C       0.7933862754    -1.7600418710    -0.4194684110
    3      C      -0.6970884126    -0.6838256022    -2.1517170236
    4      C      -0.4077921974    -2.4034380721     0.1985996388
    5      O      -1.5374406455    -0.2089668322    -1.2069854915
    6      O      -1.0008632040    -0.8056333823    -3.3131689655
    7      O      -1.1582918140    -3.0243193979    -0.7378861528
    8      O      -0.6708220191    -2.4123576778     1.3764559000
    9      C      -2.3788171595    -3.6264920727    -0.2750875473
   10      C      -2.8798877594     0.0697464874    -1.6417184932
   11      C       1.7788614081    -0.3948132376    -2.1977758871
   12      C       3.0273326917    -0.6340652877    -1.6210404695
   13      C       3.1635774745    -1.4119186167    -0.4788975458
   14      C       2.0588525206    -1.9899979876     0.1493195228
   15      H      -2.1673708367    -4.3949532965     0.4697130743
   16      H      -2.8782758337     0.8367060378    -2.4176865764
   17      H       4.1516945239    -1.5794391672    -0.0638671403
   18      H      -3.0316076687    -2.8710640517     0.1663366638
   19      H      -2.8378776338    -4.0637957291    -1.1589198130
   20      H      -3.4033349682     0.4214761735    -0.7555958566
   21      H      -3.3478307908    -0.8344727103    -2.0351433626
   22      H       3.9094426376    -0.1973343990    -2.0774045320
   23      C       2.2608074545    -2.8381137625     1.3819094211
   24      C       1.6815459399     0.4688036099    -3.4342852092
   25      H       1.3567344780    -0.1126724549    -4.2991959272
   26      H       2.6525781864     0.9139127940    -3.6583735478
   27      H       0.9594968945     1.2799915253    -3.3090644836
   28      H       1.7859349741    -3.8174746000     1.2828893519
   29      H       1.8252064564    -2.3638898703     2.2633073642
   30      H       3.3262150477    -2.9945190032     1.5599322118
   31      C       0.2883311206     1.8851927392     0.4149651875
   32      C       0.4255311783     1.0947039613     1.5717944409
   33      C      -1.0649435097     2.1709202302    -0.1604541717
   34      C      -0.7756472945     0.4513077603     2.1898624907
   35      O      -1.9052957425     2.6457790002     0.7842773604
   36      O      -1.3687183011     2.0491124500    -1.3219061136
   37      O      -1.5261469111    -0.1695735655     1.2533766991
   38      O      -1.0386771161     0.4423881545     3.3677187519
   39      C      -2.7466722565    -0.7717462404     1.7161753046
   40      C      -3.2477428564     2.9244923198     0.3495443587
   41      C       1.4110063111     2.4599325947    -0.2065130352
   42      C       2.6594775946     2.2206805447     0.3702223824
   43      C       2.7957223774     1.4428272157     1.5123653061
   44      C       1.6909974236     0.8647478448     2.1405823747
   45      H      -2.5352259338    -1.5402074641     2.4609759262
   46      H      -3.2461309308     3.6914518701    -0.4264237245
   47      H       3.7838394268     1.2753066652     1.9273957116
   48      H      -3.3994627658    -0.0163182194     2.1575995157
   49      H      -3.2057327309    -1.2090498967     0.8323430389
   50      H      -3.7711900652     3.2762220059     1.2356669953
   51      H      -3.7156858879     2.0202731221    -0.0438805107
   52      H       3.5415875406     2.6574114333    -0.0861416801
   53      C       1.8929523574     0.0166320698     3.3731722730
   54      C       1.3136908428     3.3235494422    -1.4430223573
   55      H       0.9888793810     2.7420733774    -2.3079330753
   56      H       2.2847230894     3.7686586264    -1.6671106959
   57      H       0.5916417974     4.1347373577    -1.3178016317
   58      H       1.4180798770    -0.9627287677     3.2741522038
   59      H       1.4573513593     0.4908559621     4.2545702161
   60      H       2.9583599507    -0.1397731708     3.5511950637
 ----------------------------------------------------------------

   15   -1533.7223075774      7.50E-09 Convergence criterion met
 Total energy in the final basis set = -1533.72230758

                    Orbital Energies (a.u.)
 --------------------------------------------------------------

 Alpha MOs
 -- Occupied --
-19.176 -19.175 -19.158 -19.155 -19.116 -19.115 -19.108 -19.106
-10.309 -10.309 -10.300 -10.298 -10.234 -10.232 -10.221 -10.218
-10.201 -10.201 -10.200 -10.199 -10.198 -10.198 -10.196 -10.196
-10.183 -10.183 -10.182 -10.182 -10.170 -10.169 -10.165 -10.165
 -1.122  -1.118  -1.104  -1.102  -1.033  -1.032  -1.019  -1.014
 -0.883  -0.879  -0.806  -0.801  -0.794  -0.789  -0.745  -0.741
 -0.734  -0.727  -0.725  -0.717  -0.675  -0.669  -0.647  -0.644
 -0.619  -0.614  -0.576  -0.575  -0.565  -0.554  -0.537  -0.534
 -0.520  -0.519  -0.508  -0.507  -0.500  -0.492  -0.491  -0.486
 -0.479  -0.474  -0.468  -0.466  -0.461  -0.458  -0.448  -0.442
 -0.442  -0.432  -0.426  -0.423  -0.420  -0.410  -0.409  -0.409
 -0.408  -0.404  -0.400  -0.398  -0.390  -0.388  -0.387  -0.381
 -0.380  -0.374  -0.373  -0.366  -0.366  -0.359  -0.356  -0.354
 -0.339  -0.338  -0.324  -0.319  -0.302  -0.299  -0.290  -0.288
 -0.280  -0.276  -0.270  -0.262  -0.251  -0.236

          Ground-State Mulliken Net Atomic Charges

     Atom                 Charge (a.u.)
  ----------------------------------------
      1 C                    -0.004805
      2 C                     0.038298
      3 C                    -0.590861
      4 C                    -0.924872
      5 O                     0.174481
      6 O                    -0.089952
      7 O                     0.203774
      8 O                    -0.088582
      9 C                    -0.042959
     10 C                    -0.261765
     11 C                     0.403904
     12 C                    -0.164336
     13 C                    -0.202853
     14 C                     0.140005
     15 H                     0.167375
     16 H                     0.235900
     17 H                     0.167322
     18 H                     0.190797
     19 H                     0.178678
     20 H                     0.039567
     21 H                     0.197129
     22 H                     0.170629
     23 C                    -0.482398
     24 C                    -0.507520
     25 H                     0.215286
     26 H                     0.120680
     27 H                     0.240472
     28 H                     0.173185
     29 H                     0.167568
     30 H                     0.149792
     31 C                     0.025469
     32 C                     0.050303
     33 C                    -0.974979
     34 C                    -0.599634
     35 O                     0.216597
     36 O                    -0.088300
     37 O                     0.159979
     38 O                    -0.085501
     39 C                    -0.287060
     40 C                    -0.042453
     41 C                     0.131730
     42 C                    -0.209553
     43 C                    -0.166118
     44 C                     0.418686
     45 H                     0.243090
     46 H                     0.167082
     47 H                     0.171051
     48 H                     0.197735
     49 H                     0.046752
     50 H                     0.178993
     51 H                     0.193476
     52 H                     0.166662
     53 C                    -0.513378
     54 C                    -0.475480
     55 H                     0.165579
     56 H                     0.152565
     57 H                     0.172454
     58 H                     0.236737
     59 H                     0.214661
     60 H                     0.118917
  ----------------------------------------
  Sum of atomic charges =     0.000000

                    Cartesian Multipole Moments
 -----------------------------------------------------------------
    Charge (ESU x 10^10)
                 0.0000
    Dipole Moment (Debye)
         X       0.0630      Y       0.2825      Z      -0.0563
       Tot       0.2949
    Quadrupole Moments (Debye-Ang)
        XX    -157.4053     XY       2.6384     YY    -180.5187
        XZ       0.0126     YZ      -7.7393     ZZ    -212.4970

 Total job time:  2775.76s(wall), 5528.50s(cpu)
        *  Thank you very much for using Q-Chem.  Have a nice day.  *
