 Q-Chem 5.0, Q-Chem, Inc., Pleasanton, CA (2017)
 Q-Chem 5.0.1 for Intel X86 EM64T Linux

User input:
--------------------------------------------------------------
$molecule
0 1
C -0.64602290 -0.04680820 -0.71869524
C 0.91983313 0.11722101 -0.63723346
C -1.44274026 1.09423705 -0.12578924
C 1.34825694 1.32240628 0.18700440
O -2.15815310 1.72385026 -1.07828772
O -1.46404516 1.41032005 1.04042089
O 1.01383107 2.44978261 -0.48602318
O 1.89579785 1.33402853 1.25760192
C 1.21899795 3.68602842 0.22119119
C -2.99595842 2.79952559 -0.62508832
C -0.83764451 -1.42399213 0.02431289
C -0.51590937 -2.52267772 -1.01086074
C 1.01859329 -2.33618361 -1.16328024
C 1.32343132 -1.27070646 -0.06915908
O 0.29128485 -1.50061420 0.90352936
H -0.95521056 -0.14215822 -1.75653858
H 1.32729813 0.27073338 -1.63635726
H 2.27279796 3.81532278 0.47162187
H -2.40387857 3.55990074 -0.11370702
H -0.75482867 -3.49957820 -0.58558608
H -1.07677376 -2.40780015 -1.93836552
H 1.55979852 -3.25828094 -0.94752645
H 1.32156529 -2.00017210 -2.15569260
H 0.88896937 4.46741058 -0.46020602
H 0.62422916 3.69246215 1.13599433
H -3.76052698 2.42203766 0.05666164
H -3.45459125 3.20889607 -1.52253867
C -2.10810084 -1.59470479 0.82939706
C 2.68760821 -1.39872056 0.57850003
O 3.64461256 -0.97516215 -0.38251225
H 2.85719898 -2.44909645 0.85669892
H 2.73504764 -0.77828768 1.47546280
C 4.95626250 -0.90720616 0.14495709
H 5.60744490 -0.55373681 -0.65508850
H 5.30514174 -1.89418634 0.48047145
H 5.00678215 -0.20751054 0.98964232
O -3.20133296 -1.33317117 -0.03762779
H -2.10423718 -0.89567607 1.67254102
H -2.15694074 -2.62019337 1.22185027
C -4.45054487 -1.36064423 0.62719139
H -5.21425928 -1.12585240 -0.11466740
H -4.48728561 -0.61663405 1.43459478
H -4.65647657 -2.35273639 1.05246798
$end

$rem
sym_ignore      true
jobtype         opt
method          b3lyp
basis           6-311++G(d,p)
dft_d           d3_op
mem_total       62000
MEM_STATIC      4000
ao2mo_disk      350000
max_scf_cycles  200
geom_opt_max_cycles 1000
geom_opt_tol_displacement 1
GEOM_OPT_TOL_GRADIENT       1
GEOM_OPT_TOL_ENERGY         1
$end

--------------------------------------------------------------

   15   -1073.6337792978      3.68E-09 Convergence criterion met
 Total energy in the final basis set = -1073.63377930
   10   -1073.6337809283      6.95E-09 Convergence criterion met
 Total energy in the final basis set = -1073.63378093
   10   -1073.6337743731      7.69E-09 Convergence criterion met
 Total energy in the final basis set = -1073.63377437
   10   -1073.6337734566      7.06E-09 Convergence criterion met
 Total energy in the final basis set = -1073.63377346
   10   -1073.6337735395      5.10E-09 Convergence criterion met
 Total energy in the final basis set = -1073.63377354
   10   -1073.6337765487      4.70E-09 Convergence criterion met
 Total energy in the final basis set = -1073.63377655
    9   -1073.6337760818      8.38E-09 Convergence criterion met
 Total energy in the final basis set = -1073.63377608
    9   -1073.6337761970      4.69E-09 Convergence criterion met
    5   -1073.6337757475      8.68E-09 Convergence criterion met
 Total energy in the final basis set = -1073.63377575
    6   -1073.6337756919      3.97E-09 Convergence criterion met
 Total energy in the final basis set = -1073.63377569
    5   -1073.6337757235      4.74E-09 Convergence criterion met
 Total energy in the final basis set = -1073.63377572
    5   -1073.6337757057      4.78E-09 Convergence criterion met
 Total energy in the final basis set = -1073.63377571
    4   -1073.6337757158      6.34E-09 Convergence criterion met
 Total energy in the final basis set = -1073.63377572
    4   -1073.6337757075      6.54E-09 Convergence criterion met
 Total energy in the final basis set = -1073.63377571
 Final energy is   -1073.63377570751
 **  OPTIMIZATION CONVERGED  **
 Total job time:  2123.88s(wall), 30245.95s(cpu)
        *  Thank you very much for using Q-Chem.  Have a nice day.  *

User input: 2 of 2

r0167.ten.osc.edu 10.25.155
Q-Chem Developer Version! Running on 10.25.155.*
                  Welcome to Q-Chem
     A Quantum Leap Into The Future Of Chemistry

 Q-Chem 5.0, Q-Chem, Inc., Pleasanton, CA (2017)

 Yihan Shao,  Zhengting Gan,  E. Epifanovsky,  A. T. B. Gilbert,  M. Wormit,
 J. Kussmann,  A. W. Lange,  A. Behn,  Jia Deng,  Xintian Feng,  D. Ghosh,
 M. Goldey,  P. R. Horn,  L. D. Jacobson,  I. Kaliman,  T. Kus,  A. Landau,
 Jie Liu,  E. I. Proynov,  R. M. Richard,  R. P. Steele,  E. J. Sundstrom,
 H. L. Woodcock III,  P. M. Zimmerman,  D. Zuev,  B. Albrecht,  E. Alguire,
 S. A. Baeppler,  Z. Benda,  Y. A. Bernard,  E. J. Berquist,  K. B. Bravaya,
 D. Casanova,  Chun-Min Chang,  Yunqing Chen,  A. Chien,  K. D. Closser,
 M. P. Coons,  S. Dasgupta,  M. Diedenhofen,  Hainam Do,  R. G. Edgar,
 Po-Tung Fang,  S. Fatehi,  Qingguo Feng,  Qinghui Ge,  A. Ghysels,
 J. Gomes,  J. Gonthier,  A. Gunina,  M. W. D. Hanson-Heine,
 P. H. P. Harbach,  A. W. Hauser,  J. E. Herr,  E. G. Hohenstein,
 Z. C. Holden,  Kerwin Hui,  T.-C. Jagau,  Hyunjun Ji,  B. Kaduk,
 K. Khistyaev,  Jaehoon Kim,  P. Klunzinger,  K. Koh,  D. Kosenkov,
 T. Kowalczyk,  C. M. Krauter,  A. Kunitsa,  Ka Un Lao,  A. Laurent,
 K. V. Lawler,  Joonho Lee,  D. Lefrancois,  S. Lehtola,  D. S. Levine,
 Yi-Pei Li,  You-Sheng Lin,  Fenglai Liu,  E. Livshits,  A. Luenser,
 P. Manohar,  E. Mansoor,  S. F. Manzer,  Shan-Ping Mao,  Yuezhi Mao,
 N. Mardirossian,  A. V. Marenich,  L. A. Martinez-Martinez,  S. A. Maurer,
 N. J. Mayhall,  S. C. McKenzie,  J.-M. Mewes,  A. F. Morrison,  K. Nanda,
 T. S. Nguyen-Beck,  R. Olivares-Amaya,  J. A. Parkhill,  T. M. Perrine,
 F. Plasser,  S. Prager,  A. Prociuk,  D. R. Rehn,  F. Rob,  M. Schneider,
 N. Sergueev,  S. M. Sharada,  S. Sharma,  D. W. Small,  T. Stauch,
 T. Stein,  Yu-Chuan Su,  A. J. W. Thom,  T. Tsuchimochi,  L. Vogt,
 O. Vydrov,  M. A. Watson,  J. Wenzel,  M. de Wergifosse,  T. A. Wesolowski,
 A. White,  J. Witte,  A. Yamada,  Jun Yang,  K. Yao,  S. Yeganeh,
 S. R. Yost,  Zhi-Qiang You,  A. Zech,  Igor Ying Zhang,  Xing Zhang,
 Yan Zhao,  Ying Zhu,  B. R. Brooks,  G. K. L. Chan,  C. J. Cramer,
 M. S. Gordon,  W. J. Hehre,  A. Klamt,  M. W. Schmidt,  C. D. Sherrill,
 D. G. Truhlar,  A. Aspuru-Guzik,  R. Baer,  A. T. Bell,  N. A. Besley,
 Jeng-Da Chai,  A. Dreuw,  B. D. Dunietz,  T. R. Furlani,  Chao-Ping Hsu,
 Yousung Jung,  Jing Kong,  D. S. Lambrecht,  WanZhen Liang,  C. Ochsenfeld,
 V. A. Rassolov,  L. V. Slipchenko,  J. E. Subotnik,  T. Van Voorhis,
 J. M. Herbert,  A. I. Krylov,  P. M. W. Gill,  M. Head-Gordon

 Contributors to earlier versions of Q-Chem not listed above:
 R. D. Adamson,  B. Austin,  J. Baker,  G. J. O. Beran,  K. Brandhorst,
 S. T. Brown,  E. F. C. Byrd,  A. K. Chakraborty,  C.-L. Cheng,
 Siu Hung Chien,  D. M. Chipman,  D. L. Crittenden,  H. Dachsel,
 R. A. DiStasio Jr.,  R. J. Doerksen,  A. D. Dutoi,  L. Fusti-Molnar,
 W. A. Goddard III,  A. Golubeva-Zadorozhnaya,  S. R. Gwaltney,  G. Hawkins,
 A. Heyden,  S. Hirata,  G. Kedziora,  F. J. Keil,  C. Kelley,  Jihan Kim,
 R. A. King,  R. Z. Khaliullin,  P. P. Korambath,  W. Kurlancheek,
 A. M. Lee,  M. S. Lee,  S. V. Levchenko,  Ching Yeh Lin,  D. Liotard,
 R. C. Lochan,  I. Lotan,  P. E. Maslen,  N. Nair,  D. P. O'Neill,
 D. Neuhauser,  E. Neuscamman,  C. M. Oana,  R. Olson,  B. Peters,
 R. Peverati,  P. A. Pieniazek,  Y. M. Rhee,  J. Ritchie,  M. A. Rohrdanz,
 E. Rosta,  N. J. Russ,  H. F. Schaefer III,  N. E. Schultz,  N. Shenvi,
 A. C. Simmonett,  A. Sodt,  D. Stuck,  K. S. Thanthiriwatte,  V. Vanovschi,
 Tao Wang,  A. Warshel,  C. F. Williams,  Q. Wu,  X. Xu,  W. Zhang

 Please cite Q-Chem as follows:
 Y. Shao et al., Mol. Phys. 113, 184-215 (2015)
 DOI: 10.1080/00268976.2014.952696

 Q-Chem 5.0.1 for Intel X86 EM64T Linux

 Parts of Q-Chem use Armadillo 5.200.1 (Boston Tea Smuggler).
 http://arma.sourceforge.net/

 Q-Chem begins on Tue Oct 24 10:56:49 2017

Host: r0167.ten.osc.edu
0

     Scratch files written to /tmp/pbstmp.1324399/00//
Processing $rem in /users/PAS0291/osu6415/.qchemrc.
molden_format             true
The previous job contains 0 fragments, simply inherited here

Checking the input file for inconsistencies... 	...done.

--------------------------------------------------------------
User input:
--------------------------------------------------------------

$molecule
read
$end

$rem
sym_ignore      true
scf_guess       read
jobtype         freq
method          b3lyp
basis           6-311++G(d,p)
dft_d           d3_op
mem_total       62000
MEM_STATIC      4000
ao2mo_disk      350000
max_scf_cycles  200
$end
--------------------------------------------------------------

             Standard Nuclear Orientation (Angstroms)
    I     Atom           X                Y                Z
 ----------------------------------------------------------------
    1      C      -0.6435712119    -0.0415116212    -0.7202300643
    2      C       0.9225298405     0.1182529323    -0.6383978934
    3      C      -1.4378983847     1.0974438308    -0.1201464299
    4      C       1.3561720301     1.3273591886     0.1775742222
    5      O      -2.1678678424     1.7221126883    -1.0646208217
    6      O      -1.4459009123     1.4153269270     1.0457975571
    7      O       1.0054988822     2.4513707483    -0.4926489268
    8      O       1.9247668158     1.3444023563     1.2371191414
    9      C       1.2187020105     3.6907515736     0.2065577940
   10      C      -3.0056049241     2.7941357758    -0.6027147798
   11      C      -0.8378956847    -1.4199576877     0.0207036247
   12      C      -0.5147808970    -2.5180608868    -1.0146654100
   13      C       1.0206971907    -2.3355599079    -1.1609771454
   14      C       1.3236819304    -1.2692429830    -0.0672674436
   15      O       0.2886970203    -1.4973364092     0.9027339216
   16      H      -0.9549143354    -0.1333854557    -1.7576926232
   17      H       1.3300414659     0.2668681899    -1.6384471231
   18      H       2.2756282499     3.8222494349     0.4421606041
   19      H      -2.4109823483     3.5589918809    -0.1010362427
   20      H      -0.7579217622    -3.4950126820    -0.5918918170
   21      H      -1.0718936934    -2.4002606112    -1.9440495813
   22      H       1.5584275468    -3.2586488295    -0.9407559804
   23      H       1.3292399219    -2.0023720422    -2.1525732433
   24      H       0.8784509411     4.4689040840    -0.4735044516
   25      H       0.6362962368     3.7004428291     1.1292787438
   26      H      -3.7589582212     2.4141491393     0.0900374662
   27      H      -3.4783826327     3.1988415934    -1.4949297647
   28      C      -2.1098644961    -1.5913198647     0.8233864155
   29      C       2.6857621149    -1.3991973365     0.5842386620
   30      O       3.6468523954    -0.9868246470    -0.3775525881
   31      H       2.8494370072    -2.4485797062     0.8696710821
   32      H       2.7342432187    -0.7727564504     1.4768377716
   33      C       4.9568258917    -0.9167217448     0.1537458950
   34      H       5.6121369953    -0.5756839307    -0.6483410889
   35      H       5.3010230631    -1.9006254086     0.5028719717
   36      H       5.0068214890    -0.2065941170     0.9896946558
   37      O      -3.2018272529    -1.3293713617    -0.0449297816
   38      H      -2.1073406233    -0.8932634857     1.6674240337
   39      H      -2.1589649940    -2.6171608662     1.2149093632
   40      C      -4.4525685485    -1.3651909452     0.6164198014
   41      H      -5.2153024460    -1.1295709084    -0.1261799316
   42      H      -4.4945044678    -0.6254772001     1.4275401108
   43      H      -4.6556646292    -2.3602440129     1.0361325347
 ----------------------------------------------------------------

    2   -1073.6337757111      5.60E-09 Convergence criterion met
 Total energy in the final basis set = -1073.63377571

                    Orbital Energies (a.u.)
 --------------------------------------------------------------

 Alpha MOs
 -- Occupied --
-19.171 -19.167 -19.135 -19.131 -19.128 -19.112 -19.112 -10.303
-10.302 -10.240 -10.237 -10.228 -10.223 -10.220 -10.218 -10.212
-10.211 -10.202 -10.200 -10.174 -10.174  -1.114  -1.108  -1.067
 -1.045  -1.038  -1.025  -1.023  -0.829  -0.802  -0.781  -0.747
 -0.738  -0.723  -0.696  -0.659  -0.651  -0.633  -0.601  -0.577
 -0.558  -0.555  -0.529  -0.513  -0.511  -0.501  -0.491  -0.486
 -0.483  -0.481  -0.479  -0.475  -0.471  -0.461  -0.455  -0.454
 -0.428  -0.423  -0.419  -0.418  -0.411  -0.399  -0.392  -0.389
 -0.368  -0.367  -0.360  -0.355  -0.353  -0.352  -0.342  -0.329
 -0.327  -0.322  -0.312  -0.310  -0.288  -0.277  -0.274  -0.269
 -0.261

          Ground-State Mulliken Net Atomic Charges

     Atom                 Charge (a.u.)
  ----------------------------------------
      1 C                     0.459448
      2 C                     0.307606
      3 C                    -1.132277
      4 C                    -0.561781
      5 O                     0.102075
      6 O                    -0.092912
      7 O                     0.002164
      8 O                    -0.158337
      9 C                    -0.203136
     10 C                    -0.183259
     11 C                    -0.794439
     12 C                    -0.219931
     13 C                    -0.430934
     14 C                    -0.761108
     15 O                     0.102920
     16 H                     0.313277
     17 H                     0.304936
     18 H                     0.176737
     19 H                     0.159067
     20 H                     0.170815
     21 H                     0.171023
     22 H                     0.171704
     23 H                     0.170773
     24 H                     0.146253
     25 H                     0.200339
     26 H                     0.166098
     27 H                     0.155271
     28 C                     0.041506
     29 C                     0.114211
     30 O                    -0.033884
     31 H                     0.147730
     32 H                     0.229933
     33 C                    -0.229851
     34 H                     0.141409
     35 H                     0.132416
     36 H                     0.141386
     37 O                    -0.022034
     38 H                     0.247648
     39 H                     0.162930
     40 C                    -0.237457
     41 H                     0.145697
     42 H                     0.139666
     43 H                     0.136304
  ----------------------------------------
  Sum of atomic charges =     0.000000

                    Cartesian Multipole Moments
 -----------------------------------------------------------------
    Charge (ESU x 10^10)
                 0.0000
    Dipole Moment (Debye)
         X      -1.3181      Y       0.2920      Z      -1.7356
       Tot       2.1989
    Quadrupole Moments (Debye-Ang)
        XX    -110.0544     XY      -2.5396     YY    -111.7590
        XZ      -1.8440     YZ      -3.2208     ZZ    -132.5870

 Frequency:        26.06                  34.92                  43.30
 Force Cnst:      0.0018                 0.0026                 0.0040
 Red. Mass:       4.4028                 3.6154                 3.6395
 IR Intens:        0.347                  0.576                  0.869
 Frequency:        50.06                  67.23                  75.20
 Force Cnst:      0.0060                 0.0122                 0.0124
 Red. Mass:       4.0618                 4.5856                 3.7142
 IR Intens:        0.591                  3.974                  0.468
 Frequency:        86.60                 100.62                 107.64
 Force Cnst:      0.0147                 0.0121                 0.0166
 Red. Mass:       3.3283                 2.0291                 2.4316
 IR Intens:        1.303                  3.150                  8.736
 Frequency:       113.24                 138.57                 147.67
 Force Cnst:      0.0105                 0.0382                 0.0305
 Red. Mass:       1.3865                 3.3741                 2.3753
 IR Intens:        0.477                  2.890                  0.928
 Frequency:       153.42                 159.82                 186.81
 Force Cnst:      0.0472                 0.0200                 0.0550
 Red. Mass:       3.4014                 1.3313                 2.6752
 IR Intens:        1.913                  0.136                  0.901
 Frequency:       208.11                 210.31                 216.00
 Force Cnst:      0.0352                 0.0471                 0.0770
 Red. Mass:       1.3813                 1.8067                 2.8015
 IR Intens:        3.279                  1.884                  0.621
 Frequency:       236.54                 259.68                 273.90
 Force Cnst:      0.1184                 0.1465                 0.2389
 Red. Mass:       3.5931                 3.6885                 5.4037
 IR Intens:        4.799                  2.314                  0.813
 Frequency:       289.05                 304.97                 323.64
 Force Cnst:      0.1837                 0.1782                 0.2403
 Red. Mass:       3.7306                 3.2514                 3.8946
 IR Intens:        6.745                  3.843                 11.499
 Frequency:       337.86                 348.13                 362.74
 Force Cnst:      0.2036                 0.2537                 0.3088
 Red. Mass:       3.0268                 3.5535                 3.9838
 IR Intens:        2.127                 10.322                  5.986
 Frequency:       370.63                 393.15                 454.26
 Force Cnst:      0.2713                 0.3273                 0.5099
 Red. Mass:       3.3521                 3.5942                 4.1942
 IR Intens:        4.473                  7.019                 10.346
 Frequency:       503.07                 580.16                 632.60
 Force Cnst:      0.6868                 0.6580                 1.0397
 Red. Mass:       4.6061                 3.3179                 4.4095
 IR Intens:        5.985                 17.359                  5.982
 Frequency:       662.80                 696.29                 724.33
 Force Cnst:      1.2623                 1.6409                 1.3230
 Red. Mass:       4.8771                 5.7445                 4.2799
 IR Intens:        1.753                  1.503                  9.058
 Frequency:       726.64                 768.00                 806.97
 Force Cnst:      1.8492                 1.2746                 0.7913
 Red. Mass:       5.9442                 3.6676                 2.0624
 IR Intens:        2.089                  2.442                  0.591
 Frequency:       835.43                 850.03                 857.45
 Force Cnst:      1.9182                 1.3483                 1.9763
 Red. Mass:       4.6647                 3.1672                 4.5624
 IR Intens:       15.959                  3.280                  8.256
 Frequency:       877.07                 905.15                 917.45
 Force Cnst:      2.3648                 1.2338                 1.1167
 Red. Mass:       5.2177                 2.5560                 2.2517
 IR Intens:        6.694                  8.339                 15.366
 Frequency:       954.24                 967.24                 967.92
 Force Cnst:      2.3784                 1.5990                 3.0688
 Red. Mass:       4.4332                 2.9008                 5.5596
 IR Intens:       68.048                 11.734                  4.105
 Frequency:       970.45                 982.80                 985.97
 Force Cnst:      1.3661                 2.4481                 2.1580
 Red. Mass:       2.4619                 4.3018                 3.7677
 IR Intens:        7.732                 10.286                  8.893
 Frequency:      1034.57                1057.80                1067.95
 Force Cnst:      2.0494                 1.9515                 2.4031
 Red. Mass:       3.2498                 2.9601                 3.5762
 IR Intens:       14.746                 32.391                 52.022
 Frequency:      1092.48                1108.23                1135.43
 Force Cnst:      2.6064                 1.2074                 4.0625
 Red. Mass:       3.7065                 1.6686                 5.3484
 IR Intens:       17.269                  5.559                355.143
 Frequency:      1139.62                1146.63                1167.87
 Force Cnst:      4.0020                 1.4509                 1.1718
 Red. Mass:       5.2301                 1.8730                 1.4582
 IR Intens:       29.406                  6.960                 17.226
 Frequency:      1169.49                1172.33                1176.36
 Force Cnst:      1.0706                 1.0886                 1.3561
 Red. Mass:       1.3286                 1.3444                 1.6633
 IR Intens:       13.691                  7.846                 49.250
 Frequency:      1182.97                1197.23                1200.38
 Force Cnst:      1.3615                 1.5580                 1.4757
 Red. Mass:       1.6513                 1.8448                 1.7382
 IR Intens:       35.891                184.095                 53.218
 Frequency:      1210.52                1211.76                1213.86
 Force Cnst:      1.2734                 1.3720                 1.4226
 Red. Mass:       1.4749                 1.5859                 1.6387
 IR Intens:        9.479                  3.080                 10.810
 Frequency:      1217.94                1222.82                1226.41
 Force Cnst:      1.5210                 1.7629                 1.4260
 Red. Mass:       1.7403                 2.0010                 1.6091
 IR Intens:       85.169                322.283                  9.813
 Frequency:      1246.38                1261.24                1265.69
 Force Cnst:      1.3622                 1.5660                 1.1493
 Red. Mass:       1.4883                 1.6708                 1.2177
 IR Intens:        3.900                 32.741                  3.810
 Frequency:      1293.00                1304.05                1330.66
 Force Cnst:      1.4376                 1.4591                 1.7044
 Red. Mass:       1.4595                 1.4563                 1.6338
 IR Intens:       11.783                 14.601                  2.354
 Frequency:      1344.41                1378.44                1408.68
 Force Cnst:      2.2794                 1.7817                 1.7922
 Red. Mass:       2.1405                 1.5915                 1.5329
 IR Intens:        4.795                110.942                 59.751
 Frequency:      1424.70                1436.86                1466.11
 Force Cnst:      1.8427                 2.0527                 1.5154
 Red. Mass:       1.5408                 1.6875                 1.1966
 IR Intens:        8.572                  3.439                 13.414
 Frequency:      1469.19                1472.47                1475.61
 Force Cnst:      1.5589                 1.4901                 1.4966
 Red. Mass:       1.2258                 1.1665                 1.1666
 IR Intens:       24.829                  2.750                  1.871
 Frequency:      1481.70                1482.14                1484.58
 Force Cnst:      1.3984                 1.3643                 1.3582
 Red. Mass:       1.0810                 1.0541                 1.0459
 IR Intens:        0.438                 10.493                  7.492
 Frequency:      1485.42                1486.92                1496.17
 Force Cnst:      1.3571                 1.3717                 1.3794
 Red. Mass:       1.0439                 1.0530                 1.0459
 IR Intens:        9.249                  7.935                  0.658
 Frequency:      1497.05                1501.49                1505.15
 Force Cnst:      1.3819                 1.4142                 1.4437
 Red. Mass:       1.0465                 1.0647                 1.0816
 IR Intens:       15.873                 11.621                  8.751
 Frequency:      1506.70                1520.57                1530.99
 Force Cnst:      1.4467                 1.4651                 1.4907
 Red. Mass:       1.0816                 1.0755                 1.0795
 IR Intens:       11.298                 13.410                 13.147
 Frequency:      1778.47                1808.22                2973.52
 Force Cnst:     19.5033                21.6680                 5.4254
 Red. Mass:      10.4656                11.2477                 1.0415
 IR Intens:       94.365                284.821                 67.142
 Frequency:      2975.13                2983.81                2992.48
 Force Cnst:      5.4087                 5.5864                 5.6130
 Red. Mass:       1.0371                 1.0650                 1.0639
 IR Intens:       58.685                 82.170                 66.463
 Frequency:      3022.48                3024.36                3046.37
 Force Cnst:      5.9441                 5.9439                 5.6319
 Red. Mass:       1.1044                 1.1029                 1.0300
 IR Intens:       51.073                 48.461                 30.124
 Frequency:      3048.28                3055.97                3061.45
 Force Cnst:      5.6352                 6.0358                 5.8664
 Red. Mass:       1.0293                 1.0970                 1.0623
 IR Intens:       39.296                 11.214                 28.803
 Frequency:      3071.72                3089.41                3099.78
 Force Cnst:      5.9052                 6.1438                 6.1770
 Red. Mass:       1.0622                 1.0925                 1.0911
 IR Intens:       31.380                  6.834                  3.150
 Frequency:      3107.07                3112.79                3114.63
 Force Cnst:      6.2472                 6.2636                 6.2701
 Red. Mass:       1.0983                 1.0972                 1.0970
 IR Intens:        4.442                 28.203                 23.090
 Frequency:      3117.15                3120.16                3123.10
 Force Cnst:      6.3345                 6.3162                 6.3633
 Red. Mass:       1.1065                 1.1012                 1.1073
 IR Intens:       24.041                 19.709                 15.481
 Frequency:      3131.66                3153.24                3154.80
 Force Cnst:      6.2967                 6.4815                 6.4839
 Red. Mass:       1.0897                 1.1064                 1.1057
 IR Intens:       16.127                 13.662                 15.095

 STANDARD THERMODYNAMIC QUANTITIES AT   298.15 K  AND     1.00 ATM

   This Molecule has  0 Imaginary Frequencies
   Zero point vibrational energy:      224.911 kcal/mol

   Atom    1 Element C  Has Mass   12.00000
   Atom    2 Element C  Has Mass   12.00000
   Atom    3 Element C  Has Mass   12.00000
   Atom    4 Element C  Has Mass   12.00000
   Atom    5 Element O  Has Mass   15.99491
   Atom    6 Element O  Has Mass   15.99491
   Atom    7 Element O  Has Mass   15.99491
   Atom    8 Element O  Has Mass   15.99491
   Atom    9 Element C  Has Mass   12.00000
   Atom   10 Element C  Has Mass   12.00000
   Atom   11 Element C  Has Mass   12.00000
   Atom   12 Element C  Has Mass   12.00000
   Atom   13 Element C  Has Mass   12.00000
   Atom   14 Element C  Has Mass   12.00000
   Atom   15 Element O  Has Mass   15.99491
   Atom   16 Element H  Has Mass    1.00783
   Atom   17 Element H  Has Mass    1.00783
   Atom   18 Element H  Has Mass    1.00783
   Atom   19 Element H  Has Mass    1.00783
   Atom   20 Element H  Has Mass    1.00783
   Atom   21 Element H  Has Mass    1.00783
   Atom   22 Element H  Has Mass    1.00783
   Atom   23 Element H  Has Mass    1.00783
   Atom   24 Element H  Has Mass    1.00783
   Atom   25 Element H  Has Mass    1.00783
   Atom   26 Element H  Has Mass    1.00783
   Atom   27 Element H  Has Mass    1.00783
   Atom   28 Element C  Has Mass   12.00000
   Atom   29 Element C  Has Mass   12.00000
   Atom   30 Element O  Has Mass   15.99491
   Atom   31 Element H  Has Mass    1.00783
   Atom   32 Element H  Has Mass    1.00783
   Atom   33 Element C  Has Mass   12.00000
   Atom   34 Element H  Has Mass    1.00783
   Atom   35 Element H  Has Mass    1.00783
   Atom   36 Element H  Has Mass    1.00783
   Atom   37 Element O  Has Mass   15.99491
   Atom   38 Element H  Has Mass    1.00783
   Atom   39 Element H  Has Mass    1.00783
   Atom   40 Element C  Has Mass   12.00000
   Atom   41 Element H  Has Mass    1.00783
   Atom   42 Element H  Has Mass    1.00783
   Atom   43 Element H  Has Mass    1.00783
   Molecular Mass:   302.136630 amu
   Principal axes and moments of inertia in amu*Bohr^2:
                             1           2           3
    Eigenvalues --     4110.98073  6695.18902  9571.67053
          X               0.99547     0.09425    -0.01238
          Y              -0.09433     0.99552    -0.00589
          Z               0.01177     0.00703     0.99991
   Rotational Symmetry Number is   1
   The Molecule is an Asymmetric Top
   Translational Enthalpy:        0.889 kcal/mol
   Rotational Enthalpy:           0.889 kcal/mol
   Vibrational Enthalpy:        237.320 kcal/mol
   gas constant (RT):             0.592 kcal/mol
   Translational Entropy:        43.014  cal/mol.K
   Rotational Entropy:           33.932  cal/mol.K
   Vibrational Entropy:          84.418  cal/mol.K

   Total Enthalpy:              239.690 kcal/mol
   Total Entropy:               161.364  cal/mol.K

 Total job time:  21256.16s(wall), 90847.25s(cpu)
        *  Thank you very much for using Q-Chem.  Have a nice day.  *
