 Q-Chem 5.0, Q-Chem, Inc., Pleasanton, CA (2017)
 Q-Chem 5.0.1 for Intel X86 EM64T Linux

User input:
--------------------------------------------------------------
$molecule
0 1
C -0.70951056 -0.10899219 -0.68496667
C 0.83638900 0.21113072 -0.65377814
C -1.67482224 0.97610532 -0.23393834
C 1.34072833 1.47384339 0.04043119
O -1.98969910 1.75535191 -1.29518265
O -2.16124054 1.12484907 0.85848375
O 0.37032789 2.34371123 0.35244016
O 2.50995159 1.70311101 0.24226579
C 0.77410021 3.56413091 0.99773164
C -2.88151191 2.84749206 -1.02727800
C -0.76505007 -1.45721993 0.11843442
C -0.34824387 -2.57401018 -0.86342816
C 1.15902743 -2.26688416 -1.04113589
C 1.37631392 -1.11969576 -0.01424090
O 0.37851548 -1.37630420 0.98722784
H -0.98489720 -0.30133999 -1.72095687
H 1.21915555 0.30609208 -1.67209171
H 1.41159885 4.15112362 0.33489566
H -2.43156735 3.53823290 -0.31163639
H -0.50360622 -3.54619040 -0.39140729
H -0.92375532 -2.55126980 -1.78860192
H 1.78131969 -3.12209598 -0.77595655
H 1.43374321 -1.96457357 -2.05149590
H -0.15167865 4.09219220 1.21443625
H 1.31376996 3.34488700 1.91944878
H -3.82728346 2.48088661 -0.62536729
H -3.03745991 3.33961812 -1.98506981
C -2.00970624 -1.75363404 0.92846863
C 2.75424909 -1.13596288 0.61539478
O 3.69832449 -1.03836212 -0.43648373
H 2.87013802 -2.08810017 1.15441447
H 2.87620072 -0.31892580 1.33033159
C 4.98668715 -0.65244390 0.00571735
H 5.62770232 -0.61199024 -0.87547088
H 5.40363909 -1.38133059 0.71564600
H 4.95526268 0.33692548 0.47705367
O -3.10362662 -1.74443744 0.02230439
H -2.14123453 -0.99971974 1.70748995
H -1.90378929 -2.74241362 1.39768795
C -4.35904288 -1.78281236 0.67461617
H -5.12495155 -1.77342593 -0.10160170
H -4.49026317 -0.90912072 1.32599925
H -4.47080027 -2.69626937 1.27565646
$end

$rem
sym_ignore      true
jobtype         opt
method          b3lyp
basis           6-311++G(d,p)
dft_d           d3_op
mem_total       62000
MEM_STATIC      4000
ao2mo_disk      350000
max_scf_cycles  200
geom_opt_max_cycles 1000
geom_opt_tol_displacement 1
GEOM_OPT_TOL_GRADIENT       1
GEOM_OPT_TOL_ENERGY         1
$end

--------------------------------------------------------------

   15   -1073.6263092068      4.20E-09 Convergence criterion met
 Total energy in the final basis set = -1073.62630921
   11   -1073.6262836471      5.26E-09 Convergence criterion met
 Total energy in the final basis set = -1073.62628365
   11   -1073.6263127736      5.76E-09 Convergence criterion met
 Total energy in the final basis set = -1073.62631277
   11   -1073.6263078613      8.31E-09 Convergence criterion met
 Total energy in the final basis set = -1073.62630786
   11   -1073.6263421698      5.30E-09 Convergence criterion met
 Total energy in the final basis set = -1073.62634217
   12   -1073.6265051320      5.58E-09 Convergence criterion met
 Total energy in the final basis set = -1073.62650513
   13   -1073.6137139670      5.08E-09 Convergence criterion met
 Total energy in the final basis set = -1073.61371397
   13   -1073.6266627603      5.61E-09 Convergence criterion met
    7   -1073.6338765226      4.48E-09 Convergence criterion met
 Total energy in the final basis set = -1073.63387652
    5   -1073.6338765099      7.83E-09 Convergence criterion met
 Total energy in the final basis set = -1073.63387651
    5   -1073.6338765013      7.40E-09 Convergence criterion met
 Total energy in the final basis set = -1073.63387650
    4   -1073.6338764925      8.71E-09 Convergence criterion met
 Total energy in the final basis set = -1073.63387649
    4   -1073.6338764893      7.11E-09 Convergence criterion met
 Total energy in the final basis set = -1073.63387649
    4   -1073.6338764822      2.85E-09 Convergence criterion met
 Total energy in the final basis set = -1073.63387648
 Final energy is   -1073.63387648221
 **  OPTIMIZATION CONVERGED  **
 Total job time:  5185.17s(wall), 76068.34s(cpu)
        *  Thank you very much for using Q-Chem.  Have a nice day.  *

User input: 2 of 2

r0168.ten.osc.edu 10.25.155
Q-Chem Developer Version! Running on 10.25.155.*
                  Welcome to Q-Chem
     A Quantum Leap Into The Future Of Chemistry

 Q-Chem 5.0, Q-Chem, Inc., Pleasanton, CA (2017)

 Yihan Shao,  Zhengting Gan,  E. Epifanovsky,  A. T. B. Gilbert,  M. Wormit,
 J. Kussmann,  A. W. Lange,  A. Behn,  Jia Deng,  Xintian Feng,  D. Ghosh,
 M. Goldey,  P. R. Horn,  L. D. Jacobson,  I. Kaliman,  T. Kus,  A. Landau,
 Jie Liu,  E. I. Proynov,  R. M. Richard,  R. P. Steele,  E. J. Sundstrom,
 H. L. Woodcock III,  P. M. Zimmerman,  D. Zuev,  B. Albrecht,  E. Alguire,
 S. A. Baeppler,  Z. Benda,  Y. A. Bernard,  E. J. Berquist,  K. B. Bravaya,
 D. Casanova,  Chun-Min Chang,  Yunqing Chen,  A. Chien,  K. D. Closser,
 M. P. Coons,  S. Dasgupta,  M. Diedenhofen,  Hainam Do,  R. G. Edgar,
 Po-Tung Fang,  S. Fatehi,  Qingguo Feng,  Qinghui Ge,  A. Ghysels,
 J. Gomes,  J. Gonthier,  A. Gunina,  M. W. D. Hanson-Heine,
 P. H. P. Harbach,  A. W. Hauser,  J. E. Herr,  E. G. Hohenstein,
 Z. C. Holden,  Kerwin Hui,  T.-C. Jagau,  Hyunjun Ji,  B. Kaduk,
 K. Khistyaev,  Jaehoon Kim,  P. Klunzinger,  K. Koh,  D. Kosenkov,
 T. Kowalczyk,  C. M. Krauter,  A. Kunitsa,  Ka Un Lao,  A. Laurent,
 K. V. Lawler,  Joonho Lee,  D. Lefrancois,  S. Lehtola,  D. S. Levine,
 Yi-Pei Li,  You-Sheng Lin,  Fenglai Liu,  E. Livshits,  A. Luenser,
 P. Manohar,  E. Mansoor,  S. F. Manzer,  Shan-Ping Mao,  Yuezhi Mao,
 N. Mardirossian,  A. V. Marenich,  L. A. Martinez-Martinez,  S. A. Maurer,
 N. J. Mayhall,  S. C. McKenzie,  J.-M. Mewes,  A. F. Morrison,  K. Nanda,
 T. S. Nguyen-Beck,  R. Olivares-Amaya,  J. A. Parkhill,  T. M. Perrine,
 F. Plasser,  S. Prager,  A. Prociuk,  D. R. Rehn,  F. Rob,  M. Schneider,
 N. Sergueev,  S. M. Sharada,  S. Sharma,  D. W. Small,  T. Stauch,
 T. Stein,  Yu-Chuan Su,  A. J. W. Thom,  T. Tsuchimochi,  L. Vogt,
 O. Vydrov,  M. A. Watson,  J. Wenzel,  M. de Wergifosse,  T. A. Wesolowski,
 A. White,  J. Witte,  A. Yamada,  Jun Yang,  K. Yao,  S. Yeganeh,
 S. R. Yost,  Zhi-Qiang You,  A. Zech,  Igor Ying Zhang,  Xing Zhang,
 Yan Zhao,  Ying Zhu,  B. R. Brooks,  G. K. L. Chan,  C. J. Cramer,
 M. S. Gordon,  W. J. Hehre,  A. Klamt,  M. W. Schmidt,  C. D. Sherrill,
 D. G. Truhlar,  A. Aspuru-Guzik,  R. Baer,  A. T. Bell,  N. A. Besley,
 Jeng-Da Chai,  A. Dreuw,  B. D. Dunietz,  T. R. Furlani,  Chao-Ping Hsu,
 Yousung Jung,  Jing Kong,  D. S. Lambrecht,  WanZhen Liang,  C. Ochsenfeld,
 V. A. Rassolov,  L. V. Slipchenko,  J. E. Subotnik,  T. Van Voorhis,
 J. M. Herbert,  A. I. Krylov,  P. M. W. Gill,  M. Head-Gordon

 Contributors to earlier versions of Q-Chem not listed above:
 R. D. Adamson,  B. Austin,  J. Baker,  G. J. O. Beran,  K. Brandhorst,
 S. T. Brown,  E. F. C. Byrd,  A. K. Chakraborty,  C.-L. Cheng,
 Siu Hung Chien,  D. M. Chipman,  D. L. Crittenden,  H. Dachsel,
 R. A. DiStasio Jr.,  R. J. Doerksen,  A. D. Dutoi,  L. Fusti-Molnar,
 W. A. Goddard III,  A. Golubeva-Zadorozhnaya,  S. R. Gwaltney,  G. Hawkins,
 A. Heyden,  S. Hirata,  G. Kedziora,  F. J. Keil,  C. Kelley,  Jihan Kim,
 R. A. King,  R. Z. Khaliullin,  P. P. Korambath,  W. Kurlancheek,
 A. M. Lee,  M. S. Lee,  S. V. Levchenko,  Ching Yeh Lin,  D. Liotard,
 R. C. Lochan,  I. Lotan,  P. E. Maslen,  N. Nair,  D. P. O'Neill,
 D. Neuhauser,  E. Neuscamman,  C. M. Oana,  R. Olson,  B. Peters,
 R. Peverati,  P. A. Pieniazek,  Y. M. Rhee,  J. Ritchie,  M. A. Rohrdanz,
 E. Rosta,  N. J. Russ,  H. F. Schaefer III,  N. E. Schultz,  N. Shenvi,
 A. C. Simmonett,  A. Sodt,  D. Stuck,  K. S. Thanthiriwatte,  V. Vanovschi,
 Tao Wang,  A. Warshel,  C. F. Williams,  Q. Wu,  X. Xu,  W. Zhang

 Please cite Q-Chem as follows:
 Y. Shao et al., Mol. Phys. 113, 184-215 (2015)
 DOI: 10.1080/00268976.2014.952696

 Q-Chem 5.0.1 for Intel X86 EM64T Linux

 Parts of Q-Chem use Armadillo 5.200.1 (Boston Tea Smuggler).
 http://arma.sourceforge.net/

 Q-Chem begins on Tue Oct 24 11:47:47 2017

Host: r0168.ten.osc.edu
0

     Scratch files written to /tmp/pbstmp.1324400/01//
Processing $rem in /users/PAS0291/osu6415/.qchemrc.
molden_format             true
The previous job contains 0 fragments, simply inherited here

Checking the input file for inconsistencies... 	...done.

--------------------------------------------------------------
User input:
--------------------------------------------------------------

$molecule
read
$end

$rem
sym_ignore      true
scf_guess       read
jobtype         freq
method          b3lyp
basis           6-311++G(d,p)
dft_d           d3_op
mem_total       62000
MEM_STATIC      4000
ao2mo_disk      350000
max_scf_cycles  200
$end
--------------------------------------------------------------

             Standard Nuclear Orientation (Angstroms)
    I     Atom           X                Y                Z
 ----------------------------------------------------------------
    1      C      -0.6393478420    -0.0958943037    -0.6840096449
    2      C       0.9114400031     0.1725071370    -0.5882238698
    3      C      -1.5154930938     0.9837496133    -0.0891278372
    4      C       1.2530038738     1.3928829034     0.2544136520
    5      O      -2.2623451283     1.5734322993    -1.0428864911
    6      O      -1.5654219579     1.2896134782     1.0790971742
    7      O       0.8361085591     2.5037386533    -0.3997814954
    8      O       1.8056130612     1.4275972843     1.3220737292
    9      C       0.9506656158     3.7396011424     0.3284511260
   10      C      -3.1616523338     2.5988851817    -0.5916555529
   11      C      -0.7448464352    -1.4889357789     0.0475348100
   12      C      -0.3510179940    -2.5565619070    -0.9945101183
   13      C       1.1656666472    -2.2603974784    -1.1499361770
   14      C       1.4017021485    -1.1949662218    -0.0379809452
   15      O       0.3847765282    -1.5025483200     0.9287372227
   16      H      -0.9338534572    -0.2032624512    -1.7249339427
   17      H       1.3139983205     0.3673895730    -1.5820537758
   18      H       1.9903147165     3.9346306471     0.5943190463
   19      H      -2.6127346317     3.3982921281    -0.0914931247
   20      H      -0.5194685374    -3.5501128478    -0.5739791430
   21      H      -0.9216456677    -2.4760720128    -1.9197708616
   22      H       1.7728077706    -3.1458522419    -0.9577413493
   23      H       1.4354245605    -1.8831853624    -2.1372353371
   24      H       0.5768845553     4.5081153809    -0.3449577295
   25      H       0.3454751951     3.6912456478     1.2352230639
   26      H      -3.8971892374     2.1823436287     0.0990243741
   27      H      -3.6502369496     2.9724673768    -1.4889133811
   28      C      -2.0048875998    -1.7426976918     0.8477855752
   29      C       2.7696560200    -1.2448972301     0.6122329723
   30      O       3.7022030586    -0.7591706754    -0.3435366654
   31      H       3.0015556067    -2.2845638302     0.8859828120
   32      H       2.7775323109    -0.6271549318     1.5121585786
   33      C       5.0014869189    -0.5982771529     0.1942035570
   34      H       5.6329007611    -0.2023058252    -0.6017346357
   35      H       5.4159450158    -1.5573523044     0.5359557046
   36      H       4.9955567576     0.1054560090     1.0370425946
   37      O      -3.1096394332    -1.5378683392    -0.0200698311
   38      H      -2.0426632257    -1.0519716839     1.6967957853
   39      H      -1.9946955827    -2.7727594673     1.2309501951
   40      C      -4.3563745928    -1.6191658621     0.6447698029
   41      H      -5.1299718831    -1.4315785895    -0.1002903787
   42      H      -4.4300228298    -0.8674513115     1.4422979978
   43      H      -4.5138058721    -2.6147857129     1.0822598639
 ----------------------------------------------------------------

    2   -1073.6338764841      2.56E-09 Convergence criterion met
 Total energy in the final basis set = -1073.63387648

                    Orbital Energies (a.u.)
 --------------------------------------------------------------

 Alpha MOs
 -- Occupied --
-19.171 -19.168 -19.135 -19.131 -19.128 -19.113 -19.112 -10.304
-10.302 -10.240 -10.237 -10.228 -10.223 -10.219 -10.218 -10.212
-10.212 -10.202 -10.200 -10.174 -10.174  -1.114  -1.108  -1.067
 -1.045  -1.038  -1.025  -1.023  -0.829  -0.802  -0.781  -0.747
 -0.738  -0.723  -0.696  -0.659  -0.651  -0.633  -0.602  -0.577
 -0.558  -0.555  -0.529  -0.513  -0.511  -0.501  -0.491  -0.486
 -0.484  -0.481  -0.479  -0.475  -0.471  -0.461  -0.455  -0.454
 -0.428  -0.423  -0.419  -0.418  -0.411  -0.398  -0.393  -0.389
 -0.368  -0.368  -0.360  -0.355  -0.353  -0.352  -0.342  -0.329
 -0.327  -0.322  -0.313  -0.310  -0.288  -0.277  -0.274  -0.269
 -0.261

          Ground-State Mulliken Net Atomic Charges

     Atom                 Charge (a.u.)
  ----------------------------------------
      1 C                     0.456906
      2 C                     0.327244
      3 C                    -1.164867
      4 C                    -0.560014
      5 O                     0.104009
      6 O                    -0.091495
      7 O                     0.002085
      8 O                    -0.159199
      9 C                    -0.203283
     10 C                    -0.180541
     11 C                    -0.775631
     12 C                    -0.216193
     13 C                    -0.436365
     14 C                    -0.762959
     15 O                     0.099644
     16 H                     0.313896
     17 H                     0.304967
     18 H                     0.176691
     19 H                     0.158227
     20 H                     0.171036
     21 H                     0.171079
     22 H                     0.173708
     23 H                     0.170729
     24 H                     0.146177
     25 H                     0.200388
     26 H                     0.166211
     27 H                     0.155084
     28 C                     0.029268
     29 C                     0.118870
     30 O                    -0.034181
     31 H                     0.148665
     32 H                     0.228496
     33 C                    -0.230424
     34 H                     0.141414
     35 H                     0.132690
     36 H                     0.141237
     37 O                    -0.021488
     38 H                     0.249448
     39 H                     0.162418
     40 C                    -0.236167
     41 H                     0.144830
     42 H                     0.140599
     43 H                     0.136792
  ----------------------------------------
  Sum of atomic charges =     0.000000

                    Cartesian Multipole Moments
 -----------------------------------------------------------------
    Charge (ESU x 10^10)
                 0.0000
    Dipole Moment (Debye)
         X      -1.2915      Y       0.2911      Z      -1.7342
       Tot       2.1818
    Quadrupole Moments (Debye-Ang)
        XX    -109.8545     XY      -2.4819     YY    -112.0949
        XZ      -1.5038     YZ      -3.0591     ZZ    -132.7924

 Frequency:        31.91                  43.37                  45.67
 Force Cnst:      0.0029                 0.0040                 0.0043
 Red. Mass:       4.7632                 3.6492                 3.5385
 IR Intens:        0.525                  0.844                  0.617
 Frequency:        51.95                  70.81                  75.93
 Force Cnst:      0.0064                 0.0133                 0.0126
 Red. Mass:       4.0314                 4.4936                 3.7058
 IR Intens:        0.527                  3.364                  0.478
 Frequency:        94.23                 105.19                 109.98
 Force Cnst:      0.0127                 0.0122                 0.0168
 Red. Mass:       2.4353                 1.8673                 2.3534
 IR Intens:        0.833                  1.024                  8.757
 Frequency:       120.97                 142.61                 149.50
 Force Cnst:      0.0173                 0.0452                 0.0331
 Red. Mass:       2.0102                 3.7721                 2.5171
 IR Intens:        3.596                  2.385                  1.397
 Frequency:       154.15                 161.45                 190.64
 Force Cnst:      0.0488                 0.0192                 0.0617
 Red. Mass:       3.4882                 1.2506                 2.8825
 IR Intens:        1.922                  0.193                  0.980
 Frequency:       217.46                 219.73                 224.45
 Force Cnst:      0.0511                 0.0787                 0.0420
 Red. Mass:       1.8343                 2.7649                 1.4144
 IR Intens:        2.339                  0.096                  3.380
 Frequency:       239.27                 263.54                 274.11
 Force Cnst:      0.1065                 0.1374                 0.2270
 Red. Mass:       3.1586                 3.3579                 5.1276
 IR Intens:        3.979                  4.158                  0.745
 Frequency:       291.86                 305.72                 324.67
 Force Cnst:      0.1791                 0.1742                 0.2499
 Red. Mass:       3.5677                 3.1637                 4.0244
 IR Intens:        6.327                  3.469                 11.640
 Frequency:       341.44                 349.58                 361.81
 Force Cnst:      0.2171                 0.2419                 0.3026
 Red. Mass:       3.1606                 3.3593                 3.9233
 IR Intens:        2.596                  8.635                  5.437
 Frequency:       371.59                 395.61                 454.28
 Force Cnst:      0.2763                 0.3294                 0.4914
 Red. Mass:       3.3967                 3.5721                 4.0419
 IR Intens:        8.112                  4.916                 11.041
 Frequency:       502.78                 583.42                 633.36
 Force Cnst:      0.6802                 0.6821                 1.0293
 Red. Mass:       4.5667                 3.4011                 4.3550
 IR Intens:        5.829                 17.423                  5.967
 Frequency:       664.13                 697.39                 724.69
 Force Cnst:      1.2660                 1.6668                 1.4694
 Red. Mass:       4.8718                 5.8166                 4.7490
 IR Intens:        1.535                  1.735                  9.140
 Frequency:       726.78                 769.62                 813.65
 Force Cnst:      1.6397                 1.4041                 0.8715
 Red. Mass:       5.2687                 4.0236                 2.2344
 IR Intens:        1.637                  2.098                  0.670
 Frequency:       835.86                 850.79                 857.07
 Force Cnst:      1.9067                 1.1354                 1.9471
 Red. Mass:       4.6319                 2.6623                 4.4989
 IR Intens:       17.295                  2.358                  8.100
 Frequency:       877.96                 905.88                 918.24
 Force Cnst:      2.3616                 1.2189                 1.0918
 Red. Mass:       5.2001                 2.5210                 2.1977
 IR Intens:        6.343                  7.148                 16.636
 Frequency:       953.79                 965.35                 967.88
 Force Cnst:      2.3427                 1.5657                 3.3610
 Red. Mass:       4.3709                 2.8516                 6.0894
 IR Intens:       66.413                  7.412                  7.175
 Frequency:       972.08                 982.43                 986.54
 Force Cnst:      1.4040                 2.4347                 2.0389
 Red. Mass:       2.5218                 4.2815                 3.5557
 IR Intens:       10.293                 12.403                  8.199
 Frequency:      1033.94                1057.21                1067.45
 Force Cnst:      2.0974                 1.8654                 2.3960
 Red. Mass:       3.3300                 2.8327                 3.5690
 IR Intens:       13.404                 28.693                 54.985
 Frequency:      1092.04                1107.76                1135.53
 Force Cnst:      2.5042                 1.2004                 4.0620
 Red. Mass:       3.5641                 1.6604                 5.3468
 IR Intens:       15.619                  6.116                358.502
 Frequency:      1139.58                1148.15                1169.30
 Force Cnst:      3.9623                 1.4536                 1.3350
 Red. Mass:       5.1786                 1.8715                 1.6572
 IR Intens:       25.147                  6.048                 39.300
 Frequency:      1170.56                1173.30                1176.50
 Force Cnst:      1.0658                 1.0513                 1.2757
 Red. Mass:       1.3201                 1.2962                 1.5643
 IR Intens:       11.631                  5.091                 36.155
 Frequency:      1183.87                1195.07                1199.17
 Force Cnst:      1.3166                 1.4413                 1.6275
 Red. Mass:       1.5944                 1.7129                 1.9209
 IR Intens:       30.205                119.231                145.052
 Frequency:      1210.78                1212.75                1214.34
 Force Cnst:      1.2542                 1.3800                 1.3579
 Red. Mass:       1.4521                 1.5925                 1.5629
 IR Intens:        2.224                  5.850                  1.908
 Frequency:      1217.35                1222.53                1228.86
 Force Cnst:      1.5862                 1.6837                 1.4984
 Red. Mass:       1.8167                 1.9120                 1.6841
 IR Intens:      107.070                268.486                 14.925
 Frequency:      1245.34                1261.60                1267.33
 Force Cnst:      1.4695                 1.3229                 1.2617
 Red. Mass:       1.6082                 1.4107                 1.3332
 IR Intens:        5.067                 24.603                 11.996
 Frequency:      1294.13                1303.86                1329.75
 Force Cnst:      1.4320                 1.4722                 1.7087
 Red. Mass:       1.4512                 1.4698                 1.6401
 IR Intens:       11.607                 17.825                  2.666
 Frequency:      1345.22                1371.56                1409.52
 Force Cnst:      2.3094                 1.8072                 1.7676
 Red. Mass:       2.1660                 1.6305                 1.5101
 IR Intens:        5.491                117.017                 64.217
 Frequency:      1425.92                1435.28                1468.36
 Force Cnst:      1.8127                 2.0715                 1.5132
 Red. Mass:       1.5131                 1.7067                 1.1912
 IR Intens:        8.217                  2.093                 12.962
 Frequency:      1469.84                1474.29                1476.72
 Force Cnst:      1.5723                 1.4933                 1.5198
 Red. Mass:       1.2352                 1.1660                 1.1829
 IR Intens:       26.627                  1.653                  1.714
 Frequency:      1481.52                1485.53                1486.67
 Force Cnst:      1.3527                 1.3600                 1.3661
 Red. Mass:       1.0460                 1.0459                 1.0491
 IR Intens:        8.619                 10.274                  7.642
 Frequency:      1487.09                1489.04                1496.56
 Force Cnst:      1.3622                 1.4114                 1.3823
 Red. Mass:       1.0454                 1.0804                 1.0475
 IR Intens:        7.701                  1.978                  3.475
 Frequency:      1499.08                1503.69                1505.38
 Force Cnst:      1.3850                 1.4135                 1.4156
 Red. Mass:       1.0460                 1.0611                 1.0602
 IR Intens:       12.274                 10.554                 11.151
 Frequency:      1512.61                1525.15                1529.49
 Force Cnst:      1.4852                 1.4762                 1.4865
 Red. Mass:       1.1018                 1.0771                 1.0785
 IR Intens:       10.411                 13.955                 13.429
 Frequency:      1778.52                1807.56                2974.47
 Force Cnst:     19.4940                21.6107                 5.4276
 Red. Mass:      10.4600                11.2261                 1.0412
 IR Intens:       95.027                283.379                 71.965
 Frequency:      2975.60                2984.91                2992.76
 Force Cnst:      5.4102                 5.5942                 5.6117
 Red. Mass:       1.0371                 1.0657                 1.0634
 IR Intens:       54.802                 80.099                 67.612
 Frequency:      3023.60                3025.61                3046.46
 Force Cnst:      5.9487                 5.9459                 5.6316
 Red. Mass:       1.1044                 1.1024                 1.0299
 IR Intens:       50.947                 48.455                 32.222
 Frequency:      3049.71                3055.89                3061.81
 Force Cnst:      5.6398                 6.0390                 5.8685
 Red. Mass:       1.0292                 1.0976                 1.0625
 IR Intens:       37.415                 10.620                 28.871
 Frequency:      3071.54                3091.55                3100.02
 Force Cnst:      5.9040                 6.1503                 6.1822
 Red. Mass:       1.0621                 1.0922                 1.0919
 IR Intens:       31.281                  6.373                  3.061
 Frequency:      3107.51                3113.42                3114.47
 Force Cnst:      6.2456                 6.2673                 6.2701
 Red. Mass:       1.0977                 1.0974                 1.0971
 IR Intens:        4.109                 28.025                 23.103
 Frequency:      3117.20                3119.74                3125.25
 Force Cnst:      6.3347                 6.3142                 6.3721
 Red. Mass:       1.1065                 1.1011                 1.1073
 IR Intens:       23.733                 19.909                 15.533
 Frequency:      3130.80                3153.63                3154.59
 Force Cnst:      6.2931                 6.4838                 6.4830
 Red. Mass:       1.0897                 1.1065                 1.1057
 IR Intens:       16.239                 13.474                 15.183

 STANDARD THERMODYNAMIC QUANTITIES AT   298.15 K  AND     1.00 ATM

   This Molecule has  0 Imaginary Frequencies
   Zero point vibrational energy:      225.138 kcal/mol

   Atom    1 Element C  Has Mass   12.00000
   Atom    2 Element C  Has Mass   12.00000
   Atom    3 Element C  Has Mass   12.00000
   Atom    4 Element C  Has Mass   12.00000
   Atom    5 Element O  Has Mass   15.99491
   Atom    6 Element O  Has Mass   15.99491
   Atom    7 Element O  Has Mass   15.99491
   Atom    8 Element O  Has Mass   15.99491
   Atom    9 Element C  Has Mass   12.00000
   Atom   10 Element C  Has Mass   12.00000
   Atom   11 Element C  Has Mass   12.00000
   Atom   12 Element C  Has Mass   12.00000
   Atom   13 Element C  Has Mass   12.00000
   Atom   14 Element C  Has Mass   12.00000
   Atom   15 Element O  Has Mass   15.99491
   Atom   16 Element H  Has Mass    1.00783
   Atom   17 Element H  Has Mass    1.00783
   Atom   18 Element H  Has Mass    1.00783
   Atom   19 Element H  Has Mass    1.00783
   Atom   20 Element H  Has Mass    1.00783
   Atom   21 Element H  Has Mass    1.00783
   Atom   22 Element H  Has Mass    1.00783
   Atom   23 Element H  Has Mass    1.00783
   Atom   24 Element H  Has Mass    1.00783
   Atom   25 Element H  Has Mass    1.00783
   Atom   26 Element H  Has Mass    1.00783
   Atom   27 Element H  Has Mass    1.00783
   Atom   28 Element C  Has Mass   12.00000
   Atom   29 Element C  Has Mass   12.00000
   Atom   30 Element O  Has Mass   15.99491
   Atom   31 Element H  Has Mass    1.00783
   Atom   32 Element H  Has Mass    1.00783
   Atom   33 Element C  Has Mass   12.00000
   Atom   34 Element H  Has Mass    1.00783
   Atom   35 Element H  Has Mass    1.00783
   Atom   36 Element H  Has Mass    1.00783
   Atom   37 Element O  Has Mass   15.99491
   Atom   38 Element H  Has Mass    1.00783
   Atom   39 Element H  Has Mass    1.00783
   Atom   40 Element C  Has Mass   12.00000
   Atom   41 Element H  Has Mass    1.00783
   Atom   42 Element H  Has Mass    1.00783
   Atom   43 Element H  Has Mass    1.00783
   Molecular Mass:   302.136630 amu
   Principal axes and moments of inertia in amu*Bohr^2:
                             1           2           3
    Eigenvalues --     4107.03750  6690.96968  9543.30315
          X               0.99915     0.03792    -0.01585
          Y              -0.03821     0.99911    -0.01806
          Z               0.01515     0.01865     0.99971
   Rotational Symmetry Number is   1
   The Molecule is an Asymmetric Top
   Translational Enthalpy:        0.889 kcal/mol
   Rotational Enthalpy:           0.889 kcal/mol
   Vibrational Enthalpy:        237.432 kcal/mol
   gas constant (RT):             0.592 kcal/mol
   Translational Entropy:        43.014  cal/mol.K
   Rotational Entropy:           33.927  cal/mol.K
   Vibrational Entropy:          82.367  cal/mol.K

   Total Enthalpy:              239.802 kcal/mol
   Total Entropy:               159.308  cal/mol.K

 Total job time:  21255.22s(wall), 90638.02s(cpu)
        *  Thank you very much for using Q-Chem.  Have a nice day.  *
