 Q-Chem 5.0, Q-Chem, Inc., Pleasanton, CA (2017)
 Q-Chem 5.0.1 for Intel X86 EM64T Linux

User input:
--------------------------------------------------------------
$molecule
0 1
C -0.82454796 -0.05939355 -0.75225577
C 0.74657278 0.04310929 -0.81795118
C -1.51375367 1.20280123 -0.25796276
C 1.37005506 1.30808322 -0.26195747
O -1.23656119 2.20871707 -1.12282298
O -2.22543740 1.34293145 0.70231778
O 0.87654258 1.62887857 0.95182109
O 2.23332900 1.94312466 -0.81598853
C 1.40039906 2.82045717 1.55976085
C -1.79580007 3.49287667 -0.80041657
C -1.01337065 -1.36831426 0.07686593
C -0.66896216 -2.55484861 -0.86218197
C 0.87868057 -2.46478166 -0.93036246
C 1.15034630 -1.24599579 -0.01547967
O 0.11492075 -1.34815117 0.96900212
H -1.20762462 -0.20449400 -1.76352145
H 1.10458052 -0.02112610 -1.84216222
H 1.22138562 3.68529418 0.91853639
H -1.46056420 3.81673449 0.18633526
H -0.99309221 -3.48809678 -0.39864895
H -1.16216828 -2.47505350 -1.83073307
H 1.35255296 -3.35326501 -0.50921254
H 1.27279628 -2.31973137 -1.93586240
H 0.86711747 2.92167785 2.50225349
H 2.47358445 2.72243255 1.73210793
H -2.88601033 3.44809917 -0.81036520
H -1.43249628 4.16920380 -1.57093513
C -2.29441818 -1.54548796 0.86509515
C 2.50698549 -1.23191774 0.65670713
O 3.48348685 -1.21663714 -0.36691421
H 2.60628374 -2.12862934 1.28557868
H 2.60517535 -0.35402789 1.30887508
C 4.79253903 -0.97552150 0.11256459
H 5.45640662 -0.98459614 -0.75170842
H 5.11168371 -1.75361798 0.82043800
H 4.85952657 0.00397277 0.60485992
O -3.36223162 -1.49893187 -0.06982263
H -2.39304292 -0.75501486 1.61157791
H -2.26730342 -2.52035350 1.37376012
C -4.63266420 -1.42434171 0.54913264
H -5.37669082 -1.38922139 -0.24739233
H -4.71776817 -0.52017722 1.16528791
H -4.82476760 -2.30541998 1.17799743
$end

$rem
sym_ignore      true
jobtype         opt
method          b3lyp
basis           6-311++G(d,p)
dft_d           d3_op
mem_total       62000
MEM_STATIC      4000
ao2mo_disk      350000
max_scf_cycles  200
geom_opt_max_cycles 1000
geom_opt_tol_displacement 1
GEOM_OPT_TOL_GRADIENT       1
GEOM_OPT_TOL_ENERGY         1
$end

--------------------------------------------------------------

   14   -1073.6324871111      9.40E-09 Convergence criterion met
 Total energy in the final basis set = -1073.63248711
   10   -1073.6324894754      4.89E-09 Convergence criterion met
 Total energy in the final basis set = -1073.63248948
   10   -1073.6324912127      8.31E-09 Convergence criterion met
 Total energy in the final basis set = -1073.63249121
   11   -1073.6324909420      3.48E-09 Convergence criterion met
 Total energy in the final basis set = -1073.63249094
   10   -1073.6324848257      5.24E-09 Convergence criterion met
 Total energy in the final basis set = -1073.63248483
   10   -1073.6324920697      5.25E-09 Convergence criterion met
 Total energy in the final basis set = -1073.63249207
   10   -1073.6324927409      6.18E-09 Convergence criterion met
 Total energy in the final basis set = -1073.63249274
    9   -1073.6324915611      4.93E-09 Convergence criterion met
    7   -1073.6324906077      9.46E-09 Convergence criterion met
 Total energy in the final basis set = -1073.63249061
    6   -1073.6324906701      7.00E-09 Convergence criterion met
 Total energy in the final basis set = -1073.63249067
    6   -1073.6324907142      5.30E-09 Convergence criterion met
 Total energy in the final basis set = -1073.63249071
    5   -1073.6324907024      6.19E-09 Convergence criterion met
 Total energy in the final basis set = -1073.63249070
    4   -1073.6324907125      8.51E-09 Convergence criterion met
 Total energy in the final basis set = -1073.63249071
    5   -1073.6324907222      4.56E-09 Convergence criterion met
 Total energy in the final basis set = -1073.63249072
 Final energy is   -1073.63249072221
 **  OPTIMIZATION CONVERGED  **
 Total job time:  2197.20s(wall), 31706.73s(cpu)
        *  Thank you very much for using Q-Chem.  Have a nice day.  *

User input: 2 of 2

r0169.ten.osc.edu 10.25.155
Q-Chem Developer Version! Running on 10.25.155.*
                  Welcome to Q-Chem
     A Quantum Leap Into The Future Of Chemistry

 Q-Chem 5.0, Q-Chem, Inc., Pleasanton, CA (2017)

 Yihan Shao,  Zhengting Gan,  E. Epifanovsky,  A. T. B. Gilbert,  M. Wormit,
 J. Kussmann,  A. W. Lange,  A. Behn,  Jia Deng,  Xintian Feng,  D. Ghosh,
 M. Goldey,  P. R. Horn,  L. D. Jacobson,  I. Kaliman,  T. Kus,  A. Landau,
 Jie Liu,  E. I. Proynov,  R. M. Richard,  R. P. Steele,  E. J. Sundstrom,
 H. L. Woodcock III,  P. M. Zimmerman,  D. Zuev,  B. Albrecht,  E. Alguire,
 S. A. Baeppler,  Z. Benda,  Y. A. Bernard,  E. J. Berquist,  K. B. Bravaya,
 D. Casanova,  Chun-Min Chang,  Yunqing Chen,  A. Chien,  K. D. Closser,
 M. P. Coons,  S. Dasgupta,  M. Diedenhofen,  Hainam Do,  R. G. Edgar,
 Po-Tung Fang,  S. Fatehi,  Qingguo Feng,  Qinghui Ge,  A. Ghysels,
 J. Gomes,  J. Gonthier,  A. Gunina,  M. W. D. Hanson-Heine,
 P. H. P. Harbach,  A. W. Hauser,  J. E. Herr,  E. G. Hohenstein,
 Z. C. Holden,  Kerwin Hui,  T.-C. Jagau,  Hyunjun Ji,  B. Kaduk,
 K. Khistyaev,  Jaehoon Kim,  P. Klunzinger,  K. Koh,  D. Kosenkov,
 T. Kowalczyk,  C. M. Krauter,  A. Kunitsa,  Ka Un Lao,  A. Laurent,
 K. V. Lawler,  Joonho Lee,  D. Lefrancois,  S. Lehtola,  D. S. Levine,
 Yi-Pei Li,  You-Sheng Lin,  Fenglai Liu,  E. Livshits,  A. Luenser,
 P. Manohar,  E. Mansoor,  S. F. Manzer,  Shan-Ping Mao,  Yuezhi Mao,
 N. Mardirossian,  A. V. Marenich,  L. A. Martinez-Martinez,  S. A. Maurer,
 N. J. Mayhall,  S. C. McKenzie,  J.-M. Mewes,  A. F. Morrison,  K. Nanda,
 T. S. Nguyen-Beck,  R. Olivares-Amaya,  J. A. Parkhill,  T. M. Perrine,
 F. Plasser,  S. Prager,  A. Prociuk,  D. R. Rehn,  F. Rob,  M. Schneider,
 N. Sergueev,  S. M. Sharada,  S. Sharma,  D. W. Small,  T. Stauch,
 T. Stein,  Yu-Chuan Su,  A. J. W. Thom,  T. Tsuchimochi,  L. Vogt,
 O. Vydrov,  M. A. Watson,  J. Wenzel,  M. de Wergifosse,  T. A. Wesolowski,
 A. White,  J. Witte,  A. Yamada,  Jun Yang,  K. Yao,  S. Yeganeh,
 S. R. Yost,  Zhi-Qiang You,  A. Zech,  Igor Ying Zhang,  Xing Zhang,
 Yan Zhao,  Ying Zhu,  B. R. Brooks,  G. K. L. Chan,  C. J. Cramer,
 M. S. Gordon,  W. J. Hehre,  A. Klamt,  M. W. Schmidt,  C. D. Sherrill,
 D. G. Truhlar,  A. Aspuru-Guzik,  R. Baer,  A. T. Bell,  N. A. Besley,
 Jeng-Da Chai,  A. Dreuw,  B. D. Dunietz,  T. R. Furlani,  Chao-Ping Hsu,
 Yousung Jung,  Jing Kong,  D. S. Lambrecht,  WanZhen Liang,  C. Ochsenfeld,
 V. A. Rassolov,  L. V. Slipchenko,  J. E. Subotnik,  T. Van Voorhis,
 J. M. Herbert,  A. I. Krylov,  P. M. W. Gill,  M. Head-Gordon

 Contributors to earlier versions of Q-Chem not listed above:
 R. D. Adamson,  B. Austin,  J. Baker,  G. J. O. Beran,  K. Brandhorst,
 S. T. Brown,  E. F. C. Byrd,  A. K. Chakraborty,  C.-L. Cheng,
 Siu Hung Chien,  D. M. Chipman,  D. L. Crittenden,  H. Dachsel,
 R. A. DiStasio Jr.,  R. J. Doerksen,  A. D. Dutoi,  L. Fusti-Molnar,
 W. A. Goddard III,  A. Golubeva-Zadorozhnaya,  S. R. Gwaltney,  G. Hawkins,
 A. Heyden,  S. Hirata,  G. Kedziora,  F. J. Keil,  C. Kelley,  Jihan Kim,
 R. A. King,  R. Z. Khaliullin,  P. P. Korambath,  W. Kurlancheek,
 A. M. Lee,  M. S. Lee,  S. V. Levchenko,  Ching Yeh Lin,  D. Liotard,
 R. C. Lochan,  I. Lotan,  P. E. Maslen,  N. Nair,  D. P. O'Neill,
 D. Neuhauser,  E. Neuscamman,  C. M. Oana,  R. Olson,  B. Peters,
 R. Peverati,  P. A. Pieniazek,  Y. M. Rhee,  J. Ritchie,  M. A. Rohrdanz,
 E. Rosta,  N. J. Russ,  H. F. Schaefer III,  N. E. Schultz,  N. Shenvi,
 A. C. Simmonett,  A. Sodt,  D. Stuck,  K. S. Thanthiriwatte,  V. Vanovschi,
 Tao Wang,  A. Warshel,  C. F. Williams,  Q. Wu,  X. Xu,  W. Zhang

 Please cite Q-Chem as follows:
 Y. Shao et al., Mol. Phys. 113, 184-215 (2015)
 DOI: 10.1080/00268976.2014.952696

 Q-Chem 5.0.1 for Intel X86 EM64T Linux

 Parts of Q-Chem use Armadillo 5.200.1 (Boston Tea Smuggler).
 http://arma.sourceforge.net/

 Q-Chem begins on Tue Oct 24 10:57:52 2017

Host: r0169.ten.osc.edu
0

     Scratch files written to /tmp/pbstmp.1324401/02//
Processing $rem in /users/PAS0291/osu6415/.qchemrc.
molden_format             true
The previous job contains 0 fragments, simply inherited here

Checking the input file for inconsistencies... 	...done.

--------------------------------------------------------------
User input:
--------------------------------------------------------------

$molecule
read
$end

$rem
sym_ignore      true
scf_guess       read
jobtype         freq
method          b3lyp
basis           6-311++G(d,p)
dft_d           d3_op
mem_total       62000
MEM_STATIC      4000
ao2mo_disk      350000
max_scf_cycles  200
$end
--------------------------------------------------------------

             Standard Nuclear Orientation (Angstroms)
    I     Atom           X                Y                Z
 ----------------------------------------------------------------
    1      C      -0.8246039445    -0.0590386404    -0.7526391904
    2      C       0.7462107836     0.0455760969    -0.8180143926
    3      C      -1.5168538663     1.2044303147    -0.2659305830
    4      C       1.3685655797     1.3076356395    -0.2540277207
    5      O      -1.2246124793     2.2108091827    -1.1254283398
    6      O      -2.2449975957     1.3441431323     0.6819159365
    7      O       0.8625702604     1.6296299441     0.9543282082
    8      O       2.2430536994     1.9375249571    -0.7961148898
    9      C       1.3871173846     2.8164058583     1.5707909994
   10      C      -1.7848012823     3.4960085367    -0.8093241095
   11      C      -1.0127854165    -1.3666077543     0.0782899881
   12      C      -0.6701703101    -2.5539480808    -0.8603171723
   13      C       0.8774314755    -2.4633394102    -0.9319006054
   14      C       1.1509640488    -1.2445178848    -0.0178651277
   15      O       0.1171872438    -1.3464341652     0.9686717729
   16      H      -1.2063565975    -0.2073303133    -1.7641283832
   17      H       1.1060561986    -0.0148619909    -1.8417743635
   18      H       1.2178683193     3.6843613796     0.9310760076
   19      H      -1.4633166316     3.8170975420     0.1829242538
   20      H      -0.9935787224    -3.4870889451    -0.3961198440
   21      H      -1.1648624294    -2.4745374196    -1.8281408205
   22      H       1.3527571856    -3.3515145235    -0.5117885428
   23      H       1.2689492802    -2.3186314489    -1.9384873478
   24      H       0.8464220522     2.9171915235     2.5091032584
   25      H       2.4583034305     2.7125114930     1.7518490127
   26      H      -2.8748867374     3.4547981758    -0.8356352980
   27      H      -1.4078770086     4.1725526860    -1.5730845951
   28      C      -2.2921996113    -1.5431500852     0.8691948904
   29      C       2.5086968979    -1.2313666660     0.6522964341
   30      O       3.4836708942    -1.2204552331    -0.3727563693
   31      H       2.6071627985    -2.1267629900     1.2831521403
   32      H       2.6098857730    -0.3521473983     1.3022817287
   33      C       4.7934519412    -0.9767675294     0.1036979056
   34      H       5.4561491453    -0.9913726306    -0.7613812460
   35      H       5.1131918578    -1.7506801710     0.8158774967
   36      H       4.8611278481     0.0057083664     0.5898317871
   37      O      -3.3613875160    -1.5038183510    -0.0640908861
   38      H      -2.3916591778    -0.7496464877     1.6124503281
   39      H      -2.2615743793    -2.5156323687     1.3823256756
   40      C      -4.6310811943    -1.4284761056     0.5563864631
   41      H      -5.3764133071    -1.4017316206    -0.2392144620
   42      H      -4.7178228392    -0.5198890681     1.1657308381
   43      H      -4.8192782419    -2.3053914262     1.1922066538
 ----------------------------------------------------------------

    2   -1073.6324907052      1.98E-09 Convergence criterion met
 Total energy in the final basis set = -1073.63249071

                    Orbital Energies (a.u.)
 --------------------------------------------------------------

 Alpha MOs
 -- Occupied --
-19.172 -19.172 -19.133 -19.133 -19.127 -19.116 -19.114 -10.308
-10.304 -10.243 -10.238 -10.230 -10.229 -10.225 -10.216 -10.213
-10.210 -10.204 -10.202 -10.174 -10.173  -1.118  -1.111  -1.068
 -1.045  -1.038  -1.028  -1.026  -0.831  -0.804  -0.783  -0.747
 -0.739  -0.726  -0.697  -0.662  -0.652  -0.635  -0.604  -0.577
 -0.567  -0.558  -0.527  -0.516  -0.515  -0.503  -0.494  -0.487
 -0.484  -0.482  -0.480  -0.473  -0.472  -0.462  -0.456  -0.455
 -0.430  -0.425  -0.423  -0.416  -0.410  -0.402  -0.396  -0.386
 -0.372  -0.370  -0.361  -0.358  -0.354  -0.352  -0.342  -0.331
 -0.328  -0.322  -0.315  -0.314  -0.286  -0.278  -0.277  -0.269
 -0.262

          Ground-State Mulliken Net Atomic Charges

     Atom                 Charge (a.u.)
  ----------------------------------------
      1 C                     0.382594
      2 C                     0.680455
      3 C                    -0.892547
      4 C                    -0.776368
      5 O                     0.049134
      6 O                    -0.140974
      7 O                     0.013473
      8 O                    -0.096617
      9 C                    -0.179078
     10 C                    -0.179432
     11 C                    -0.944531
     12 C                    -0.311469
     13 C                    -0.392505
     14 C                    -0.882034
     15 O                     0.072805
     16 H                     0.299988
     17 H                     0.295451
     18 H                     0.186048
     19 H                     0.173723
     20 H                     0.176561
     21 H                     0.173663
     22 H                     0.174698
     23 H                     0.178187
     24 H                     0.175819
     25 H                     0.169782
     26 H                     0.171514
     27 H                     0.163601
     28 C                     0.048822
     29 C                     0.180548
     30 O                    -0.014849
     31 H                     0.181048
     32 H                     0.179244
     33 C                    -0.250336
     34 H                     0.147266
     35 H                     0.135365
     36 H                     0.144657
     37 O                    -0.034987
     38 H                     0.221010
     39 H                     0.147332
     40 C                    -0.240544
     41 H                     0.139296
     42 H                     0.143107
     43 H                     0.131085
  ----------------------------------------
  Sum of atomic charges =     0.000000

                    Cartesian Multipole Moments
 -----------------------------------------------------------------
    Charge (ESU x 10^10)
                 0.0000
    Dipole Moment (Debye)
         X      -0.2050      Y       0.2159      Z       0.9169
       Tot       0.9640
    Quadrupole Moments (Debye-Ang)
        XX    -119.6337     XY      -3.9346     YY    -115.6622
        XZ       7.9108     YZ       2.7685     ZZ    -126.5000

 Frequency:        23.47                  41.15                  45.11
 Force Cnst:      0.0017                 0.0034                 0.0041
 Red. Mass:       5.2888                 3.4524                 3.4578
 IR Intens:        0.261                  0.387                  0.514
 Frequency:        61.53                  71.86                  75.55
 Force Cnst:      0.0098                 0.0109                 0.0136
 Red. Mass:       4.3928                 3.5878                 4.0463
 IR Intens:        2.252                  3.131                  1.027
 Frequency:        90.64                 102.11                 112.85
 Force Cnst:      0.0149                 0.0132                 0.0215
 Red. Mass:       3.0758                 2.1481                 2.8675
 IR Intens:        2.646                  1.428                  4.454
 Frequency:       114.12                 138.42                 141.21
 Force Cnst:      0.0174                 0.0242                 0.0229
 Red. Mass:       2.2710                 2.1405                 1.9468
 IR Intens:        1.281                  1.441                  0.870
 Frequency:       147.09                 155.60                 177.94
 Force Cnst:      0.0398                 0.0158                 0.0563
 Red. Mass:       3.1231                 1.1110                 3.0192
 IR Intens:        3.901                  0.021                  1.662
 Frequency:       205.33                 210.18                 224.19
 Force Cnst:      0.0376                 0.0431                 0.1070
 Red. Mass:       1.5137                 1.6562                 3.6142
 IR Intens:        3.354                  0.331                  1.156
 Frequency:       248.21                 264.85                 277.90
 Force Cnst:      0.1134                 0.1498                 0.2440
 Red. Mass:       3.1248                 3.6251                 5.3629
 IR Intens:        8.091                  1.326                  1.363
 Frequency:       288.83                 307.48                 325.88
 Force Cnst:      0.1861                 0.1735                 0.2425
 Red. Mass:       3.7869                 3.1146                 3.8752
 IR Intens:        3.224                  0.816                  9.518
 Frequency:       341.66                 356.20                 363.78
 Force Cnst:      0.2040                 0.2598                 0.3482
 Red. Mass:       2.9666                 3.4756                 4.4664
 IR Intens:        4.207                  6.130                  4.138
 Frequency:       378.11                 382.59                 480.51
 Force Cnst:      0.2851                 0.3195                 0.6871
 Red. Mass:       3.3844                 3.7045                 5.0506
 IR Intens:       10.312                  8.043                  6.134
 Frequency:       500.65                 581.23                 633.48
 Force Cnst:      0.6112                 0.6666                 1.1775
 Red. Mass:       4.1385                 3.3490                 4.9802
 IR Intens:        7.043                 17.437                  8.196
 Frequency:       654.86                 686.93                 715.14
 Force Cnst:      1.1347                 1.6010                 1.5558
 Red. Mass:       4.4908                 5.7587                 5.1632
 IR Intens:        0.135                  0.149                  5.165
 Frequency:       722.43                 775.47                 806.51
 Force Cnst:      1.3112                 1.6378                 1.0406
 Red. Mass:       4.2640                 4.6227                 2.7153
 IR Intens:        7.309                  5.215                  2.127
 Frequency:       836.66                 838.10                 865.28
 Force Cnst:      1.0107                 1.4651                 2.0412
 Red. Mass:       2.4507                 3.5403                 4.6273
 IR Intens:        6.591                 13.200                  3.316
 Frequency:       878.25                 891.42                 915.59
 Force Cnst:      2.3634                 1.4737                 1.1135
 Red. Mass:       5.2006                 3.1478                 2.2544
 IR Intens:        3.810                  6.055                 17.003
 Frequency:       939.95                 954.67                 971.00
 Force Cnst:      1.6004                 2.2460                 1.9867
 Red. Mass:       3.0745                 4.1826                 3.5764
 IR Intens:        2.033                 74.139                  9.061
 Frequency:       978.02                 989.28                 994.78
 Force Cnst:      1.8241                 1.3931                 1.9171
 Red. Mass:       3.2367                 2.4159                 3.2881
 IR Intens:        7.562                 12.089                  5.072
 Frequency:      1038.52                1060.16                1064.81
 Force Cnst:      2.0066                 2.2100                 3.3741
 Red. Mass:       3.1577                 3.3373                 5.0507
 IR Intens:       14.881                 36.065                 58.413
 Frequency:      1086.99                1107.11                1134.24
 Force Cnst:      2.6812                 1.1942                 2.7293
 Red. Mass:       3.8514                 1.6536                 3.6008
 IR Intens:       47.592                  2.277                290.377
 Frequency:      1142.86                1151.56                1170.96
 Force Cnst:      3.1967                 1.6290                 1.0130
 Red. Mass:       4.1540                 2.0850                 1.2540
 IR Intens:        7.109                100.845                  1.447
 Frequency:      1171.49                1172.98                1180.53
 Force Cnst:      1.0343                 1.0391                 1.2026
 Red. Mass:       1.2791                 1.2818                 1.4646
 IR Intens:        1.937                  0.184                 26.651
 Frequency:      1190.04                1197.75                1207.03
 Force Cnst:      2.5774                 1.3315                 1.3528
 Red. Mass:       3.0890                 1.5753                 1.5759
 IR Intens:      239.000                  4.136                 28.777
 Frequency:      1208.34                1211.92                1215.84
 Force Cnst:      1.3082                 1.5231                 1.7180
 Red. Mass:       1.5207                 1.7601                 1.9725
 IR Intens:       26.340                 23.761                 32.593
 Frequency:      1217.03                1224.01                1232.54
 Force Cnst:      1.5499                 1.6460                 1.1456
 Red. Mass:       1.7760                 1.8647                 1.2799
 IR Intens:       39.444                 54.297                 31.610
 Frequency:      1247.04                1269.05                1279.66
 Force Cnst:      1.5368                 1.2736                 2.3038
 Red. Mass:       1.6773                 1.3422                 2.3878
 IR Intens:      101.907                 18.838                104.292
 Frequency:      1286.14                1297.06                1332.22
 Force Cnst:      1.3813                 1.5049                 1.6827
 Red. Mass:       1.4173                 1.5182                 1.6092
 IR Intens:       30.325                 16.709                 20.486
 Frequency:      1345.59                1357.15                1388.89
 Force Cnst:      2.1294                 1.5210                 1.7807
 Red. Mass:       1.9961                 1.4016                 1.5668
 IR Intens:        9.105                  5.366                 39.106
 Frequency:      1419.51                1432.43                1466.01
 Force Cnst:      1.8168                 2.0483                 1.5036
 Red. Mass:       1.5303                 1.6943                 1.1874
 IR Intens:       19.523                  1.979                 11.211
 Frequency:      1469.36                1475.81                1476.57
 Force Cnst:      1.5174                 1.5232                 1.5119
 Red. Mass:       1.1929                 1.1870                 1.1770
 IR Intens:       14.664                  0.356                  0.644
 Frequency:      1481.71                1484.31                1486.45
 Force Cnst:      1.3535                 1.3582                 1.3612
 Red. Mass:       1.0464                 1.0463                 1.0456
 IR Intens:        1.746                 14.666                  7.035
 Frequency:      1486.93                1491.90                1494.49
 Force Cnst:      1.3612                 1.4190                 1.3786
 Red. Mass:       1.0449                 1.0821                 1.0476
 IR Intens:        8.602                  0.631                 13.440
 Frequency:      1500.89                1502.32                1505.25
 Force Cnst:      1.4103                 1.4187                 1.4019
 Red. Mass:       1.0626                 1.0669                 1.0502
 IR Intens:        8.550                  9.141                  2.580
 Frequency:      1513.05                1517.89                1535.58
 Force Cnst:      1.4824                 1.4675                 1.5022
 Red. Mass:       1.0990                 1.0810                 1.0813
 IR Intens:       12.377                 10.986                  6.087
 Frequency:      1784.98                1801.94                2973.76
 Force Cnst:     20.3003                21.8322                 5.4200
 Red. Mass:      10.8140                11.4122                 1.0402
 IR Intens:      237.913                277.303                 80.798
 Frequency:      2974.26                2983.16                2985.20
 Force Cnst:      5.4386                 5.5820                 5.5472
 Red. Mass:       1.0435                 1.0646                 1.0565
 IR Intens:       32.809                 68.840                 84.607
 Frequency:      3020.53                3025.70                3029.46
 Force Cnst:      5.9168                 5.9590                 5.9496
 Red. Mass:       1.1007                 1.1048                 1.1003
 IR Intens:       82.773                 10.124                 44.672
 Frequency:      3046.51                3048.22                3064.30
 Force Cnst:      5.6330                 5.6386                 5.8789
 Red. Mass:       1.0301                 1.0300                 1.0626
 IR Intens:       19.606                 46.863                 22.654
 Frequency:      3074.64                3085.86                3087.91
 Force Cnst:      5.9212                 6.0860                 6.1322
 Red. Mass:       1.0631                 1.0847                 1.0915
 IR Intens:       32.961                  2.638                 11.036
 Frequency:      3108.93                3112.08                3116.26
 Force Cnst:      6.2826                 6.2630                 6.3313
 Red. Mass:       1.1032                 1.0976                 1.1066
 IR Intens:        1.685                 28.656                 30.311
 Frequency:      3119.70                3120.05                3125.28
 Force Cnst:      6.2875                 6.3474                 6.3481
 Red. Mass:       1.0965                 1.1067                 1.1031
 IR Intens:       23.786                 14.203                 23.645
 Frequency:      3140.41                3156.93                3157.49
 Force Cnst:      6.3199                 6.4939                 6.4948
 Red. Mass:       1.0876                 1.1059                 1.1057
 IR Intens:        8.032                 10.747                 10.369

 STANDARD THERMODYNAMIC QUANTITIES AT   298.15 K  AND     1.00 ATM

   This Molecule has  0 Imaginary Frequencies
   Zero point vibrational energy:      224.954 kcal/mol

   Atom    1 Element C  Has Mass   12.00000
   Atom    2 Element C  Has Mass   12.00000
   Atom    3 Element C  Has Mass   12.00000
   Atom    4 Element C  Has Mass   12.00000
   Atom    5 Element O  Has Mass   15.99491
   Atom    6 Element O  Has Mass   15.99491
   Atom    7 Element O  Has Mass   15.99491
   Atom    8 Element O  Has Mass   15.99491
   Atom    9 Element C  Has Mass   12.00000
   Atom   10 Element C  Has Mass   12.00000
   Atom   11 Element C  Has Mass   12.00000
   Atom   12 Element C  Has Mass   12.00000
   Atom   13 Element C  Has Mass   12.00000
   Atom   14 Element C  Has Mass   12.00000
   Atom   15 Element O  Has Mass   15.99491
   Atom   16 Element H  Has Mass    1.00783
   Atom   17 Element H  Has Mass    1.00783
   Atom   18 Element H  Has Mass    1.00783
   Atom   19 Element H  Has Mass    1.00783
   Atom   20 Element H  Has Mass    1.00783
   Atom   21 Element H  Has Mass    1.00783
   Atom   22 Element H  Has Mass    1.00783
   Atom   23 Element H  Has Mass    1.00783
   Atom   24 Element H  Has Mass    1.00783
   Atom   25 Element H  Has Mass    1.00783
   Atom   26 Element H  Has Mass    1.00783
   Atom   27 Element H  Has Mass    1.00783
   Atom   28 Element C  Has Mass   12.00000
   Atom   29 Element C  Has Mass   12.00000
   Atom   30 Element O  Has Mass   15.99491
   Atom   31 Element H  Has Mass    1.00783
   Atom   32 Element H  Has Mass    1.00783
   Atom   33 Element C  Has Mass   12.00000
   Atom   34 Element H  Has Mass    1.00783
   Atom   35 Element H  Has Mass    1.00783
   Atom   36 Element H  Has Mass    1.00783
   Atom   37 Element O  Has Mass   15.99491
   Atom   38 Element H  Has Mass    1.00783
   Atom   39 Element H  Has Mass    1.00783
   Atom   40 Element C  Has Mass   12.00000
   Atom   41 Element H  Has Mass    1.00783
   Atom   42 Element H  Has Mass    1.00783
   Atom   43 Element H  Has Mass    1.00783
   Molecular Mass:   302.136630 amu
   Principal axes and moments of inertia in amu*Bohr^2:
                             1           2           3
    Eigenvalues --     4236.74099  6509.81606  9312.49521
          X               0.99989    -0.00792     0.01287
          Y               0.00789     0.99997     0.00177
          Z              -0.01289    -0.00167     0.99992
   Rotational Symmetry Number is   1
   The Molecule is an Asymmetric Top
   Translational Enthalpy:        0.889 kcal/mol
   Rotational Enthalpy:           0.889 kcal/mol
   Vibrational Enthalpy:        237.310 kcal/mol
   gas constant (RT):             0.592 kcal/mol
   Translational Entropy:        43.014  cal/mol.K
   Rotational Entropy:           33.906  cal/mol.K
   Vibrational Entropy:          83.465  cal/mol.K

   Total Enthalpy:              239.680 kcal/mol
   Total Entropy:               160.385  cal/mol.K

 Total job time:  21696.73s(wall), 93139.44s(cpu)
        *  Thank you very much for using Q-Chem.  Have a nice day.  *
