 Q-Chem 5.0, Q-Chem, Inc., Pleasanton, CA (2017)
 Q-Chem 5.0.1 for Intel X86 EM64T Linux

User input:
--------------------------------------------------------------
$molecule
0 1
C -0.58539816 -0.96507392 0.30042537
C -0.72976660 0.56860048 0.75885502
C 0.77545096 -1.34694308 -0.27547934
C 0.49431335 1.45833510 0.50919444
O 1.76576924 -1.09744683 0.61158367
O 0.96042745 -1.90640933 -1.32761276
O 1.05791824 1.26158545 -0.69909169
O 0.89799452 2.29519984 1.28174149
C 2.20958338 2.06080629 -1.00770059
C 3.09360853 -1.43841189 0.18146617
C -1.73624976 -1.11182365 -0.77227506
C -1.39116862 -0.26061339 -1.98141157
C -1.52486709 1.01893040 -1.62234513
C -1.95216749 1.04304859 -0.16467925
C -2.83070972 -0.22777043 -0.13642848
C -0.81322914 -1.98620602 1.44248010
C -1.10687818 0.74887130 2.23831914
H 1.95454662 3.12164471 -1.00358289
H 3.33897515 -0.90942466 -0.74100146
H -1.26293363 1.89222633 -2.20372844
H 2.52028841 1.74435741 -2.00138820
H 3.00231179 1.88280008 -0.27906175
H 3.75114289 -1.12720461 0.99022704
H 3.17717135 -2.51265424 0.00903291
H -2.39330203 1.97184499 0.19652048
H -1.98264547 -2.15279227 -0.97672167
H -2.02299476 0.21666803 2.48791512
H -0.31224320 0.39838739 2.89861958
H -1.25807179 1.80746483 2.44895468
H -0.67808446 -2.99799811 1.05059085
H -0.10630212 -1.84307615 2.25859124
H -1.82436838 -1.92288155 1.84285771
H -3.70671146 -0.13455170 -0.77967333
H -3.15207877 -0.53763323 0.85844150
H -0.99490512 -0.64718567 -2.90875132
$end

$rem
sym_ignore      true
jobtype         opt
method          b3lyp
basis           6-311++G(d,p)
dft_d           d3_op
mem_total       62000
MEM_STATIC      4000
ao2mo_disk      350000
max_scf_cycles  200
geom_opt_max_cycles 1000
geom_opt_tol_displacement 1
GEOM_OPT_TOL_GRADIENT       1
GEOM_OPT_TOL_ENERGY         1
$end

--------------------------------------------------------------

   15    -807.3614509394      3.94E-09 Convergence criterion met
 Total energy in the final basis set = -807.36145094
   12    -807.3613933946      4.26E-09 Convergence criterion met
 Total energy in the final basis set = -807.36139339
   11    -807.3614855310      8.15E-09 Convergence criterion met
 Total energy in the final basis set = -807.36148553
   12    -807.3614053442      7.19E-09 Convergence criterion met
 Total energy in the final basis set = -807.36140534
   12    -807.3614266617      5.74E-09 Convergence criterion met
 Total energy in the final basis set = -807.36142666
   13    -807.3607749100      3.87E-09 Convergence criterion met
 Total energy in the final basis set = -807.36077491
   13    -807.3614356216      3.88E-09 Convergence criterion met
 Total energy in the final basis set = -807.36143562
   13    -807.3610666047      3.41E-09 Convergence criterion met
    7    -807.3615087961      6.64E-09 Convergence criterion met
 Total energy in the final basis set = -807.36150880
    7    -807.3615087228      6.66E-09 Convergence criterion met
 Total energy in the final basis set = -807.36150872
    7    -807.3615087957      6.71E-09 Convergence criterion met
 Total energy in the final basis set = -807.36150880
    7    -807.3615087217      6.78E-09 Convergence criterion met
 Total energy in the final basis set = -807.36150872
    6    -807.3615087546      5.31E-09 Convergence criterion met
 Total energy in the final basis set = -807.36150875
    2    -807.3615087596      5.45E-09 Convergence criterion met
 Total energy in the final basis set = -807.36150876
 Final energy is   -807.361508759577
 **  OPTIMIZATION CONVERGED  **
 Total job time:  8693.77s(wall), 127002.53s(cpu)
        *  Thank you very much for using Q-Chem.  Have a nice day.  *

User input: 2 of 2

r0215.ten.osc.edu 10.25.156
Q-Chem Developer Version! Running on 10.25.156.*
                  Welcome to Q-Chem
     A Quantum Leap Into The Future Of Chemistry

 Q-Chem 5.0, Q-Chem, Inc., Pleasanton, CA (2017)

 Yihan Shao,  Zhengting Gan,  E. Epifanovsky,  A. T. B. Gilbert,  M. Wormit,
 J. Kussmann,  A. W. Lange,  A. Behn,  Jia Deng,  Xintian Feng,  D. Ghosh,
 M. Goldey,  P. R. Horn,  L. D. Jacobson,  I. Kaliman,  T. Kus,  A. Landau,
 Jie Liu,  E. I. Proynov,  R. M. Richard,  R. P. Steele,  E. J. Sundstrom,
 H. L. Woodcock III,  P. M. Zimmerman,  D. Zuev,  B. Albrecht,  E. Alguire,
 S. A. Baeppler,  Z. Benda,  Y. A. Bernard,  E. J. Berquist,  K. B. Bravaya,
 D. Casanova,  Chun-Min Chang,  Yunqing Chen,  A. Chien,  K. D. Closser,
 M. P. Coons,  S. Dasgupta,  M. Diedenhofen,  Hainam Do,  R. G. Edgar,
 Po-Tung Fang,  S. Fatehi,  Qingguo Feng,  Qinghui Ge,  A. Ghysels,
 J. Gomes,  J. Gonthier,  A. Gunina,  M. W. D. Hanson-Heine,
 P. H. P. Harbach,  A. W. Hauser,  J. E. Herr,  E. G. Hohenstein,
 Z. C. Holden,  Kerwin Hui,  T.-C. Jagau,  Hyunjun Ji,  B. Kaduk,
 K. Khistyaev,  Jaehoon Kim,  P. Klunzinger,  K. Koh,  D. Kosenkov,
 T. Kowalczyk,  C. M. Krauter,  A. Kunitsa,  Ka Un Lao,  A. Laurent,
 K. V. Lawler,  Joonho Lee,  D. Lefrancois,  S. Lehtola,  D. S. Levine,
 Yi-Pei Li,  You-Sheng Lin,  Fenglai Liu,  E. Livshits,  A. Luenser,
 P. Manohar,  E. Mansoor,  S. F. Manzer,  Shan-Ping Mao,  Yuezhi Mao,
 N. Mardirossian,  A. V. Marenich,  L. A. Martinez-Martinez,  S. A. Maurer,
 N. J. Mayhall,  S. C. McKenzie,  J.-M. Mewes,  A. F. Morrison,  K. Nanda,
 T. S. Nguyen-Beck,  R. Olivares-Amaya,  J. A. Parkhill,  T. M. Perrine,
 F. Plasser,  S. Prager,  A. Prociuk,  D. R. Rehn,  F. Rob,  M. Schneider,
 N. Sergueev,  S. M. Sharada,  S. Sharma,  D. W. Small,  T. Stauch,
 T. Stein,  Yu-Chuan Su,  A. J. W. Thom,  T. Tsuchimochi,  L. Vogt,
 O. Vydrov,  M. A. Watson,  J. Wenzel,  M. de Wergifosse,  T. A. Wesolowski,
 A. White,  J. Witte,  A. Yamada,  Jun Yang,  K. Yao,  S. Yeganeh,
 S. R. Yost,  Zhi-Qiang You,  A. Zech,  Igor Ying Zhang,  Xing Zhang,
 Yan Zhao,  Ying Zhu,  B. R. Brooks,  G. K. L. Chan,  C. J. Cramer,
 M. S. Gordon,  W. J. Hehre,  A. Klamt,  M. W. Schmidt,  C. D. Sherrill,
 D. G. Truhlar,  A. Aspuru-Guzik,  R. Baer,  A. T. Bell,  N. A. Besley,
 Jeng-Da Chai,  A. Dreuw,  B. D. Dunietz,  T. R. Furlani,  Chao-Ping Hsu,
 Yousung Jung,  Jing Kong,  D. S. Lambrecht,  WanZhen Liang,  C. Ochsenfeld,
 V. A. Rassolov,  L. V. Slipchenko,  J. E. Subotnik,  T. Van Voorhis,
 J. M. Herbert,  A. I. Krylov,  P. M. W. Gill,  M. Head-Gordon

 Contributors to earlier versions of Q-Chem not listed above:
 R. D. Adamson,  B. Austin,  J. Baker,  G. J. O. Beran,  K. Brandhorst,
 S. T. Brown,  E. F. C. Byrd,  A. K. Chakraborty,  C.-L. Cheng,
 Siu Hung Chien,  D. M. Chipman,  D. L. Crittenden,  H. Dachsel,
 R. A. DiStasio Jr.,  R. J. Doerksen,  A. D. Dutoi,  L. Fusti-Molnar,
 W. A. Goddard III,  A. Golubeva-Zadorozhnaya,  S. R. Gwaltney,  G. Hawkins,
 A. Heyden,  S. Hirata,  G. Kedziora,  F. J. Keil,  C. Kelley,  Jihan Kim,
 R. A. King,  R. Z. Khaliullin,  P. P. Korambath,  W. Kurlancheek,
 A. M. Lee,  M. S. Lee,  S. V. Levchenko,  Ching Yeh Lin,  D. Liotard,
 R. C. Lochan,  I. Lotan,  P. E. Maslen,  N. Nair,  D. P. O'Neill,
 D. Neuhauser,  E. Neuscamman,  C. M. Oana,  R. Olson,  B. Peters,
 R. Peverati,  P. A. Pieniazek,  Y. M. Rhee,  J. Ritchie,  M. A. Rohrdanz,
 E. Rosta,  N. J. Russ,  H. F. Schaefer III,  N. E. Schultz,  N. Shenvi,
 A. C. Simmonett,  A. Sodt,  D. Stuck,  K. S. Thanthiriwatte,  V. Vanovschi,
 Tao Wang,  A. Warshel,  C. F. Williams,  Q. Wu,  X. Xu,  W. Zhang

 Please cite Q-Chem as follows:
 Y. Shao et al., Mol. Phys. 113, 184-215 (2015)
 DOI: 10.1080/00268976.2014.952696

 Q-Chem 5.0.1 for Intel X86 EM64T Linux

 Parts of Q-Chem use Armadillo 5.200.1 (Boston Tea Smuggler).
 http://arma.sourceforge.net/

 Q-Chem begins on Tue Oct 24 10:01:54 2017

Host: r0215.ten.osc.edu
0

     Scratch files written to /tmp/pbstmp.1324372/02//
Processing $rem in /users/PAS0291/osu6415/.qchemrc.
molden_format             true
The previous job contains 0 fragments, simply inherited here

Checking the input file for inconsistencies... 	...done.

--------------------------------------------------------------
User input:
--------------------------------------------------------------

$molecule
read
$end

$rem
sym_ignore      true
scf_guess       read
jobtype         freq
method          b3lyp
basis           6-311++G(d,p)
dft_d           d3_op
mem_total       62000
MEM_STATIC      4000
ao2mo_disk      350000
max_scf_cycles  200
$end
--------------------------------------------------------------

             Standard Nuclear Orientation (Angstroms)
    I     Atom           X                Y                Z
 ----------------------------------------------------------------
    1      C      -0.5836185157    -0.9645660269     0.3034137407
    2      C      -0.7316216977     0.5714899485     0.7567452774
    3      C       0.7766715474    -1.3399534526    -0.2791559202
    4      C       0.4941879948     1.4596180588     0.5100453179
    5      O       1.7650492661    -1.1206441496     0.6181337812
    6      O       0.9653266783    -1.8580074533    -1.3514931740
    7      O       1.0588130964     1.2629110135    -0.6974257760
    8      O       0.9016250154     2.2914271591     1.2861688306
    9      C       2.2107205947     2.0620440931    -1.0059061718
   10      C       3.0934577764    -1.4500495407     0.1807650148
   11      C      -1.7354173050    -1.1140779571    -0.7690645250
   12      C      -1.3929298655    -0.2650354850    -1.9808939437
   13      C      -1.5278085427     1.0151309154    -1.6247213761
   14      C      -1.9539409566     1.0417409511    -0.1670062897
   15      C      -2.8309913821    -0.2302317845    -0.1350686392
   16      C      -0.8092530443    -1.9826570567     1.4475752365
   17      C      -1.1102393715     0.7533458168     2.2359369697
   18      H       1.9531898567     3.1223155208    -1.0103510872
   19      H       3.3426140447    -0.8921638030    -0.7234566574
   20      H      -1.2691481003     1.8875973264    -2.2087978537
   21      H       2.5262420358     1.7395393314    -1.9961174303
   22      H       3.0004208080     1.8908692411    -0.2724766207
   23      H       3.7493309885    -1.1664801443     1.0009593220
   24      H       3.1752737966    -2.5183374339    -0.0259315266
   25      H      -2.3960049692     1.9707140644     0.1927262366
   26      H      -1.9804247982    -2.1558906050    -0.9715767771
   27      H      -2.0281394135     0.2237443706     2.4845361215
   28      H      -0.3176609450     0.4013589084     2.8978227402
   29      H      -1.2589114870     1.8124781461     2.4457653530
   30      H      -0.6695006201    -2.9952947628     1.0592098621
   31      H      -0.1041939311    -1.8348801076     2.2643247348
   32      H      -1.8213899152    -1.9223109304     1.8459259502
   33      H      -3.7072653671    -0.1397556579    -0.7782434970
   34      H      -3.1513220503    -0.5380500067     0.8607619280
   35      H      -0.9987152917    -0.6532680176    -2.9082455715
 ----------------------------------------------------------------

    3    -807.3615087617      1.73E-09 Convergence criterion met
 Total energy in the final basis set = -807.36150876

                    Orbital Energies (a.u.)
 --------------------------------------------------------------

 Alpha MOs
 -- Occupied --
-19.171 -19.170 -19.114 -19.113 -10.303 -10.302 -10.230 -10.230
-10.213 -10.212 -10.192 -10.186 -10.175 -10.173 -10.165 -10.164
-10.162  -1.117  -1.110  -1.026  -1.024  -0.898  -0.806  -0.778
 -0.743  -0.729  -0.710  -0.688  -0.669  -0.612  -0.588  -0.563
 -0.556  -0.539  -0.533  -0.516  -0.504  -0.490  -0.482  -0.472
 -0.459  -0.457  -0.446  -0.428  -0.421  -0.411  -0.408  -0.399
 -0.396  -0.383  -0.381  -0.376  -0.372  -0.358  -0.356  -0.352
 -0.342  -0.332  -0.318  -0.317  -0.308  -0.282  -0.277  -0.243

          Ground-State Mulliken Net Atomic Charges

     Atom                 Charge (a.u.)
  ----------------------------------------
      1 C                     0.076067
      2 C                    -0.105338
      3 C                    -0.643213
      4 C                    -0.483345
      5 O                     0.019870
      6 O                    -0.142062
      7 O                    -0.040136
      8 O                    -0.173991
      9 C                    -0.242281
     10 C                    -0.188876
     11 C                     0.440234
     12 C                    -0.527436
     13 C                    -0.301099
     14 C                     0.225933
     15 C                    -0.689193
     16 C                    -0.190717
     17 C                    -0.221669
     18 H                     0.186147
     19 H                     0.186606
     20 H                     0.137613
     21 H                     0.173865
     22 H                     0.192675
     23 H                     0.159491
     24 H                     0.177292
     25 H                     0.260283
     26 H                     0.257923
     27 H                     0.116485
     28 H                     0.200264
     29 H                     0.196442
     30 H                     0.187948
     31 H                     0.154243
     32 H                     0.150055
     33 H                     0.190729
     34 H                     0.096545
     35 H                     0.162644
  ----------------------------------------
  Sum of atomic charges =    -0.000000

                    Cartesian Multipole Moments
 -----------------------------------------------------------------
    Charge (ESU x 10^10)
                -0.0000
    Dipole Moment (Debye)
         X       0.3822      Y      -0.4433      Z       0.1209
       Tot       0.5977
    Quadrupole Moments (Debye-Ang)
        XX     -91.7768     XY      -0.0672     YY    -104.7758
        XZ      -3.9475     YZ     -10.1392     ZZ    -106.7226

 Frequency:        33.34                  81.48                  88.69
 Force Cnst:      0.0031                 0.0140                 0.0149
 Red. Mass:       4.6946                 3.5715                 3.2089
 IR Intens:        1.156                  2.186                  0.822
 Frequency:        93.52                 120.03                 138.08
 Force Cnst:      0.0162                 0.0207                 0.0162
 Red. Mass:       3.1454                 2.4355                 1.4397
 IR Intens:        1.460                  0.242                  0.159
 Frequency:       144.51                 154.23                 200.36
 Force Cnst:      0.0157                 0.0478                 0.0908
 Red. Mass:       1.2795                 3.4109                 3.8403
 IR Intens:        0.155                  1.754                  2.160
 Frequency:       234.15                 250.29                 258.93
 Force Cnst:      0.1150                 0.0401                 0.2027
 Red. Mass:       3.5593                 1.0863                 5.1309
 IR Intens:        4.336                  0.718                  1.190
 Frequency:       272.39                 305.03                 320.92
 Force Cnst:      0.1641                 0.2389                 0.1222
 Red. Mass:       3.7531                 4.3574                 2.0146
 IR Intens:        7.612                  3.545                  3.170
 Frequency:       324.80                 330.88                 353.42
 Force Cnst:      0.1298                 0.1231                 0.2270
 Red. Mass:       2.0885                 1.9084                 3.0842
 IR Intens:        0.483                  3.024                  0.240
 Frequency:       371.94                 396.82                 400.32
 Force Cnst:      0.2948                 0.3001                 0.4145
 Red. Mass:       3.6173                 3.2344                 4.3901
 IR Intens:        4.860                  3.561                 10.128
 Frequency:       441.72                 457.82                 525.46
 Force Cnst:      0.4067                 0.4966                 0.5459
 Red. Mass:       3.5379                 4.0217                 3.3558
 IR Intens:        0.166                  6.154                  3.349
 Frequency:       555.06                 608.58                 701.99
 Force Cnst:      0.4416                 0.7348                 0.9277
 Red. Mass:       2.4326                 3.3671                 3.1952
 IR Intens:        2.887                  4.476                 11.956
 Frequency:       740.73                 743.74                 768.48
 Force Cnst:      0.7704                 1.3184                 1.4931
 Red. Mass:       2.3830                 4.0455                 4.2911
 IR Intens:       25.226                  6.382                  6.856
 Frequency:       777.30                 806.16                 826.10
 Force Cnst:      1.6291                 1.6285                 2.1124
 Red. Mass:       4.5763                 4.2529                 5.2537
 IR Intens:        2.737                  8.768                  0.851
 Frequency:       863.80                 883.42                 891.54
 Force Cnst:      1.5151                 1.1948                 1.1150
 Red. Mass:       3.4465                 2.5984                 2.3810
 IR Intens:       10.103                 30.778                  5.865
 Frequency:       909.38                 923.84                 932.79
 Force Cnst:      1.2901                 1.0939                 1.1317
 Red. Mass:       2.6479                 2.1753                 2.2075
 IR Intens:        0.663                  5.197                  3.086
 Frequency:       953.52                 984.49                 990.35
 Force Cnst:      0.7880                 1.4661                 0.9032
 Red. Mass:       1.4710                 2.5674                 1.5630
 IR Intens:        6.493                  0.445                  1.459
 Frequency:      1000.41                1011.97                1043.23
 Force Cnst:      2.5519                 2.1922                 1.1058
 Red. Mass:       4.3277                 3.6333                 1.7246
 IR Intens:        7.380                 13.908                  2.978
 Frequency:      1070.37                1094.69                1108.08
 Force Cnst:      1.8501                 1.5335                 1.1653
 Red. Mass:       2.7408                 2.1719                 1.6108
 IR Intens:        3.856                 25.556                  4.247
 Frequency:      1130.51                1139.20                1153.35
 Force Cnst:      1.0618                 1.9789                 2.0454
 Red. Mass:       1.4101                 2.5880                 2.6098
 IR Intens:        5.238                124.571                 67.654
 Frequency:      1158.42                1166.97                1172.00
 Force Cnst:      1.4734                 1.0345                 1.3822
 Red. Mass:       1.8635                 1.2893                 1.7079
 IR Intens:       22.916                  2.178                 28.259
 Frequency:      1174.71                1199.07                1209.57
 Force Cnst:      1.0401                 1.7175                 1.3525
 Red. Mass:       1.2793                 2.0275                 1.5690
 IR Intens:        1.019                  5.859                  2.596
 Frequency:      1211.15                1246.37                1280.14
 Force Cnst:      1.4457                 4.0232                 2.8278
 Red. Mass:       1.6727                 4.3957                 2.9288
 IR Intens:       27.951                392.874                 48.112
 Frequency:      1283.86                1289.71                1292.31
 Force Cnst:      1.5225                 1.3929                 1.5593
 Red. Mass:       1.5677                 1.4213                 1.5847
 IR Intens:        1.996                  1.971                  6.197
 Frequency:      1306.52                1357.64                1410.23
 Force Cnst:      1.9128                 1.9172                 1.4043
 Red. Mass:       1.9019                 1.7654                 1.1985
 IR Intens:       21.183                  7.449                  3.536
 Frequency:      1428.52                1464.00                1468.41
 Force Cnst:      1.4472                 1.5083                 1.4927
 Red. Mass:       1.2037                 1.1944                 1.1750
 IR Intens:       13.085                  7.731                 12.481
 Frequency:      1479.98                1482.29                1489.57
 Force Cnst:      1.3482                 1.3537                 1.3656
 Red. Mass:       1.0447                 1.0457                 1.0446
 IR Intens:        5.585                  8.065                 11.523
 Frequency:      1494.03                1498.97                1505.21
 Force Cnst:      1.3744                 1.4017                 1.4020
 Red. Mass:       1.0450                 1.0588                 1.0503
 IR Intens:       14.920                  3.384                  5.905
 Frequency:      1507.11                1516.74                1529.26
 Force Cnst:      1.4482                 1.4226                 1.4679
 Red. Mass:       1.0822                 1.0496                 1.0653
 IR Intens:        0.088                  1.447                 28.037
 Frequency:      1639.52                1766.57                1784.50
 Force Cnst:      9.0007                20.8565                22.2701
 Red. Mass:       5.6833                11.3430                11.8697
 IR Intens:        2.619                290.938                199.222
 Frequency:      3045.45                3046.78                3048.92
 Force Cnst:      5.6852                 5.6309                 5.6398
 Red. Mass:       1.0404                 1.0295                 1.0297
 IR Intens:       18.909                 18.916                 49.516
 Frequency:      3062.57                3073.31                3105.73
 Force Cnst:      5.7338                 5.8908                 6.1852
 Red. Mass:       1.0376                 1.0585                 1.0884
 IR Intens:       11.387                 31.046                 25.930
 Frequency:      3111.13                3113.52                3117.53
 Force Cnst:      6.2367                 6.2282                 6.3372
 Red. Mass:       1.0936                 1.0905                 1.1067
 IR Intens:       18.886                 25.617                 30.987
 Frequency:      3118.41                3120.30                3124.97
 Force Cnst:      6.3367                 6.3473                 6.3359
 Red. Mass:       1.1060                 1.1065                 1.1012
 IR Intens:       41.293                  8.193                 12.322
 Frequency:      3137.17                3146.98                3152.80
 Force Cnst:      6.3921                 6.4270                 6.4788
 Red. Mass:       1.1023                 1.1015                 1.1062
 IR Intens:        9.210                 30.471                  9.421
 Frequency:      3155.29                3204.51                3236.21
 Force Cnst:      6.4888                 6.5910                 6.8110
 Red. Mass:       1.1062                 1.0894                 1.1038
 IR Intens:       12.214                  6.798                  6.487

 STANDARD THERMODYNAMIC QUANTITIES AT   298.15 K  AND     1.00 ATM

   This Molecule has  0 Imaginary Frequencies
   Zero point vibrational energy:      184.196 kcal/mol

   Atom    1 Element C  Has Mass   12.00000
   Atom    2 Element C  Has Mass   12.00000
   Atom    3 Element C  Has Mass   12.00000
   Atom    4 Element C  Has Mass   12.00000
   Atom    5 Element O  Has Mass   15.99491
   Atom    6 Element O  Has Mass   15.99491
   Atom    7 Element O  Has Mass   15.99491
   Atom    8 Element O  Has Mass   15.99491
   Atom    9 Element C  Has Mass   12.00000
   Atom   10 Element C  Has Mass   12.00000
   Atom   11 Element C  Has Mass   12.00000
   Atom   12 Element C  Has Mass   12.00000
   Atom   13 Element C  Has Mass   12.00000
   Atom   14 Element C  Has Mass   12.00000
   Atom   15 Element C  Has Mass   12.00000
   Atom   16 Element C  Has Mass   12.00000
   Atom   17 Element C  Has Mass   12.00000
   Atom   18 Element H  Has Mass    1.00783
   Atom   19 Element H  Has Mass    1.00783
   Atom   20 Element H  Has Mass    1.00783
   Atom   21 Element H  Has Mass    1.00783
   Atom   22 Element H  Has Mass    1.00783
   Atom   23 Element H  Has Mass    1.00783
   Atom   24 Element H  Has Mass    1.00783
   Atom   25 Element H  Has Mass    1.00783
   Atom   26 Element H  Has Mass    1.00783
   Atom   27 Element H  Has Mass    1.00783
   Atom   28 Element H  Has Mass    1.00783
   Atom   29 Element H  Has Mass    1.00783
   Atom   30 Element H  Has Mass    1.00783
   Atom   31 Element H  Has Mass    1.00783
   Atom   32 Element H  Has Mass    1.00783
   Atom   33 Element H  Has Mass    1.00783
   Atom   34 Element H  Has Mass    1.00783
   Atom   35 Element H  Has Mass    1.00783
   Molecular Mass:   238.120580 amu
   Principal axes and moments of inertia in amu*Bohr^2:
                             1           2           3
    Eigenvalues --     2839.01860  3425.73860  4004.52717
          X               0.99980     0.00688    -0.01853
          Y              -0.00886     0.99401    -0.10891
          Z               0.01766     0.10905     0.99388
   Rotational Symmetry Number is   1
   The Molecule is an Asymmetric Top
   Translational Enthalpy:        0.889 kcal/mol
   Rotational Enthalpy:           0.889 kcal/mol
   Vibrational Enthalpy:        192.888 kcal/mol
   gas constant (RT):             0.592 kcal/mol
   Translational Entropy:        42.304  cal/mol.K
   Rotational Entropy:           32.032  cal/mol.K
   Vibrational Entropy:          53.674  cal/mol.K

   Total Enthalpy:              195.258 kcal/mol
   Total Entropy:               128.010  cal/mol.K

 Total job time:  12177.21s(wall), 44608.22s(cpu)
        *  Thank you very much for using Q-Chem.  Have a nice day.  *
