 Q-Chem 5.0, Q-Chem, Inc., Pleasanton, CA (2017)
 Q-Chem 5.0.1 for Intel X86 EM64T Linux

User input:
--------------------------------------------------------------
$molecule
0 1
C 0.89133284 -0.72476776 -0.46814613
C 0.49930186 0.83061593 -0.67171951
C -0.15886090 -1.69344506 0.08669408
C -0.99904928 1.15902660 -0.57758459
O -1.42908965 -1.28251186 -0.03563915
O 0.13716821 -2.77735253 0.53487727
O -1.39247435 1.54981271 0.65078167
O -1.75057025 1.14567415 -1.52277421
C -2.79410061 1.82644488 0.79752729
C -2.45059268 -2.20359474 0.38759998
C 2.04295362 -0.63146040 0.62257324
C 1.36749357 -0.25812307 1.93386753
C 0.97218113 1.01277737 1.82435588
C 1.39046870 1.51234582 0.44618846
C 2.70524685 0.71240866 0.27422831
C 1.39602839 -1.40762723 -1.75764587
C 0.90694591 1.38377463 -2.05805259
H -3.09520167 2.65364454 0.15277087
H -2.37827615 -2.38365786 1.46110535
H 0.38314653 1.58191368 2.52746408
H -2.93157387 2.08639264 1.84521304
H -3.38134635 0.94353061 0.54054868
H -3.39297278 -1.72077914 0.13830839
H -2.35239601 -3.15038359 -0.14464996
H 1.44138954 2.59479011 0.32840449
H 2.66491190 -1.52381575 0.63550371
H 1.96533364 1.24767839 -2.26760851
H 0.32716804 0.91694932 -2.85227051
H 0.69687131 2.45595928 -2.09091572
H 1.66232521 -2.44187374 -1.53520386
H 0.62784446 -1.41220173 -2.53485290
H 2.27907856 -0.90872028 -2.15608128
H 3.46083135 0.99832981 1.00715288
H 3.14061699 0.75489244 -0.72373824
H 1.16001477 -0.95105073 2.73771935
$end

$rem
sym_ignore      true
jobtype         ts
method          b3lyp
basis           6-311++G(d,p)
dft_d           d3_op
mem_total       62000
MEM_STATIC      4000
ao2mo_disk      350000
max_scf_cycles  200
geom_opt_max_cycles 1000
geom_opt_tol_displacement 1
GEOM_OPT_TOL_GRADIENT       1
GEOM_OPT_TOL_ENERGY         1
$end

--------------------------------------------------------------

   15    -807.3556632654      3.87E-09 Convergence criterion met
 Total energy in the final basis set = -807.35566327
   11    -807.3554442285      4.70E-09 Convergence criterion met
 Total energy in the final basis set = -807.35544423
   11    -807.3552179752      9.30E-09 Convergence criterion met
 Total energy in the final basis set = -807.35521798
   13    -807.3547802574      3.84E-09 Convergence criterion met
 Total energy in the final basis set = -807.35478026
   12    -807.3544356000      8.75E-09 Convergence criterion met
 Total energy in the final basis set = -807.35443560
   12    -807.3552588187      6.37E-09 Convergence criterion met
 Total energy in the final basis set = -807.35525882
   13    -807.3555543307      4.30E-09 Convergence criterion met
 Total energy in the final basis set = -807.35555433
   12    -807.3555466576      5.75E-09 Convergence criterion met
    7    -807.3557408850      8.95E-09 Convergence criterion met
 Total energy in the final basis set = -807.35574089
    8    -807.3557404819      4.11E-09 Convergence criterion met
 Total energy in the final basis set = -807.35574048
    8    -807.3557409047      3.44E-09 Convergence criterion met
 Total energy in the final basis set = -807.35574090
    5    -807.3557409516      7.89E-09 Convergence criterion met
 Total energy in the final basis set = -807.35574095
    5    -807.3557409831      4.86E-09 Convergence criterion met
 Total energy in the final basis set = -807.35574098
    4    -807.3557409906      5.74E-09 Convergence criterion met
 Total energy in the final basis set = -807.35574099
 Final energy is   -807.355740990620
 **  OPTIMIZATION CONVERGED  **
 Total job time:  6988.21s(wall), 103878.58s(cpu)
        *  Thank you very much for using Q-Chem.  Have a nice day.  *

User input: 2 of 2

r0062.ten.osc.edu 10.25.152
Q-Chem Developer Version! Running on 10.25.152.*
                  Welcome to Q-Chem
     A Quantum Leap Into The Future Of Chemistry

 Q-Chem 5.0, Q-Chem, Inc., Pleasanton, CA (2017)

 Yihan Shao,  Zhengting Gan,  E. Epifanovsky,  A. T. B. Gilbert,  M. Wormit,
 J. Kussmann,  A. W. Lange,  A. Behn,  Jia Deng,  Xintian Feng,  D. Ghosh,
 M. Goldey,  P. R. Horn,  L. D. Jacobson,  I. Kaliman,  T. Kus,  A. Landau,
 Jie Liu,  E. I. Proynov,  R. M. Richard,  R. P. Steele,  E. J. Sundstrom,
 H. L. Woodcock III,  P. M. Zimmerman,  D. Zuev,  B. Albrecht,  E. Alguire,
 S. A. Baeppler,  Z. Benda,  Y. A. Bernard,  E. J. Berquist,  K. B. Bravaya,
 D. Casanova,  Chun-Min Chang,  Yunqing Chen,  A. Chien,  K. D. Closser,
 M. P. Coons,  S. Dasgupta,  M. Diedenhofen,  Hainam Do,  R. G. Edgar,
 Po-Tung Fang,  S. Fatehi,  Qingguo Feng,  Qinghui Ge,  A. Ghysels,
 J. Gomes,  J. Gonthier,  A. Gunina,  M. W. D. Hanson-Heine,
 P. H. P. Harbach,  A. W. Hauser,  J. E. Herr,  E. G. Hohenstein,
 Z. C. Holden,  Kerwin Hui,  T.-C. Jagau,  Hyunjun Ji,  B. Kaduk,
 K. Khistyaev,  Jaehoon Kim,  P. Klunzinger,  K. Koh,  D. Kosenkov,
 T. Kowalczyk,  C. M. Krauter,  A. Kunitsa,  Ka Un Lao,  A. Laurent,
 K. V. Lawler,  Joonho Lee,  D. Lefrancois,  S. Lehtola,  D. S. Levine,
 Yi-Pei Li,  You-Sheng Lin,  Fenglai Liu,  E. Livshits,  A. Luenser,
 P. Manohar,  E. Mansoor,  S. F. Manzer,  Shan-Ping Mao,  Yuezhi Mao,
 N. Mardirossian,  A. V. Marenich,  L. A. Martinez-Martinez,  S. A. Maurer,
 N. J. Mayhall,  S. C. McKenzie,  J.-M. Mewes,  A. F. Morrison,  K. Nanda,
 T. S. Nguyen-Beck,  R. Olivares-Amaya,  J. A. Parkhill,  T. M. Perrine,
 F. Plasser,  S. Prager,  A. Prociuk,  D. R. Rehn,  F. Rob,  M. Schneider,
 N. Sergueev,  S. M. Sharada,  S. Sharma,  D. W. Small,  T. Stauch,
 T. Stein,  Yu-Chuan Su,  A. J. W. Thom,  T. Tsuchimochi,  L. Vogt,
 O. Vydrov,  M. A. Watson,  J. Wenzel,  M. de Wergifosse,  T. A. Wesolowski,
 A. White,  J. Witte,  A. Yamada,  Jun Yang,  K. Yao,  S. Yeganeh,
 S. R. Yost,  Zhi-Qiang You,  A. Zech,  Igor Ying Zhang,  Xing Zhang,
 Yan Zhao,  Ying Zhu,  B. R. Brooks,  G. K. L. Chan,  C. J. Cramer,
 M. S. Gordon,  W. J. Hehre,  A. Klamt,  M. W. Schmidt,  C. D. Sherrill,
 D. G. Truhlar,  A. Aspuru-Guzik,  R. Baer,  A. T. Bell,  N. A. Besley,
 Jeng-Da Chai,  A. Dreuw,  B. D. Dunietz,  T. R. Furlani,  Chao-Ping Hsu,
 Yousung Jung,  Jing Kong,  D. S. Lambrecht,  WanZhen Liang,  C. Ochsenfeld,
 V. A. Rassolov,  L. V. Slipchenko,  J. E. Subotnik,  T. Van Voorhis,
 J. M. Herbert,  A. I. Krylov,  P. M. W. Gill,  M. Head-Gordon

 Contributors to earlier versions of Q-Chem not listed above:
 R. D. Adamson,  B. Austin,  J. Baker,  G. J. O. Beran,  K. Brandhorst,
 S. T. Brown,  E. F. C. Byrd,  A. K. Chakraborty,  C.-L. Cheng,
 Siu Hung Chien,  D. M. Chipman,  D. L. Crittenden,  H. Dachsel,
 R. A. DiStasio Jr.,  R. J. Doerksen,  A. D. Dutoi,  L. Fusti-Molnar,
 W. A. Goddard III,  A. Golubeva-Zadorozhnaya,  S. R. Gwaltney,  G. Hawkins,
 A. Heyden,  S. Hirata,  G. Kedziora,  F. J. Keil,  C. Kelley,  Jihan Kim,
 R. A. King,  R. Z. Khaliullin,  P. P. Korambath,  W. Kurlancheek,
 A. M. Lee,  M. S. Lee,  S. V. Levchenko,  Ching Yeh Lin,  D. Liotard,
 R. C. Lochan,  I. Lotan,  P. E. Maslen,  N. Nair,  D. P. O'Neill,
 D. Neuhauser,  E. Neuscamman,  C. M. Oana,  R. Olson,  B. Peters,
 R. Peverati,  P. A. Pieniazek,  Y. M. Rhee,  J. Ritchie,  M. A. Rohrdanz,
 E. Rosta,  N. J. Russ,  H. F. Schaefer III,  N. E. Schultz,  N. Shenvi,
 A. C. Simmonett,  A. Sodt,  D. Stuck,  K. S. Thanthiriwatte,  V. Vanovschi,
 Tao Wang,  A. Warshel,  C. F. Williams,  Q. Wu,  X. Xu,  W. Zhang

 Please cite Q-Chem as follows:
 Y. Shao et al., Mol. Phys. 113, 184-215 (2015)
 DOI: 10.1080/00268976.2014.952696

 Q-Chem 5.0.1 for Intel X86 EM64T Linux

 Parts of Q-Chem use Armadillo 5.200.1 (Boston Tea Smuggler).
 http://arma.sourceforge.net/

 Q-Chem begins on Tue Oct 24 09:43:42 2017

Host: r0062.ten.osc.edu
0

     Scratch files written to /tmp/pbstmp.1324373/03//
Processing $rem in /users/PAS0291/osu6415/.qchemrc.
molden_format             true
The previous job contains 0 fragments, simply inherited here

Checking the input file for inconsistencies... 	...done.

--------------------------------------------------------------
User input:
--------------------------------------------------------------

$molecule
read
$end

$rem
sym_ignore      true
scf_guess       read
jobtype         freq
method          b3lyp
basis           6-311++G(d,p)
dft_d           d3_op
mem_total       62000
MEM_STATIC      4000
ao2mo_disk      350000
max_scf_cycles  200
$end
--------------------------------------------------------------

             Standard Nuclear Orientation (Angstroms)
    I     Atom           X                Y                Z
 ----------------------------------------------------------------
    1      C       0.8958956749    -0.7395935362    -0.5176651612
    2      C       0.4911925696     0.8155080226    -0.6678419081
    3      C      -0.1382017428    -1.7354220638     0.0242226908
    4      C      -1.0115632152     1.1197137735    -0.6079425525
    5      O      -1.3933234535    -1.2760160158     0.1129814800
    6      O       0.1655206373    -2.8654987742     0.3326589931
    7      O      -1.4080113582     1.6494902829     0.5666572928
    8      O      -1.7596483795     0.9901370742    -1.5471582128
    9      C      -2.8103455195     1.9399192019     0.6774080707
   10      C      -2.3896370191    -2.2056662243     0.5757330665
   11      C       2.0347918957    -0.6663879633     0.5964185430
   12      C       1.3296237726    -0.3513653460     1.9084250601
   13      C       0.9117675876     0.9153474512     1.8363725957
   14      C       1.3489016108     1.4712495469     0.4868417560
   15      C       2.6798786112     0.6991968220     0.3099868938
   16      C       1.4230949222    -1.3717372858    -1.8206965607
   17      C       0.9156816948     1.4262926949    -2.0279629612
   18      H      -3.1144406589     2.6717570403    -0.0725887075
   19      H      -2.1983294982    -2.4818653265     1.6136859467
   20      H       0.2958288988     1.4472842914     2.5457149922
   21      H      -2.9474907012     2.3385444220     1.6805971771
   22      H      -3.3956038974     1.0288049572     0.5431033624
   23      H      -3.3375901072    -1.6800502552     0.4844948288
   24      H      -2.3868243555    -3.1031231721    -0.0434125726
   25      H       1.3843284747     2.5575704647     0.4096118622
   26      H       2.6682880375    -1.5506721527     0.5859975087
   27      H       1.9798216775     1.3140670187    -2.2216828342
   28      H       0.3586912226     0.9772089821    -2.8485400016
   29      H       0.6891999469     2.4960043035    -2.0250996165
   30      H       1.6894817033    -2.4123268283    -1.6334339737
   31      H       0.6644826425    -1.3486339025    -2.6068756224
   32      H       2.3083692884    -0.8528752852    -2.1865599323
   33      H       3.4174811524     0.9691722442     1.0669466522
   34      H       3.1326175479     0.7860250585    -0.6771862797
   35      H       1.1182191671    -1.0764634209     2.6827896440
 ----------------------------------------------------------------

    2    -807.3557409914      5.30E-09 Convergence criterion met
 Total energy in the final basis set = -807.35574099

                    Orbital Energies (a.u.)
 --------------------------------------------------------------

 Alpha MOs
 -- Occupied --
-19.175 -19.169 -19.112 -19.106 -10.304 -10.300 -10.231 -10.228
-10.213 -10.211 -10.188 -10.187 -10.174 -10.170 -10.168 -10.167
-10.166  -1.119  -1.109  -1.026  -1.020  -0.898  -0.802  -0.779
 -0.743  -0.730  -0.712  -0.688  -0.668  -0.611  -0.586  -0.565
 -0.558  -0.540  -0.535  -0.516  -0.499  -0.491  -0.479  -0.474
 -0.462  -0.453  -0.445  -0.429  -0.422  -0.412  -0.407  -0.398
 -0.392  -0.389  -0.381  -0.376  -0.371  -0.357  -0.351  -0.350
 -0.340  -0.328  -0.320  -0.314  -0.304  -0.282  -0.275  -0.249

          Ground-State Mulliken Net Atomic Charges

     Atom                 Charge (a.u.)
  ----------------------------------------
      1 C                     0.361828
      2 C                    -0.086684
      3 C                    -0.552273
      4 C                    -0.538036
      5 O                    -0.082564
      6 O                    -0.181915
      7 O                     0.074037
      8 O                    -0.145248
      9 C                    -0.146470
     10 C                    -0.204082
     11 C                     0.236532
     12 C                    -0.422745
     13 C                    -0.371508
     14 C                     0.314899
     15 C                    -0.681729
     16 C                    -0.436590
     17 C                    -0.279244
     18 H                     0.169566
     19 H                     0.188853
     20 H                     0.155033
     21 H                     0.149205
     22 H                     0.172024
     23 H                     0.142817
     24 H                     0.181289
     25 H                     0.263914
     26 H                     0.269717
     27 H                     0.117967
     28 H                     0.187642
     29 H                     0.170041
     30 H                     0.196951
     31 H                     0.175061
     32 H                     0.155440
     33 H                     0.194438
     34 H                     0.093247
     35 H                     0.158590
  ----------------------------------------
  Sum of atomic charges =    -0.000000

                    Cartesian Multipole Moments
 -----------------------------------------------------------------
    Charge (ESU x 10^10)
                -0.0000
    Dipole Moment (Debye)
         X      -0.5771      Y       1.5354      Z       1.1253
       Tot       1.9892
    Quadrupole Moments (Debye-Ang)
        XX     -93.9890     XY       3.0962     YY    -105.2564
        XZ      -9.2062     YZ       2.4603     ZZ    -103.9427

 Frequency:       -43.04                  71.81                  79.75
 Force Cnst:      0.0048                 0.0089                 0.0090
 Red. Mass:       4.3734                 2.9168                 2.4053
 IR Intens:        2.443                  2.140                  0.235
 Frequency:        92.58                 122.25                 139.04
 Force Cnst:      0.0079                 0.0212                 0.0305
 Red. Mass:       1.5663                 2.4085                 2.6760
 IR Intens:        0.611                  0.809                  0.856
 Frequency:       142.02                 162.39                 178.73
 Force Cnst:      0.0204                 0.0496                 0.0758
 Red. Mass:       1.7197                 3.1906                 4.0258
 IR Intens:        0.252                  0.081                  1.253
 Frequency:       221.64                 238.46                 247.34
 Force Cnst:      0.0669                 0.0536                 0.1346
 Red. Mass:       2.3111                 1.5992                 3.7337
 IR Intens:        3.489                  0.976                  5.669
 Frequency:       265.27                 282.96                 312.75
 Force Cnst:      0.0944                 0.1737                 0.0901
 Red. Mass:       2.2766                 3.6828                 1.5628
 IR Intens:        1.429                  3.945                  0.540
 Frequency:       319.47                 343.85                 349.08
 Force Cnst:      0.1498                 0.1788                 0.2043
 Red. Mass:       2.4912                 2.5667                 2.8462
 IR Intens:        3.487                  0.496                  6.288
 Frequency:       371.77                 380.18                 418.76
 Force Cnst:      0.3451                 0.3091                 0.4303
 Red. Mass:       4.2377                 3.6295                 4.1649
 IR Intens:        2.621                 13.183                  0.273
 Frequency:       447.30                 467.24                 480.27
 Force Cnst:      0.4119                 0.5018                 0.5723
 Red. Mass:       3.4945                 3.9014                 4.2113
 IR Intens:        2.871                  3.393                  6.602
 Frequency:       549.74                 617.46                 723.83
 Force Cnst:      0.3829                 0.7640                 0.9951
 Red. Mass:       2.1505                 3.4013                 3.2237
 IR Intens:        3.672                  1.931                 18.078
 Frequency:       725.31                 746.31                 766.87
 Force Cnst:      0.7208                 1.2362                 1.3083
 Red. Mass:       2.3254                 3.7670                 3.7760
 IR Intens:       36.621                  0.738                  8.640
 Frequency:       777.84                 804.31                 819.97
 Force Cnst:      1.9053                 1.5514                 1.9563
 Red. Mass:       5.3446                 4.0704                 4.9384
 IR Intens:        1.546                  9.861                  9.558
 Frequency:       862.28                 872.72                 894.75
 Force Cnst:      1.5318                 1.1910                 1.0188
 Red. Mass:       3.4965                 2.6540                 2.1598
 IR Intens:       12.028                 14.978                  8.821
 Frequency:       897.73                 919.38                 928.88
 Force Cnst:      1.2711                 1.0721                 1.0550
 Red. Mass:       2.6770                 2.1527                 2.0753
 IR Intens:        2.546                  9.808                  2.505
 Frequency:       957.59                 978.07                 989.67
 Force Cnst:      0.7708                 1.5167                 0.9349
 Red. Mass:       1.4268                 2.6910                 1.6200
 IR Intens:        2.826                  0.025                  1.560
 Frequency:      1001.30                1004.04                1035.93
 Force Cnst:      2.7541                 2.1348                 1.0874
 Red. Mass:       4.6623                 3.5943                 1.7198
 IR Intens:       13.974                 18.602                  3.593
 Frequency:      1067.83                1078.81                1105.09
 Force Cnst:      2.7933                 1.3255                 1.1180
 Red. Mass:       4.1578                 1.9330                 1.5537
 IR Intens:       22.668                  3.089                  4.147
 Frequency:      1129.32                1141.05                1144.70
 Force Cnst:      1.0813                 1.1868                 2.2167
 Red. Mass:       1.4390                 1.5471                 2.8712
 IR Intens:        4.373                  4.671                 50.412
 Frequency:      1147.36                1169.34                1170.15
 Force Cnst:      1.9991                 1.2966                 1.0411
 Red. Mass:       2.5774                 1.6095                 1.2905
 IR Intens:       77.200                  6.076                  0.675
 Frequency:      1170.53                1193.41                1210.59
 Force Cnst:      1.1049                 1.8177                 1.3783
 Red. Mass:       1.3687                 2.1661                 1.5962
 IR Intens:        0.431                 19.394                  8.671
 Frequency:      1213.60                1261.26                1268.54
 Force Cnst:      1.4820                 3.2951                 1.8919
 Red. Mass:       1.7079                 3.5157                 1.9955
 IR Intens:       19.598                395.648                 51.782
 Frequency:      1281.85                1287.29                1293.56
 Force Cnst:      1.3357                 1.6438                 2.7202
 Red. Mass:       1.3797                 1.6837                 2.7592
 IR Intens:        2.817                 13.121                102.267
 Frequency:      1294.60                1349.79                1393.74
 Force Cnst:      1.7974                 1.8742                 1.3812
 Red. Mass:       1.8203                 1.7459                 1.2068
 IR Intens:       11.416                  8.108                  6.401
 Frequency:      1413.62                1465.39                1468.80
 Force Cnst:      1.4064                 1.5149                 1.5168
 Red. Mass:       1.1946                 1.1974                 1.1933
 IR Intens:       16.221                  3.852                 19.693
 Frequency:      1479.41                1481.14                1484.55
 Force Cnst:      1.3493                 1.3523                 1.3609
 Red. Mass:       1.0464                 1.0462                 1.0481
 IR Intens:        8.107                  7.590                 15.302
 Frequency:      1494.21                1495.65                1498.77
 Force Cnst:      1.4004                 1.3805                 1.3876
 Red. Mass:       1.0646                 1.0475                 1.0485
 IR Intens:        2.198                  9.447                  9.809
 Frequency:      1500.90                1510.30                1525.62
 Force Cnst:      1.4326                 1.4101                 1.4557
 Red. Mass:       1.0794                 1.0492                 1.0615
 IR Intens:        0.716                  2.280                 24.364
 Frequency:      1637.26                1757.56                1769.48
 Force Cnst:      9.0668                20.5052                21.0227
 Red. Mass:       5.7408                11.2666                11.3959
 IR Intens:        1.962                218.183                237.363
 Frequency:      3045.33                3048.83                3049.48
 Force Cnst:      5.6774                 5.6399                 5.7105
 Red. Mass:       1.0390                 1.0298                 1.0422
 IR Intens:       11.242                 34.458                 22.137
 Frequency:      3052.34                3071.09                3104.13
 Force Cnst:      5.6517                 5.8871                 6.1757
 Red. Mass:       1.0296                 1.0594                 1.0878
 IR Intens:       38.917                 29.251                 33.706
 Frequency:      3113.59                3114.59                3121.27
 Force Cnst:      6.2912                 6.2819                 6.3477
 Red. Mass:       1.1014                 1.0991                 1.1059
 IR Intens:       16.088                  8.326                 20.063
 Frequency:      3121.59                3125.57                3126.96
 Force Cnst:      6.3039                 6.2706                 6.3768
 Red. Mass:       1.0980                 1.0894                 1.1069
 IR Intens:       28.559                 30.095                 15.801
 Frequency:      3133.77                3151.30                3154.68
 Force Cnst:      6.3697                 6.4732                 6.4616
 Red. Mass:       1.1009                 1.1063                 1.1020
 IR Intens:       11.330                 15.269                 19.684
 Frequency:      3157.33                3204.37                3236.20
 Force Cnst:      6.4976                 6.5877                 6.8118
 Red. Mass:       1.1063                 1.0889                 1.1039
 IR Intens:       12.079                  3.412                  9.385

 STANDARD THERMODYNAMIC QUANTITIES AT   298.15 K  AND     1.00 ATM

   This Molecule has  1 Imaginary Frequencies
   Zero point vibrational energy:      183.695 kcal/mol

   Atom    1 Element C  Has Mass   12.00000
   Atom    2 Element C  Has Mass   12.00000
   Atom    3 Element C  Has Mass   12.00000
   Atom    4 Element C  Has Mass   12.00000
   Atom    5 Element O  Has Mass   15.99491
   Atom    6 Element O  Has Mass   15.99491
   Atom    7 Element O  Has Mass   15.99491
   Atom    8 Element O  Has Mass   15.99491
   Atom    9 Element C  Has Mass   12.00000
   Atom   10 Element C  Has Mass   12.00000
   Atom   11 Element C  Has Mass   12.00000
   Atom   12 Element C  Has Mass   12.00000
   Atom   13 Element C  Has Mass   12.00000
   Atom   14 Element C  Has Mass   12.00000
   Atom   15 Element C  Has Mass   12.00000
   Atom   16 Element C  Has Mass   12.00000
   Atom   17 Element C  Has Mass   12.00000
   Atom   18 Element H  Has Mass    1.00783
   Atom   19 Element H  Has Mass    1.00783
   Atom   20 Element H  Has Mass    1.00783
   Atom   21 Element H  Has Mass    1.00783
   Atom   22 Element H  Has Mass    1.00783
   Atom   23 Element H  Has Mass    1.00783
   Atom   24 Element H  Has Mass    1.00783
   Atom   25 Element H  Has Mass    1.00783
   Atom   26 Element H  Has Mass    1.00783
   Atom   27 Element H  Has Mass    1.00783
   Atom   28 Element H  Has Mass    1.00783
   Atom   29 Element H  Has Mass    1.00783
   Atom   30 Element H  Has Mass    1.00783
   Atom   31 Element H  Has Mass    1.00783
   Atom   32 Element H  Has Mass    1.00783
   Atom   33 Element H  Has Mass    1.00783
   Atom   34 Element H  Has Mass    1.00783
   Atom   35 Element H  Has Mass    1.00783
   Molecular Mass:   238.120580 amu
   Principal axes and moments of inertia in amu*Bohr^2:
                             1           2           3
    Eigenvalues --     2988.15395  3334.15107  4175.73668
          X               0.93970     0.34137     0.02073
          Y              -0.34168     0.93453     0.09954
          Z               0.01461    -0.10062     0.99482
   Rotational Symmetry Number is   1
   The Molecule is an Asymmetric Top
   Translational Enthalpy:        0.889 kcal/mol
   Rotational Enthalpy:           0.889 kcal/mol
   Vibrational Enthalpy:        191.957 kcal/mol
   gas constant (RT):             0.592 kcal/mol
   Translational Entropy:        42.304  cal/mol.K
   Rotational Entropy:           32.098  cal/mol.K
   Vibrational Entropy:          49.192  cal/mol.K

   Total Enthalpy:              194.327 kcal/mol
   Total Entropy:               123.594  cal/mol.K

 Total job time:  11739.94s(wall), 44042.88s(cpu)
        *  Thank you very much for using Q-Chem.  Have a nice day.  *
