 Q-Chem 5.0, Q-Chem, Inc., Pleasanton, CA (2017)
 Q-Chem 5.0.1 for Intel X86 EM64T Linux

User input:
--------------------------------------------------------------
$molecule
0 1
C 1.21265674 -0.25957660 -0.41077702
C 0.16496872 0.95670980 -0.56678863
C 0.55766830 -1.63757484 -0.24616589
C -1.28658220 0.48735077 -0.60554300
O -0.40712299 -1.66020164 0.69649231
O 0.87032778 -2.61924704 -0.87518751
O -2.06922860 1.10068584 0.30176244
O -1.72146060 -0.27044097 -1.44163368
C -3.46457199 0.75022655 0.26694566
C -1.16542240 -2.87828098 0.79387575
C 2.00066485 0.18789881 0.90122497
C 1.06848134 0.16679393 2.10162848
C 0.20582093 1.17558872 1.95865891
C 0.54526516 1.88482435 0.65854031
C 2.08065989 1.71484415 0.67039667
C 2.19424478 -0.38896997 -1.58626409
C 0.31031733 1.74995164 -1.88763451
H -3.89619347 0.99135962 -0.70550203
H -0.50976330 -3.72960146 0.97921866
H -0.65605853 1.39431664 2.57153888
H -3.93162270 1.34036460 1.05255708
H -3.59176469 -0.31584221 0.46091130
H -1.84685074 -2.72821381 1.62897775
H -1.72095590 -3.04116302 -0.13149865
H 0.15289827 2.89499318 0.54807638
H 2.93980933 -0.35472564 1.01132965
H 1.28961647 2.21791464 -1.97494439
H 0.14693378 1.10840009 -2.75307075
H -0.43964384 2.54607069 -1.91215382
H 2.90367285 -1.19094581 -1.38123311
H 1.67549516 -0.64976909 -2.50900242
H 2.75507283 0.52982065 -1.74954331
H 2.54586384 2.23211298 1.51012499
H 2.57973889 2.00855695 -0.25275442
H 1.05204443 -0.60667806 2.85672033
$end

$rem
sym_ignore      true
jobtype         opt
method          b3lyp
basis           6-311++G(d,p)
dft_d           d3_op
mem_total       62000
MEM_STATIC      4000
ao2mo_disk      350000
max_scf_cycles  200
geom_opt_max_cycles 1000
geom_opt_tol_displacement 1
GEOM_OPT_TOL_GRADIENT       1
GEOM_OPT_TOL_ENERGY         1
$end

--------------------------------------------------------------

   15    -807.3593780096      3.66E-09 Convergence criterion met
 Total energy in the final basis set = -807.35937801
   15    -807.3591600987      3.67E-09 Convergence criterion met
 Total energy in the final basis set = -807.35916010
   13    -807.3592332231      4.84E-09 Convergence criterion met
 Total energy in the final basis set = -807.35923322
   12    -807.3584515566      8.93E-09 Convergence criterion met
 Total energy in the final basis set = -807.35845156
   12    -807.3594102071      9.68E-09 Convergence criterion met
 Total energy in the final basis set = -807.35941021
   12    -807.3592674571      8.09E-09 Convergence criterion met
 Total energy in the final basis set = -807.35926746
   12    -807.3595148147      5.47E-09 Convergence criterion met
 Total energy in the final basis set = -807.35951481
   11    -807.3595065124      3.85E-09 Convergence criterion met
    6    -807.3595189081      2.71E-09 Convergence criterion met
 Total energy in the final basis set = -807.35951891
    6    -807.3595189270      5.16E-09 Convergence criterion met
 Total energy in the final basis set = -807.35951893
    6    -807.3595188999      7.22E-09 Convergence criterion met
 Total energy in the final basis set = -807.35951890
    7    -807.3595189453      9.89E-09 Convergence criterion met
 Total energy in the final basis set = -807.35951895
    6    -807.3595189262      8.53E-09 Convergence criterion met
 Total energy in the final basis set = -807.35951893
    4    -807.3595189238      4.84E-09 Convergence criterion met
 Total energy in the final basis set = -807.35951892
 Final energy is   -807.359518923769
 **  OPTIMIZATION CONVERGED  **
 Total job time:  1640.80s(wall), 26647.21s(cpu)
        *  Thank you very much for using Q-Chem.  Have a nice day.  *

User input: 2 of 2

r0018.ten.osc.edu 10.25.151
Q-Chem Developer Version! Running on 10.25.151.*
                  Welcome to Q-Chem
     A Quantum Leap Into The Future Of Chemistry

 Q-Chem 5.0, Q-Chem, Inc., Pleasanton, CA (2017)

 Yihan Shao,  Zhengting Gan,  E. Epifanovsky,  A. T. B. Gilbert,  M. Wormit,
 J. Kussmann,  A. W. Lange,  A. Behn,  Jia Deng,  Xintian Feng,  D. Ghosh,
 M. Goldey,  P. R. Horn,  L. D. Jacobson,  I. Kaliman,  T. Kus,  A. Landau,
 Jie Liu,  E. I. Proynov,  R. M. Richard,  R. P. Steele,  E. J. Sundstrom,
 H. L. Woodcock III,  P. M. Zimmerman,  D. Zuev,  B. Albrecht,  E. Alguire,
 S. A. Baeppler,  Z. Benda,  Y. A. Bernard,  E. J. Berquist,  K. B. Bravaya,
 D. Casanova,  Chun-Min Chang,  Yunqing Chen,  A. Chien,  K. D. Closser,
 M. P. Coons,  S. Dasgupta,  M. Diedenhofen,  Hainam Do,  R. G. Edgar,
 Po-Tung Fang,  S. Fatehi,  Qingguo Feng,  Qinghui Ge,  A. Ghysels,
 J. Gomes,  J. Gonthier,  A. Gunina,  M. W. D. Hanson-Heine,
 P. H. P. Harbach,  A. W. Hauser,  J. E. Herr,  E. G. Hohenstein,
 Z. C. Holden,  Kerwin Hui,  T.-C. Jagau,  Hyunjun Ji,  B. Kaduk,
 K. Khistyaev,  Jaehoon Kim,  P. Klunzinger,  K. Koh,  D. Kosenkov,
 T. Kowalczyk,  C. M. Krauter,  A. Kunitsa,  Ka Un Lao,  A. Laurent,
 K. V. Lawler,  Joonho Lee,  D. Lefrancois,  S. Lehtola,  D. S. Levine,
 Yi-Pei Li,  You-Sheng Lin,  Fenglai Liu,  E. Livshits,  A. Luenser,
 P. Manohar,  E. Mansoor,  S. F. Manzer,  Shan-Ping Mao,  Yuezhi Mao,
 N. Mardirossian,  A. V. Marenich,  L. A. Martinez-Martinez,  S. A. Maurer,
 N. J. Mayhall,  S. C. McKenzie,  J.-M. Mewes,  A. F. Morrison,  K. Nanda,
 T. S. Nguyen-Beck,  R. Olivares-Amaya,  J. A. Parkhill,  T. M. Perrine,
 F. Plasser,  S. Prager,  A. Prociuk,  D. R. Rehn,  F. Rob,  M. Schneider,
 N. Sergueev,  S. M. Sharada,  S. Sharma,  D. W. Small,  T. Stauch,
 T. Stein,  Yu-Chuan Su,  A. J. W. Thom,  T. Tsuchimochi,  L. Vogt,
 O. Vydrov,  M. A. Watson,  J. Wenzel,  M. de Wergifosse,  T. A. Wesolowski,
 A. White,  J. Witte,  A. Yamada,  Jun Yang,  K. Yao,  S. Yeganeh,
 S. R. Yost,  Zhi-Qiang You,  A. Zech,  Igor Ying Zhang,  Xing Zhang,
 Yan Zhao,  Ying Zhu,  B. R. Brooks,  G. K. L. Chan,  C. J. Cramer,
 M. S. Gordon,  W. J. Hehre,  A. Klamt,  M. W. Schmidt,  C. D. Sherrill,
 D. G. Truhlar,  A. Aspuru-Guzik,  R. Baer,  A. T. Bell,  N. A. Besley,
 Jeng-Da Chai,  A. Dreuw,  B. D. Dunietz,  T. R. Furlani,  Chao-Ping Hsu,
 Yousung Jung,  Jing Kong,  D. S. Lambrecht,  WanZhen Liang,  C. Ochsenfeld,
 V. A. Rassolov,  L. V. Slipchenko,  J. E. Subotnik,  T. Van Voorhis,
 J. M. Herbert,  A. I. Krylov,  P. M. W. Gill,  M. Head-Gordon

 Contributors to earlier versions of Q-Chem not listed above:
 R. D. Adamson,  B. Austin,  J. Baker,  G. J. O. Beran,  K. Brandhorst,
 S. T. Brown,  E. F. C. Byrd,  A. K. Chakraborty,  C.-L. Cheng,
 Siu Hung Chien,  D. M. Chipman,  D. L. Crittenden,  H. Dachsel,
 R. A. DiStasio Jr.,  R. J. Doerksen,  A. D. Dutoi,  L. Fusti-Molnar,
 W. A. Goddard III,  A. Golubeva-Zadorozhnaya,  S. R. Gwaltney,  G. Hawkins,
 A. Heyden,  S. Hirata,  G. Kedziora,  F. J. Keil,  C. Kelley,  Jihan Kim,
 R. A. King,  R. Z. Khaliullin,  P. P. Korambath,  W. Kurlancheek,
 A. M. Lee,  M. S. Lee,  S. V. Levchenko,  Ching Yeh Lin,  D. Liotard,
 R. C. Lochan,  I. Lotan,  P. E. Maslen,  N. Nair,  D. P. O'Neill,
 D. Neuhauser,  E. Neuscamman,  C. M. Oana,  R. Olson,  B. Peters,
 R. Peverati,  P. A. Pieniazek,  Y. M. Rhee,  J. Ritchie,  M. A. Rohrdanz,
 E. Rosta,  N. J. Russ,  H. F. Schaefer III,  N. E. Schultz,  N. Shenvi,
 A. C. Simmonett,  A. Sodt,  D. Stuck,  K. S. Thanthiriwatte,  V. Vanovschi,
 Tao Wang,  A. Warshel,  C. F. Williams,  Q. Wu,  X. Xu,  W. Zhang

 Please cite Q-Chem as follows:
 Y. Shao et al., Mol. Phys. 113, 184-215 (2015)
 DOI: 10.1080/00268976.2014.952696

 Q-Chem 5.0.1 for Intel X86 EM64T Linux

 Parts of Q-Chem use Armadillo 5.200.1 (Boston Tea Smuggler).
 http://arma.sourceforge.net/

 Q-Chem begins on Tue Oct 24 08:20:42 2017

Host: r0018.ten.osc.edu
0

     Scratch files written to /tmp/pbstmp.1324374/04//
Processing $rem in /users/PAS0291/osu6415/.qchemrc.
molden_format             true
The previous job contains 0 fragments, simply inherited here

Checking the input file for inconsistencies... 	...done.

--------------------------------------------------------------
User input:
--------------------------------------------------------------

$molecule
read
$end

$rem
sym_ignore      true
scf_guess       read
jobtype         freq
method          b3lyp
basis           6-311++G(d,p)
dft_d           d3_op
mem_total       62000
MEM_STATIC      4000
ao2mo_disk      350000
max_scf_cycles  200
$end
--------------------------------------------------------------

             Standard Nuclear Orientation (Angstroms)
    I     Atom           X                Y                Z
 ----------------------------------------------------------------
    1      C       1.2100475205    -0.2630364324    -0.4144868578
    2      C       0.1592613197     0.9501876138    -0.5559733880
    3      C       0.5670498411    -1.6467855981    -0.2462643659
    4      C      -1.2918792276     0.4829126131    -0.5948777368
    5      O      -0.3857366658    -1.6813999817     0.7075125681
    6      O       0.8885859484    -2.6256413717    -0.8754308540
    7      O      -2.0828892510     1.1490320961     0.2677002683
    8      O      -1.7177704765    -0.3229637011    -1.3890344716
    9      C      -3.4808946214     0.8086835926     0.2296764354
   10      C      -1.1326446419    -2.9059017749     0.8085280138
   11      C       2.0026459405     0.1816726070     0.8975896013
   12      C       1.0739222988     0.1529213923     2.1010143264
   13      C       0.2082265598     1.1603959033     1.9657944662
   14      C       0.5423004229     1.8762781696     0.6684252826
   15      C       2.0779305308     1.7097264694     0.6734217297
   16      C       2.1864606449    -0.3830341091    -1.5948484745
   17      C       0.2946426548     1.7500437142    -1.8756669661
   18      H      -3.8965059749     1.0070460956    -0.7592722128
   19      H      -0.4680655582    -3.7527617053     0.9822410708
   20      H      -0.6532469862     1.3732501108     2.5816921900
   21      H      -3.9535749355     1.4395882880     0.9793580703
   22      H      -3.6202918640    -0.2458767767     0.4720039576
   23      H      -1.8056477369    -2.7651062797     1.6520714228
   24      H      -1.6978760038    -3.0686620905    -0.1109429524
   25      H       0.1470881331     2.8856673813     0.5626092489
   26      H       2.9433714588    -0.3591400800     1.0024939156
   27      H       1.2721550617     2.2210953381    -1.9668461570
   28      H       0.1289383574     1.1116396170    -2.7432599039
   29      H      -0.4573678991     2.5444110570    -1.8923933231
   30      H       2.9038668685    -1.1788375080    -1.3940218053
   31      H       1.6649994276    -0.6479714321    -2.5149359829
   32      H       2.7381984903     0.5407555764    -1.7604330822
   33      H       2.5450738503     2.2245402688     1.5136361837
   34      H       2.5730220667     2.0090207737    -0.2501473634
   35      H       1.0615841662    -0.6241963771     2.8523504364
 ----------------------------------------------------------------

    2    -807.3595189250      4.34E-09 Convergence criterion met
 Total energy in the final basis set = -807.35951893

                    Orbital Energies (a.u.)
 --------------------------------------------------------------

 Alpha MOs
 -- Occupied --
-19.176 -19.165 -19.112 -19.108 -10.304 -10.297 -10.232 -10.223
-10.213 -10.211 -10.192 -10.188 -10.175 -10.173 -10.168 -10.166
-10.159  -1.117  -1.107  -1.026  -1.019  -0.899  -0.804  -0.779
 -0.741  -0.728  -0.711  -0.688  -0.667  -0.611  -0.584  -0.569
 -0.552  -0.539  -0.535  -0.517  -0.500  -0.484  -0.482  -0.474
 -0.458  -0.456  -0.444  -0.425  -0.422  -0.411  -0.404  -0.399
 -0.394  -0.383  -0.379  -0.375  -0.372  -0.362  -0.353  -0.351
 -0.345  -0.328  -0.317  -0.315  -0.305  -0.282  -0.275  -0.244

          Ground-State Mulliken Net Atomic Charges

     Atom                 Charge (a.u.)
  ----------------------------------------
      1 C                    -0.103015
      2 C                     0.039360
      3 C                    -0.425449
      4 C                    -0.573719
      5 O                    -0.034635
      6 O                    -0.194943
      7 O                     0.024706
      8 O                    -0.186867
      9 C                    -0.171555
     10 C                    -0.201181
     11 C                     0.265334
     12 C                    -0.366106
     13 C                    -0.511073
     14 C                     0.517222
     15 C                    -0.712156
     16 C                    -0.277026
     17 C                    -0.243283
     18 H                     0.173139
     19 H                     0.186020
     20 H                     0.148169
     21 H                     0.153317
     22 H                     0.170371
     23 H                     0.149663
     24 H                     0.201988
     25 H                     0.266018
     26 H                     0.262089
     27 H                     0.153305
     28 H                     0.175190
     29 H                     0.172278
     30 H                     0.195681
     31 H                     0.206526
     32 H                     0.107552
     33 H                     0.192049
     34 H                     0.097036
     35 H                     0.143995
  ----------------------------------------
  Sum of atomic charges =    -0.000000

                    Cartesian Multipole Moments
 -----------------------------------------------------------------
    Charge (ESU x 10^10)
                -0.0000
    Dipole Moment (Debye)
         X      -1.1798      Y       2.2083      Z       2.0246
       Tot       3.2199
    Quadrupole Moments (Debye-Ang)
        XX     -93.0735     XY       2.5327     YY    -103.5948
        XZ      -4.1444     YZ      -9.0005     ZZ    -105.3135

 Frequency:        44.29                  67.26                  90.62
 Force Cnst:      0.0063                 0.0115                 0.0189
 Red. Mass:       5.4922                 4.3004                 3.9078
 IR Intens:        0.554                  1.033                  2.317
 Frequency:        95.08                 132.68                 143.35
 Force Cnst:      0.0177                 0.0178                 0.0139
 Red. Mass:       3.3320                 1.7164                 1.1509
 IR Intens:        2.678                  0.059                  0.297
 Frequency:       162.98                 167.31                 192.05
 Force Cnst:      0.0493                 0.0291                 0.0782
 Red. Mass:       3.1483                 1.7652                 3.5989
 IR Intens:        1.657                  0.233                  1.837
 Frequency:       219.90                 238.06                 248.83
 Force Cnst:      0.0313                 0.1165                 0.2178
 Red. Mass:       1.1001                 3.4888                 5.9707
 IR Intens:        0.139                  5.395                  0.555
 Frequency:       280.47                 304.19                 308.42
 Force Cnst:      0.1576                 0.0642                 0.1926
 Red. Mass:       3.4008                 1.1769                 3.4373
 IR Intens:        7.899                  0.988                  0.611
 Frequency:       315.14                 330.05                 349.93
 Force Cnst:      0.2014                 0.1692                 0.2491
 Red. Mass:       3.4424                 2.6364                 3.4533
 IR Intens:        1.730                  2.165                 11.430
 Frequency:       374.05                 393.59                 404.09
 Force Cnst:      0.2956                 0.3424                 0.4448
 Red. Mass:       3.5862                 3.7516                 4.6234
 IR Intens:        5.360                  0.878                  6.236
 Frequency:       448.38                 453.27                 529.14
 Force Cnst:      0.4744                 0.4143                 0.6497
 Red. Mass:       4.0053                 3.4225                 3.9386
 IR Intens:        5.019                  2.424                  1.383
 Frequency:       552.91                 603.95                 705.76
 Force Cnst:      0.4174                 0.7017                 1.0591
 Red. Mass:       2.3171                 3.2653                 3.6090
 IR Intens:        3.372                  2.717                 12.688
 Frequency:       738.43                 745.23                 773.84
 Force Cnst:      0.6609                 1.3119                 1.6555
 Red. Mass:       2.0571                 4.0092                 4.6923
 IR Intens:       34.792                  2.599                 11.364
 Frequency:       778.55                 807.54                 826.56
 Force Cnst:      1.6357                 1.6383                 1.9381
 Red. Mass:       4.5801                 4.2641                 4.8149
 IR Intens:        0.714                  8.724                  0.571
 Frequency:       857.44                 885.50                 893.31
 Force Cnst:      1.6549                 1.1513                 1.2405
 Red. Mass:       3.8205                 2.4922                 2.6385
 IR Intens:        5.453                 32.234                  3.595
 Frequency:       900.28                 924.67                 938.65
 Force Cnst:      1.0771                 1.1477                 1.0167
 Red. Mass:       2.2556                 2.2783                 1.9586
 IR Intens:        9.001                  1.660                  4.300
 Frequency:       950.66                 982.90                 990.18
 Force Cnst:      0.8015                 1.5796                 0.9199
 Red. Mass:       1.5053                 2.7751                 1.5924
 IR Intens:        3.969                  0.706                  1.664
 Frequency:       998.77                1008.64                1044.71
 Force Cnst:      2.6732                 2.1253                 1.1101
 Red. Mass:       4.5483                 3.5457                 1.7264
 IR Intens:       14.183                 13.143                  2.958
 Frequency:      1066.87                1093.55                1107.71
 Force Cnst:      1.7721                 1.5001                 1.0881
 Red. Mass:       2.6425                 2.1291                 1.5051
 IR Intens:        7.198                 38.699                  2.213
 Frequency:      1126.80                1144.76                1151.36
 Force Cnst:      1.1395                 1.4235                 1.8608
 Red. Mass:       1.5232                 1.8436                 2.3825
 IR Intens:        6.874                 76.472                 72.396
 Frequency:      1156.30                1168.18                1169.52
 Force Cnst:      1.8851                 1.0382                 1.2754
 Red. Mass:       2.3930                 1.2912                 1.5826
 IR Intens:       17.681                  0.959                  3.827
 Frequency:      1171.11                1197.97                1209.23
 Force Cnst:      1.1483                 1.6982                 1.3572
 Red. Mass:       1.4210                 2.0084                 1.5753
 IR Intens:        1.678                  4.302                 13.597
 Frequency:      1213.30                1249.27                1272.84
 Force Cnst:      1.5103                 3.0911                 1.9749
 Red. Mass:       1.7413                 3.3616                 2.0689
 IR Intens:       12.771                340.623                109.168
 Frequency:      1284.51                1288.46                1299.13
 Force Cnst:      1.4284                 1.4192                 2.3570
 Red. Mass:       1.4694                 1.4509                 2.3703
 IR Intens:        4.860                  4.890                 44.109
 Frequency:      1301.84                1354.62                1411.28
 Force Cnst:      2.2065                 1.9230                 1.4112
 Red. Mass:       2.2098                 1.7786                 1.2025
 IR Intens:       25.391                  8.188                  3.703
 Frequency:      1424.04                1464.91                1466.05
 Force Cnst:      1.4449                 1.5095                 1.5094
 Red. Mass:       1.2093                 1.1939                 1.1919
 IR Intens:       17.879                  5.471                 16.768
 Frequency:      1482.70                1484.43                1485.58
 Force Cnst:      1.3548                 1.3580                 1.3566
 Red. Mass:       1.0459                 1.0460                 1.0433
 IR Intens:        2.126                 16.885                  9.987
 Frequency:      1492.03                1496.89                1498.47
 Force Cnst:      1.3862                 1.3819                 1.3833
 Red. Mass:       1.0569                 1.0468                 1.0456
 IR Intens:        3.780                 16.568                  1.524
 Frequency:      1504.58                1514.91                1527.36
 Force Cnst:      1.4284                 1.4157                 1.4842
 Red. Mass:       1.0710                 1.0470                 1.0798
 IR Intens:        0.740                  4.048                 21.180
 Frequency:      1639.39                1765.10                1774.58
 Force Cnst:      9.0878                21.0223                21.2503
 Red. Mass:       5.7391                11.4523                11.4531
 IR Intens:        2.239                 77.548                405.553
 Frequency:      3043.44                3049.23                3050.15
 Force Cnst:      5.6814                 5.6361                 5.6422
 Red. Mass:       1.0411                 1.0288                 1.0293
 IR Intens:       18.316                 26.447                 45.933
 Frequency:      3064.80                3073.53                3099.38
 Force Cnst:      5.7410                 5.8942                 6.1564
 Red. Mass:       1.0374                 1.0590                 1.0877
 IR Intens:        8.348                 30.514                 29.717
 Frequency:      3108.37                3112.15                3119.39
 Force Cnst:      6.2221                 6.2178                 6.3459
 Red. Mass:       1.0930                 1.0896                 1.1069
 IR Intens:       19.129                 30.359                 33.535
 Frequency:      3122.74                3124.85                3127.86
 Force Cnst:      6.3595                 6.3687                 6.3497
 Red. Mass:       1.1069                 1.1070                 1.1016
 IR Intens:       20.533                 12.075                 16.763
 Frequency:      3137.31                3148.89                3150.27
 Force Cnst:      6.3947                 6.4315                 6.4704
 Red. Mass:       1.1027                 1.1009                 1.1066
 IR Intens:        5.154                 30.616                 12.861
 Frequency:      3154.84                3204.74                3231.23
 Force Cnst:      6.4880                 6.5813                 6.7989
 Red. Mass:       1.1064                 1.0876                 1.1052
 IR Intens:       13.358                  5.537                 10.876

 STANDARD THERMODYNAMIC QUANTITIES AT   298.15 K  AND     1.00 ATM

   This Molecule has  0 Imaginary Frequencies
   Zero point vibrational energy:      184.107 kcal/mol

   Atom    1 Element C  Has Mass   12.00000
   Atom    2 Element C  Has Mass   12.00000
   Atom    3 Element C  Has Mass   12.00000
   Atom    4 Element C  Has Mass   12.00000
   Atom    5 Element O  Has Mass   15.99491
   Atom    6 Element O  Has Mass   15.99491
   Atom    7 Element O  Has Mass   15.99491
   Atom    8 Element O  Has Mass   15.99491
   Atom    9 Element C  Has Mass   12.00000
   Atom   10 Element C  Has Mass   12.00000
   Atom   11 Element C  Has Mass   12.00000
   Atom   12 Element C  Has Mass   12.00000
   Atom   13 Element C  Has Mass   12.00000
   Atom   14 Element C  Has Mass   12.00000
   Atom   15 Element C  Has Mass   12.00000
   Atom   16 Element C  Has Mass   12.00000
   Atom   17 Element C  Has Mass   12.00000
   Atom   18 Element H  Has Mass    1.00783
   Atom   19 Element H  Has Mass    1.00783
   Atom   20 Element H  Has Mass    1.00783
   Atom   21 Element H  Has Mass    1.00783
   Atom   22 Element H  Has Mass    1.00783
   Atom   23 Element H  Has Mass    1.00783
   Atom   24 Element H  Has Mass    1.00783
   Atom   25 Element H  Has Mass    1.00783
   Atom   26 Element H  Has Mass    1.00783
   Atom   27 Element H  Has Mass    1.00783
   Atom   28 Element H  Has Mass    1.00783
   Atom   29 Element H  Has Mass    1.00783
   Atom   30 Element H  Has Mass    1.00783
   Atom   31 Element H  Has Mass    1.00783
   Atom   32 Element H  Has Mass    1.00783
   Atom   33 Element H  Has Mass    1.00783
   Atom   34 Element H  Has Mass    1.00783
   Atom   35 Element H  Has Mass    1.00783
   Molecular Mass:   238.120580 amu
   Principal axes and moments of inertia in amu*Bohr^2:
                             1           2           3
    Eigenvalues --     3038.72730  3279.58616  4082.78667
          X               0.99985    -0.00127    -0.01740
          Y              -0.00019     0.99647    -0.08397
          Z               0.01745     0.08396     0.99632
   Rotational Symmetry Number is   1
   The Molecule is an Asymmetric Top
   Translational Enthalpy:        0.889 kcal/mol
   Rotational Enthalpy:           0.889 kcal/mol
   Vibrational Enthalpy:        192.797 kcal/mol
   gas constant (RT):             0.592 kcal/mol
   Translational Entropy:        42.304  cal/mol.K
   Rotational Entropy:           32.076  cal/mol.K
   Vibrational Entropy:          53.193  cal/mol.K

   Total Enthalpy:              195.166 kcal/mol
   Total Entropy:               127.573  cal/mol.K

 Total job time:  11740.08s(wall), 44102.88s(cpu)
        *  Thank you very much for using Q-Chem.  Have a nice day.  *
