 Q-Chem 5.0, Q-Chem, Inc., Pleasanton, CA (2017)
 Q-Chem 5.0.1 for Intel X86 EM64T Linux

User input:
--------------------------------------------------------------
$molecule
0  1
C        +0.25035000        +2.61098000        +5.64921000
C        +0.65391000        +1.15257000        +6.06197000
C        -1.15435000        +2.79833000        +5.10703000
C        -0.34692000        +0.04967000        +5.78659000
O        -2.06407000        +2.35442000        +6.00292000
O        -1.44571000        +3.32549000        +4.06444000
O        -0.88599000        +0.13818000        +4.55706000
O        -0.59443000        -0.84267000        +6.56237000
C        -1.83369000        -0.88131000        +4.19766000
C        -3.44303000        +2.44102000        +5.60246000
C        +1.35773000        +2.96584000        +4.62835000
C        +2.65835000        +3.28310000        +5.39181000
C        +3.07101000        +1.85961000        +5.86626000
C        +1.97188000        +0.97311000        +5.21588000
O        +1.65605000        +1.70273000        +4.01950000
H        +0.30576000        +3.25396000        +6.53226000
H        +0.86688000        +1.08568000        +7.12734000
H        -2.65984000        -0.90067000        +4.91030000
H        -3.73311000        +3.48132000        +5.44732000
H        +3.39999000        +3.70392000        +4.71131000
H        +2.51001000        +3.99098000        +6.20977000
H        +4.04947000        +1.57604000        +5.47487000
H        +3.10124000        +1.75348000        +6.95254000
H        -2.18383000        -0.61155000        +3.20389000
H        -1.35297000        -1.86087000        +4.18230000
H        -4.01090000        +2.00233000        +6.41997000
H        -3.60355000        +1.88310000        +4.67831000
H        +1.06035000        +3.76553000        +3.98262000
H        +2.27104000        -0.04886000        +5.11112000
@C        +0.22270000        +1.04488000        +0.58595000
@C        +0.62626000        -0.41353000        +0.99871000
@C        -1.18200000        +1.23223000        +0.04377000
@C        -0.37457000        -1.51643000        +0.72333000
@O        -2.09172000        +0.78832000        +0.93966000
@O        -1.47336000        +1.75939000        -0.99882000
@O        -0.91364000        -1.42792000        -0.50620000
@O        -0.62208000        -2.40877000        +1.49911000
@C        -1.86134000        -2.44741000        -0.86560000
@C        -3.47068000        +0.87492000        +0.53920000
@C        +1.33008000        +1.39974000        -0.43491000
@C        +2.63070000        +1.71700000        +0.32855000
@C        +3.04336000        +0.29351000        +0.80300000
@C        +1.94423000        -0.59299000        +0.15262000
@O        +1.62840000        +0.13663000        -1.04376000
@H        +0.27811000        +1.68786000        +1.46900000
@H        +0.83923000        -0.48042000        +2.06408000
@H        -2.68749000        -2.46677000        -0.15296000
@H        -3.76076000        +1.91522000        +0.38406000
@H        +3.37234000        +2.13782000        -0.35195000
@H        +2.48236000        +2.42488000        +1.14651000
@H        +4.02182000        +0.00994000        +0.41161000
@H        +3.07359000        +0.18738000        +1.88928000
@H        -2.21148000        -2.17765000        -1.85937000
@H        -1.38062000        -3.42697000        -0.88096000
@H        -4.03855000        +0.43623000        +1.35671000
@H        -3.63120000        +0.31700000        -0.38495000
@H        +1.03270000        +2.19943000        -1.08064000
@H        +2.24339000        -1.61496000        +0.04786000
$end

$rem
JOBTYPE                   SP
METHOD                    B3LYP
DFT_D                     d3_op
BASIS                     6-311++G(d,p)
SYMMETRY                  False
THRESH                    12
SCF_CONVERGENCE           8
MAX_SUB_FILE_NUM          128
MEM_STATIC                400
MEM_TOTAL                 4000
$end
--------------------------------------------------------------

             Standard Nuclear Orientation (Angstroms)
    I     Atom           X                Y                Z
 ----------------------------------------------------------------
    1      C       0.2503500000     2.6109800000     5.6492100000
    2      C       0.6539100000     1.1525700000     6.0619700000
    3      C      -1.1543500000     2.7983300000     5.1070300000
    4      C      -0.3469200000     0.0496700000     5.7865900000
    5      O      -2.0640700000     2.3544200000     6.0029200000
    6      O      -1.4457100000     3.3254900000     4.0644400000
    7      O      -0.8859900000     0.1381800000     4.5570600000
    8      O      -0.5944300000    -0.8426700000     6.5623700000
    9      C      -1.8336900000    -0.8813100000     4.1976600000
   10      C      -3.4430300000     2.4410200000     5.6024600000
   11      C       1.3577300000     2.9658400000     4.6283500000
   12      C       2.6583500000     3.2831000000     5.3918100000
   13      C       3.0710100000     1.8596100000     5.8662600000
   14      C       1.9718800000     0.9731100000     5.2158800000
   15      O       1.6560500000     1.7027300000     4.0195000000
   16      H       0.3057600000     3.2539600000     6.5322600000
   17      H       0.8668800000     1.0856800000     7.1273400000
   18      H      -2.6598400000    -0.9006700000     4.9103000000
   19      H      -3.7331100000     3.4813200000     5.4473200000
   20      H       3.3999900000     3.7039200000     4.7113100000
   21      H       2.5100100000     3.9909800000     6.2097700000
   22      H       4.0494700000     1.5760400000     5.4748700000
   23      H       3.1012400000     1.7534800000     6.9525400000
   24      H      -2.1838300000    -0.6115500000     3.2038900000
   25      H      -1.3529700000    -1.8608700000     4.1823000000
   26      H      -4.0109000000     2.0023300000     6.4199700000
   27      H      -3.6035500000     1.8831000000     4.6783100000
   28      H       1.0603500000     3.7655300000     3.9826200000
   29      H       2.2710400000    -0.0488600000     5.1111200000
   30      GH      0.2227000000     1.0448800000     0.5859500000
   31      GH      0.6262600000    -0.4135300000     0.9987100000
   32      GH     -1.1820000000     1.2322300000     0.0437700000
   33      GH     -0.3745700000    -1.5164300000     0.7233300000
   34      GH     -2.0917200000     0.7883200000     0.9396600000
   35      GH     -1.4733600000     1.7593900000    -0.9988200000
   36      GH     -0.9136400000    -1.4279200000    -0.5062000000
   37      GH     -0.6220800000    -2.4087700000     1.4991100000
   38      GH     -1.8613400000    -2.4474100000    -0.8656000000
   39      GH     -3.4706800000     0.8749200000     0.5392000000
   40      GH      1.3300800000     1.3997400000    -0.4349100000
   41      GH      2.6307000000     1.7170000000     0.3285500000
   42      GH      3.0433600000     0.2935100000     0.8030000000
   43      GH      1.9442300000    -0.5929900000     0.1526200000
   44      GH      1.6284000000     0.1366300000    -1.0437600000
   45      GH      0.2781100000     1.6878600000     1.4690000000
   46      GH      0.8392300000    -0.4804200000     2.0640800000
   47      GH     -2.6874900000    -2.4667700000    -0.1529600000
   48      GH     -3.7607600000     1.9152200000     0.3840600000
   49      GH      3.3723400000     2.1378200000    -0.3519500000
   50      GH      2.4823600000     2.4248800000     1.1465100000
   51      GH      4.0218200000     0.0099400000     0.4116100000
   52      GH      3.0735900000     0.1873800000     1.8892800000
   53      GH     -2.2114800000    -2.1776500000    -1.8593700000
   54      GH     -1.3806200000    -3.4269700000    -0.8809600000
   55      GH     -4.0385500000     0.4362300000     1.3567100000
   56      GH     -3.6312000000     0.3170000000    -0.3849500000
   57      GH      1.0327000000     2.1994300000    -1.0806400000
   58      GH      2.2433900000    -1.6149600000     0.0478600000
 ----------------------------------------------------------------

   14    -765.8590269031      6.74E-09 Convergence criterion met
 Total energy in the final basis set = -765.85902690

                    Orbital Energies (a.u.)
 --------------------------------------------------------------

 Alpha MOs
 -- Occupied --
-19.176 -19.174 -19.136 -19.120 -19.116 -10.310 -10.306 -10.242
-10.232 -10.232 -10.230 -10.207 -10.206 -10.182 -10.180  -1.120
 -1.113  -1.065  -1.031  -1.027  -0.833  -0.785  -0.778  -0.740
 -0.729  -0.659  -0.610  -0.596  -0.580  -0.567  -0.551  -0.520
 -0.506  -0.496  -0.489  -0.484  -0.475  -0.473  -0.462  -0.439
 -0.427  -0.425  -0.418  -0.399  -0.385  -0.376  -0.371  -0.369
 -0.362  -0.356  -0.337  -0.334  -0.320  -0.313  -0.290  -0.282
 -0.276

          Ground-State Mulliken Net Atomic Charges

     Atom                 Charge (a.u.)
  ----------------------------------------
      1 C                    -0.075747
      2 C                     0.258986
      3 C                    -0.495613
      4 C                    -0.534686
      5 O                     0.025177
      6 O                    -0.119889
      7 O                    -0.000528
      8 O                    -0.147287
      9 C                    -0.350482
     10 C                    -0.159642
     11 C                    -0.107506
     12 C                    -0.646504
     13 C                    -0.485524
     14 C                    -0.090875
     15 O                     0.187009
     16 H                     0.242848
     17 H                     0.287075
     18 H                     0.229087
     19 H                     0.169252
     20 H                     0.183174
     21 H                     0.134257
     22 H                     0.178703
     23 H                     0.128158
     24 H                     0.101558
     25 H                     0.202096
     26 H                     0.166468
     27 H                     0.183274
     28 H                     0.268489
     29 H                     0.254401
     30 GH                   -0.106590
     31 GH                    0.096014
     32 GH                   -0.004695
     33 GH                    0.001401
     34 GH                   -0.000671
     35 GH                    0.000161
     36 GH                    0.000626
     37 GH                   -0.001054
     38 GH                    0.001537
     39 GH                    0.008620
     40 GH                   -0.039579
     41 GH                    0.027055
     42 GH                   -0.020771
     43 GH                    0.026637
     44 GH                    0.000497
     45 GH                    0.013125
     46 GH                    0.009864
     47 GH                    0.001218
     48 GH                    0.000160
     49 GH                   -0.002130
     50 GH                   -0.001247
     51 GH                   -0.001903
     52 GH                    0.000046
     53 GH                    0.000102
     54 GH                   -0.000314
     55 GH                    0.004143
     56 GH                    0.000577
     57 GH                    0.000932
     58 GH                    0.000513
  ----------------------------------------
  Sum of atomic charges =     0.000000

                    Cartesian Multipole Moments
 -----------------------------------------------------------------
    Charge (ESU x 10^10)
                 0.0000
    Dipole Moment (Debye)
         X      -0.0097      Y       0.7295      Z       1.2054
       Tot       1.4090
    Quadrupole Moments (Debye-Ang)
        XX     -75.1809     XY       2.9515     YY     -87.4272
        XZ       3.3238     YZ      16.2654     ZZ     -83.6381

 Total job time:  6347.28s(wall), 6332.10s(cpu)
        *  Thank you very much for using Q-Chem.  Have a nice day.  *
