 Q-Chem 5.0, Q-Chem, Inc., Pleasanton, CA (2017)
 Q-Chem 5.0.1 for Intel X86 EM64T Linux

User input:
--------------------------------------------------------------
$molecule
0  1
--
0  1
C        +0.22270000        +1.04488000        +0.58595000
C        +0.62626000        -0.41353000        +0.99871000
C        -1.18200000        +1.23223000        +0.04377000
C        -0.37457000        -1.51643000        +0.72333000
O        -2.09172000        +0.78832000        +0.93966000
O        -1.47336000        +1.75939000        -0.99882000
O        -0.91364000        -1.42792000        -0.50620000
O        -0.62208000        -2.40877000        +1.49911000
C        -1.86134000        -2.44741000        -0.86560000
C        -3.47068000        +0.87492000        +0.53920000
C        +1.33008000        +1.39974000        -0.43491000
C        +2.63070000        +1.71700000        +0.32855000
C        +3.04336000        +0.29351000        +0.80300000
C        +1.94423000        -0.59299000        +0.15262000
O        +1.62840000        +0.13663000        -1.04376000
H        +0.27811000        +1.68786000        +1.46900000
H        +0.83923000        -0.48042000        +2.06408000
H        -2.68749000        -2.46677000        -0.15296000
H        -3.76076000        +1.91522000        +0.38406000
H        +3.37234000        +2.13782000        -0.35195000
H        +2.48236000        +2.42488000        +1.14651000
H        +4.02182000        +0.00994000        +0.41161000
H        +3.07359000        +0.18738000        +1.88928000
H        -2.21148000        -2.17765000        -1.85937000
H        -1.38062000        -3.42697000        -0.88096000
H        -4.03855000        +0.43623000        +1.35671000
H        -3.63120000        +0.31700000        -0.38495000
H        +1.03270000        +2.19943000        -1.08064000
H        +2.24339000        -1.61496000        +0.04786000
--
0  1
C        +0.25035000        +2.61098000        +5.64921000
C        +0.65391000        +1.15257000        +6.06197000
C        -1.15435000        +2.79833000        +5.10703000
C        -0.34692000        +0.04967000        +5.78659000
O        -2.06407000        +2.35442000        +6.00292000
O        -1.44571000        +3.32549000        +4.06444000
O        -0.88599000        +0.13818000        +4.55706000
O        -0.59443000        -0.84267000        +6.56237000
C        -1.83369000        -0.88131000        +4.19766000
C        -3.44303000        +2.44102000        +5.60246000
C        +1.35773000        +2.96584000        +4.62835000
C        +2.65835000        +3.28310000        +5.39181000
C        +3.07101000        +1.85961000        +5.86626000
C        +1.97188000        +0.97311000        +5.21588000
O        +1.65605000        +1.70273000        +4.01950000
H        +0.30576000        +3.25396000        +6.53226000
H        +0.86688000        +1.08568000        +7.12734000
H        -2.65984000        -0.90067000        +4.91030000
H        -3.73311000        +3.48132000        +5.44732000
H        +3.39999000        +3.70392000        +4.71131000
H        +2.51001000        +3.99098000        +6.20977000
H        +4.04947000        +1.57604000        +5.47487000
H        +3.10124000        +1.75348000        +6.95254000
H        -2.18383000        -0.61155000        +3.20389000
H        -1.35297000        -1.86087000        +4.18230000
H        -4.01090000        +2.00233000        +6.41997000
H        -3.60355000        +1.88310000        +4.67831000
H        +1.06035000        +3.76553000        +3.98262000
H        +2.27104000        -0.04886000        +5.11112000
$end

$rem
JOBTYPE                   SP
METHOD                    B3LYP
DFT_D                     d3_op
BASIS                     6-311++G(d,p)
SYMMETRY                  False
THRESH                    12
SCF_CONVERGENCE           8
MAX_SUB_FILE_NUM          128
MEM_STATIC                400
MEM_TOTAL                 4000
$end
--------------------------------------------------------------

             Standard Nuclear Orientation (Angstroms)
    I     Atom           X                Y                Z
 ----------------------------------------------------------------
    1      C      -1.8779488632     0.6231336982     0.8680728897
    2      C      -1.9766270579     0.7093029072    -0.6949462083
    3      C      -2.4118132989    -0.6424548195     1.5126779882
    4      C      -2.6865922102    -0.4211633964    -1.4104031687
    5      O      -1.7905708846    -1.7269766910     0.9977647610
    6      O      -3.2204371231    -0.6958425223     2.4032168629
    7      O      -3.8399611958    -0.7670902172    -0.8101956018
    8      O      -2.2908606456    -0.9210050773    -2.4365227071
    9      C      -4.5956803923    -1.8200253975    -1.4321919944
   10      C      -2.2256300251    -3.0038698125     1.4974306029
   11      C      -2.6340659126     1.9018667910     1.3010854861
   12      C      -1.7235456949     3.1235394084     1.0695548997
   13      C      -1.7517513107     3.2163621082    -0.4836042190
   14      C      -2.7427460882     2.0776671109    -0.8554458591
   15      O      -3.6257293807     2.0560359819     0.2773787686
   16      H      -0.8239868717     0.6700973960     1.1565679202
   17      H      -0.9906344529     0.7627720110    -1.1529891842
   18      H      -3.9913515821    -2.7250009538    -1.5131878785
   19      H      -2.0252586020    -3.0861631566     2.5667846202
   20      H      -2.1627726138     4.0111965697     1.5270962525
   21      H      -0.7211399040     2.9916411515     1.4817962025
   22      H      -2.1520117063     4.1745010455    -0.8193771203
   23      H      -0.7720675705     3.0819297436    -0.9465614274
   24      H      -5.4527747451    -1.9818395466    -0.7824591711
   25      H      -4.9214428921    -1.5183564697    -2.4290571273
   26      H      -1.6531601564    -3.7434203081     0.9419207766
   27      H      -3.2951427481    -3.1331734037     1.3227373405
   28      H      -2.9768248499     1.8365689413     2.3125985583
   29      H      -3.1789085182     2.2068199582    -1.8239374290
   30      C       3.4030398416     0.2425249902     0.6307316353
   31      C       3.3043616470     0.3286941991    -0.9322874627
   32      C       2.8691754060    -1.0230635276     1.2753367337
   33      C       2.5943964947    -0.8017721044    -1.6477444232
   34      O       3.4904178202    -2.1075853990     0.7604235065
   35      O       2.0605515817    -1.0764512303     2.1658756084
   36      O       1.4410275090    -1.1476989253    -1.0475368562
   37      O       2.9901280592    -1.3016137853    -2.6738639615
   38      C       0.6853083125    -2.2006341055    -1.6695332488
   39      C       3.0553586797    -3.3844785206     1.2600893484
   40      C       2.6469227922     1.5212580829     1.0637442317
   41      C       3.5574430100     2.7429307004     0.8322136452
   42      C       3.5292373941     2.8357534002    -0.7209454734
   43      C       2.5382426166     1.6970584029    -1.0927871136
   44      O       1.6552593241     1.6754272738     0.0400375141
   45      H       4.4570018331     0.2894886880     0.9192266657
   46      H       4.2903542519     0.3821633029    -1.3903304387
   47      H       1.2896371227    -3.1056096618    -1.7505291330
   48      H       3.2557301028    -3.4667718646     2.3294433657
   49      H       3.1182160910     3.6305878617     1.2897549981
   50      H       4.5598488009     2.6110324435     1.2444549481
   51      H       3.1289769985     3.7938923374    -1.0567183748
   52      H       4.5089211343     2.7013210356    -1.1839026818
   53      H      -0.1717860403    -2.3624482546    -1.0198004255
   54      H       0.3595458127    -1.8989651778    -2.6663983818
   55      H       3.6278285484    -4.1240290161     0.7045795221
   56      H       1.9858459567    -3.5137821118     1.0853960860
   57      H       2.3041638549     1.4559602333     2.0752573038
   58      H       2.1020801866     1.8262112501    -2.0612786834
 ----------------------------------------------------------------

   15   -1531.7301564999      5.19E-09 Convergence criterion met
 Total energy in the final basis set = -1531.73015650

                    Orbital Energies (a.u.)
 --------------------------------------------------------------

 Alpha MOs
 -- Occupied --
-19.179 -19.171 -19.170 -19.170 -19.147 -19.127 -19.125 -19.116
-19.114 -19.112 -10.314 -10.306 -10.303 -10.302 -10.249 -10.240
-10.235 -10.234 -10.229 -10.228 -10.221 -10.219 -10.212 -10.210
-10.196 -10.193 -10.189 -10.187 -10.172 -10.169  -1.123  -1.116
 -1.113  -1.108  -1.075  -1.056  -1.036  -1.026  -1.025  -1.024
 -0.839  -0.823  -0.791  -0.784  -0.776  -0.769  -0.742  -0.734
 -0.727  -0.724  -0.662  -0.650  -0.615  -0.603  -0.603  -0.586
 -0.583  -0.574  -0.568  -0.561  -0.555  -0.544  -0.524  -0.512
 -0.510  -0.501  -0.500  -0.491  -0.488  -0.487  -0.482  -0.479
 -0.476  -0.474  -0.471  -0.466  -0.465  -0.453  -0.444  -0.432
 -0.430  -0.426  -0.422  -0.419  -0.418  -0.411  -0.400  -0.394
 -0.390  -0.377  -0.376  -0.375  -0.374  -0.371  -0.366  -0.364
 -0.360  -0.358  -0.354  -0.345  -0.344  -0.341  -0.328  -0.324
 -0.323  -0.316  -0.311  -0.309  -0.295  -0.288  -0.284  -0.281
 -0.277  -0.267

          Ground-State Mulliken Net Atomic Charges

     Atom                 Charge (a.u.)
  ----------------------------------------
      1 C                    -0.033048
      2 C                     0.920117
      3 C                    -0.586009
      4 C                    -0.870598
      5 O                     0.028967
      6 O                    -0.177049
      7 O                     0.020822
      8 O                    -0.121595
      9 C                    -0.195267
     10 C                    -0.262405
     11 C                    -0.489434
     12 C                    -0.244358
     13 C                    -0.427172
     14 C                    -0.223156
     15 O                    -0.088238
     16 H                     0.235256
     17 H                     0.378336
     18 H                     0.185069
     19 H                     0.191831
     20 H                     0.201999
     21 H                     0.111192
     22 H                     0.194829
     23 H                     0.089055
     24 H                     0.174705
     25 H                     0.174412
     26 H                     0.125970
     27 H                     0.187455
     28 H                     0.278740
     29 H                     0.261773
     30 C                    -0.060638
     31 C                     0.270534
     32 C                    -0.456224
     33 C                    -0.529116
     34 O                     0.027161
     35 O                    -0.128133
     36 O                    -0.004227
     37 O                    -0.144480
     38 C                    -0.386241
     39 C                    -0.163899
     40 C                    -0.166941
     41 C                    -0.648571
     42 C                    -0.485312
     43 C                    -0.128323
     44 O                     0.180778
     45 H                     0.246502
     46 H                     0.290937
     47 H                     0.216182
     48 H                     0.169322
     49 H                     0.181622
     50 H                     0.138814
     51 H                     0.178980
     52 H                     0.132206
     53 H                     0.125048
     54 H                     0.226106
     55 H                     0.167854
     56 H                     0.181704
     57 H                     0.271308
     58 H                     0.254853
  ----------------------------------------
  Sum of atomic charges =     0.000000

                    Cartesian Multipole Moments
 -----------------------------------------------------------------
    Charge (ESU x 10^10)
                 0.0000
    Dipole Moment (Debye)
         X       3.2926      Y      -0.0597      Z       0.5804
       Tot       3.3438
    Quadrupole Moments (Debye-Ang)
        XX    -176.6352     XY      14.7713     YY    -154.2314
        XZ      17.3653     YZ      -7.1039     ZZ    -193.6602

 Total job time:  7450.28s(wall), 7432.57s(cpu)
        *  Thank you very much for using Q-Chem.  Have a nice day.  *
