 Q-Chem 5.0, Q-Chem, Inc., Pleasanton, CA (2017)
 Q-Chem 5.0.1 for Intel X86 EM64T Linux

User input:
--------------------------------------------------------------
$molecule
0  1
C        -0.50797000        -1.14582000        +5.21280000
C        -0.52062000        +0.25666000        +5.33462000
C        +0.78616000        -1.89988000        +5.18595000
C        +0.76490000        +1.02224000        +5.34567000
O        +1.57292000        -1.55388000        +6.22782000
O        +1.08349000        -2.74617000        +4.37881000
O        +1.57431000        +0.62089000        +4.34092000
O        +1.04682000        +1.90885000        +6.11447000
C        +2.87096000        +1.23909000        +4.28611000
C        +2.85963000        -2.19420000        +6.28444000
C        -1.70673000        -1.87828000        +5.15417000
C        -2.90305000        -1.16268000        +5.22684000
C        -2.91666000        +0.22043000        +5.34903000
C        -1.73514000        +0.96192000        +5.40779000
H        +2.77482000        +2.31777000        +4.15505000
H        +2.74425000        -3.27531000        +6.37524000
H        -3.86707000        +0.74113000        +5.39679000
H        +3.42645000        +1.03881000        +5.20425000
H        +3.36831000        +0.79057000        +3.42902000
H        +3.34742000        -1.78493000        +7.16619000
H        +3.43536000        -1.97146000        +5.38428000
H        -3.84245000        -1.70423000        +5.18981000
H        -1.75239000        +1.98952000        +5.50145000
H        -1.70231000        -2.90605000        +5.06094000
@C        -0.54444000        -0.68370000        -0.06689000
@C        -0.55709000        +0.71878000        +0.05493000
@C        +0.74969000        -1.43776000        -0.09374000
@C        +0.72843000        +1.48436000        +0.06598000
@O        +1.53645000        -1.09176000        +0.94813000
@O        +1.04702000        -2.28405000        -0.90088000
@O        +1.53784000        +1.08301000        -0.93877000
@O        +1.01035000        +2.37097000        +0.83478000
@C        +2.83449000        +1.70121000        -0.99358000
@C        +2.82316000        -1.73208000        +1.00475000
@C        -1.74320000        -1.41616000        -0.12552000
@C        -2.93952000        -0.70056000        -0.05285000
@C        -2.95313000        +0.68255000        +0.06934000
@C        -1.77161000        +1.42404000        +0.12810000
@H        +2.73835000        +2.77989000        -1.12464000
@H        +2.70778000        -2.81319000        +1.09555000
@H        -3.90354000        +1.20325000        +0.11710000
@H        +3.38998000        +1.50093000        -0.07544000
@H        +3.33184000        +1.25269000        -1.85067000
@H        +3.31095000        -1.32281000        +1.88650000
@H        +3.39889000        -1.50934000        +0.10459000
@H        -3.87892000        -1.24211000        -0.08988000
@H        -1.78886000        +2.45164000        +0.22176000
@H        -1.73878000        -2.44393000        -0.21875000
$end

$rem
JOBTYPE                   SP
METHOD                    B3LYP
DFT_D                     d3_op
BASIS                     6-311++G(d,p)
SYMMETRY                  False
THRESH                    12
SCF_CONVERGENCE           8
MAX_SUB_FILE_NUM          128
MEM_STATIC                400
MEM_TOTAL                 4000
$end
--------------------------------------------------------------

             Standard Nuclear Orientation (Angstroms)
    I     Atom           X                Y                Z
 ----------------------------------------------------------------
    1      C      -0.5079700000    -1.1458200000     5.2128000000
    2      C      -0.5206200000     0.2566600000     5.3346200000
    3      C       0.7861600000    -1.8998800000     5.1859500000
    4      C       0.7649000000     1.0222400000     5.3456700000
    5      O       1.5729200000    -1.5538800000     6.2278200000
    6      O       1.0834900000    -2.7461700000     4.3788100000
    7      O       1.5743100000     0.6208900000     4.3409200000
    8      O       1.0468200000     1.9088500000     6.1144700000
    9      C       2.8709600000     1.2390900000     4.2861100000
   10      C       2.8596300000    -2.1942000000     6.2844400000
   11      C      -1.7067300000    -1.8782800000     5.1541700000
   12      C      -2.9030500000    -1.1626800000     5.2268400000
   13      C      -2.9166600000     0.2204300000     5.3490300000
   14      C      -1.7351400000     0.9619200000     5.4077900000
   15      H       2.7748200000     2.3177700000     4.1550500000
   16      H       2.7442500000    -3.2753100000     6.3752400000
   17      H      -3.8670700000     0.7411300000     5.3967900000
   18      H       3.4264500000     1.0388100000     5.2042500000
   19      H       3.3683100000     0.7905700000     3.4290200000
   20      H       3.3474200000    -1.7849300000     7.1661900000
   21      H       3.4353600000    -1.9714600000     5.3842800000
   22      H      -3.8424500000    -1.7042300000     5.1898100000
   23      H      -1.7523900000     1.9895200000     5.5014500000
   24      H      -1.7023100000    -2.9060500000     5.0609400000
   25      GH     -0.5444400000    -0.6837000000    -0.0668900000
   26      GH     -0.5570900000     0.7187800000     0.0549300000
   27      GH      0.7496900000    -1.4377600000    -0.0937400000
   28      GH      0.7284300000     1.4843600000     0.0659800000
   29      GH      1.5364500000    -1.0917600000     0.9481300000
   30      GH      1.0470200000    -2.2840500000    -0.9008800000
   31      GH      1.5378400000     1.0830100000    -0.9387700000
   32      GH      1.0103500000     2.3709700000     0.8347800000
   33      GH      2.8344900000     1.7012100000    -0.9935800000
   34      GH      2.8231600000    -1.7320800000     1.0047500000
   35      GH     -1.7432000000    -1.4161600000    -0.1255200000
   36      GH     -2.9395200000    -0.7005600000    -0.0528500000
   37      GH     -2.9531300000     0.6825500000     0.0693400000
   38      GH     -1.7716100000     1.4240400000     0.1281000000
   39      GH      2.7383500000     2.7798900000    -1.1246400000
   40      GH      2.7077800000    -2.8131900000     1.0955500000
   41      GH     -3.9035400000     1.2032500000     0.1171000000
   42      GH      3.3899800000     1.5009300000    -0.0754400000
   43      GH      3.3318400000     1.2526900000    -1.8506700000
   44      GH      3.3109500000    -1.3228100000     1.8865000000
   45      GH      3.3988900000    -1.5093400000     0.1045900000
   46      GH     -3.8789200000    -1.2421100000    -0.0898800000
   47      GH     -1.7888600000     2.4516400000     0.2217600000
   48      GH     -1.7387800000    -2.4439300000    -0.2187500000
 ----------------------------------------------------------------

   14    -688.2110994691      5.71E-09 Convergence criterion met
 Total energy in the final basis set = -688.21109947

                    Orbital Energies (a.u.)
 --------------------------------------------------------------

 Alpha MOs
 -- Occupied --
-19.178 -19.178 -19.122 -19.122 -10.314 -10.314 -10.233 -10.233
-10.215 -10.214 -10.198 -10.198 -10.197 -10.197  -1.123  -1.117
 -1.033  -1.032  -0.887  -0.800  -0.787  -0.744  -0.733  -0.656
 -0.646  -0.596  -0.579  -0.555  -0.524  -0.516  -0.493  -0.492
 -0.485  -0.479  -0.472  -0.468  -0.440  -0.431  -0.416  -0.408
 -0.389  -0.387  -0.384  -0.369  -0.366  -0.324  -0.315  -0.301
 -0.297  -0.275  -0.272

          Ground-State Mulliken Net Atomic Charges

     Atom                 Charge (a.u.)
  ----------------------------------------
      1 C                     1.016512
      2 C                     0.744157
      3 C                    -0.969534
      4 C                    -0.614543
      5 O                     0.074311
      6 O                    -0.104880
      7 O                     0.076516
      8 O                    -0.177474
      9 C                    -0.359381
     10 C                    -0.182575
     11 C                    -0.420176
     12 C                    -0.190467
     13 C                    -0.272618
     14 C                    -0.397448
     15 H                     0.198366
     16 H                     0.169426
     17 H                     0.180897
     18 H                     0.193821
     19 H                     0.116464
     20 H                     0.171142
     21 H                     0.178170
     22 H                     0.185041
     23 H                     0.201934
     24 H                     0.189394
     25 GH                    0.097477
     26 GH                   -0.094358
     27 GH                   -0.030913
     28 GH                    0.048582
     29 GH                   -0.011012
     30 GH                   -0.000026
     31 GH                    0.000177
     32 GH                   -0.004086
     33 GH                   -0.004334
     34 GH                   -0.002784
     35 GH                   -0.004468
     36 GH                    0.012419
     37 GH                   -0.019539
     38 GH                   -0.004688
     39 GH                    0.000376
     40 GH                   -0.001339
     41 GH                   -0.000788
     42 GH                    0.001792
     43 GH                   -0.000292
     44 GH                    0.010483
     45 GH                    0.000815
     46 GH                    0.000215
     47 GH                    0.001188
     48 GH                   -0.001950
  ----------------------------------------
  Sum of atomic charges =     0.000000

                    Cartesian Multipole Moments
 -----------------------------------------------------------------
    Charge (ESU x 10^10)
                 0.0000
    Dipole Moment (Debye)
         X      -0.0465      Y      -0.1168      Z       0.0574
       Tot       0.1382
    Quadrupole Moments (Debye-Ang)
        XX     -61.3347     XY      -0.0478     YY     -84.2143
        XZ      -0.1134     YZ     -10.3560     ZZ     -86.4397

 Total job time:  1155.63s(wall), 2292.67s(cpu)
        *  Thank you very much for using Q-Chem.  Have a nice day.  *
