 Q-Chem 5.0, Q-Chem, Inc., Pleasanton, CA (2017)
 Q-Chem 5.0.1 for Intel X86 EM64T Linux

User input:
--------------------------------------------------------------
$molecule
0  1
--
0  1
C        -0.54444000        -0.68370000        -0.06689000
C        -0.55709000        +0.71878000        +0.05493000
C        +0.74969000        -1.43776000        -0.09374000
C        +0.72843000        +1.48436000        +0.06598000
O        +1.53645000        -1.09176000        +0.94813000
O        +1.04702000        -2.28405000        -0.90088000
O        +1.53784000        +1.08301000        -0.93877000
O        +1.01035000        +2.37097000        +0.83478000
C        +2.83449000        +1.70121000        -0.99358000
C        +2.82316000        -1.73208000        +1.00475000
C        -1.74320000        -1.41616000        -0.12552000
C        -2.93952000        -0.70056000        -0.05285000
C        -2.95313000        +0.68255000        +0.06934000
C        -1.77161000        +1.42404000        +0.12810000
H        +2.73835000        +2.77989000        -1.12464000
H        +2.70778000        -2.81319000        +1.09555000
H        -3.90354000        +1.20325000        +0.11710000
H        +3.38998000        +1.50093000        -0.07544000
H        +3.33184000        +1.25269000        -1.85067000
H        +3.31095000        -1.32281000        +1.88650000
H        +3.39889000        -1.50934000        +0.10459000
H        -3.87892000        -1.24211000        -0.08988000
H        -1.78886000        +2.45164000        +0.22176000
H        -1.73878000        -2.44393000        -0.21875000
--
0  1
C        -0.50797000        -1.14582000        +5.21280000
C        -0.52062000        +0.25666000        +5.33462000
C        +0.78616000        -1.89988000        +5.18595000
C        +0.76490000        +1.02224000        +5.34567000
O        +1.57292000        -1.55388000        +6.22782000
O        +1.08349000        -2.74617000        +4.37881000
O        +1.57431000        +0.62089000        +4.34092000
O        +1.04682000        +1.90885000        +6.11447000
C        +2.87096000        +1.23909000        +4.28611000
C        +2.85963000        -2.19420000        +6.28444000
C        -1.70673000        -1.87828000        +5.15417000
C        -2.90305000        -1.16268000        +5.22684000
C        -2.91666000        +0.22043000        +5.34903000
C        -1.73514000        +0.96192000        +5.40779000
H        +2.77482000        +2.31777000        +4.15505000
H        +2.74425000        -3.27531000        +6.37524000
H        -3.86707000        +0.74113000        +5.39679000
H        +3.42645000        +1.03881000        +5.20425000
H        +3.36831000        +0.79057000        +3.42902000
H        +3.34742000        -1.78493000        +7.16619000
H        +3.43536000        -1.97146000        +5.38428000
H        -3.84245000        -1.70423000        +5.18981000
H        -1.75239000        +1.98952000        +5.50145000
H        -1.70231000        -2.90605000        +5.06094000
$end

$rem
JOBTYPE                   SP
METHOD                    B3LYP
DFT_D                     d3_op
BASIS                     6-311++G(d,p)
SYMMETRY                  False
THRESH                    12
SCF_CONVERGENCE           8
MAX_SUB_FILE_NUM          128
MEM_STATIC                400
MEM_TOTAL                 4000
$end
--------------------------------------------------------------

             Standard Nuclear Orientation (Angstroms)
    I     Atom           X                Y                Z
 ----------------------------------------------------------------
    1      C      -2.6229117191     0.8067796492     0.8311510340
    2      C      -2.6945808056     0.8279804475    -0.5746812296
    3      C      -2.5320134330    -0.4913883972     1.5731733302
    4      C      -2.7744860658    -0.4534173792    -1.3430764850
    5      O      -1.5388438384    -1.2640888338     1.0825119541
    6      O      -3.2122625478    -0.8024720657     2.5200497559
    7      O      -3.7058407117    -1.2766012408    -0.8132691741
    8      O      -2.1314012564    -0.7217819238    -2.3284860534
    9      C      -3.8306621212    -2.5706500826    -1.4267296941
   10      C      -1.3809360352    -2.5532795063     1.7004850009
   11      C      -2.5937242567     2.0010338407     1.5726803216
   12      C      -2.6328970285     3.2017428486     0.8618292798
   13      C      -2.7015556908     3.2238095664    -0.5248602847
   14      C      -2.7320404548     2.0468413387    -1.2752376153
   15      H      -4.1093504400    -2.4705806319    -2.4766292567
   16      H      -1.1441065102    -2.4423315312     2.7597103496
   17      H      -2.7360028186     4.1773465300    -1.0408732014
   18      H      -2.8877163623    -3.1163265072    -1.3577890433
   19      H      -4.6127086174    -3.0803044991    -0.8683515655
   20      H      -0.5583073541    -3.0285940384     1.1710681252
   21      H      -2.2967747097    -3.1384052130     1.5993237642
   22      H      -2.6056392808     4.1378813181     1.4095717051
   23      H      -2.7802794237     2.0704075839    -2.3058438214
   24      H      -2.5451764357     1.9903007328     2.6034812003
   25      C       2.6703764074     0.8299844495     0.5654937387
   26      C       2.5987073209     0.8511852478    -0.8403385250
   27      C       2.7612746934    -0.4681835969     1.3075160348
   28      C       2.5188020607    -0.4302125789    -1.6087337803
   29      O       3.7544442880    -1.2408840336     0.8168546587
   30      O       2.0810255787    -0.7792672655     2.2543924606
   31      O       1.5874474148    -1.2533964405    -1.0789264695
   32      O       3.1618868701    -0.6985771235    -2.5941433488
   33      C       1.4626260053    -2.5474452823    -1.6923869894
   34      C       3.9123520913    -2.5300747060     1.4348277055
   35      C       2.6995638698     2.0242386410     1.3070230262
   36      C       2.6603910980     3.2249476489     0.5961719845
   37      C       2.5917324357     3.2470143667    -0.7905175801
   38      C       2.5612476717     2.0700461390    -1.5408949106
   39      H       1.1839376865    -2.4473758316    -2.7422865520
   40      H       4.1491816163    -2.4191267309     2.4940530543
   41      H       2.5572853079     4.2005513303    -1.3065304967
   42      H       2.4055717642    -3.0931217070    -1.6234463386
   43      H       0.6805795090    -3.0570996989    -1.1340088609
   44      H       4.7349807724    -3.0053892381     0.9054108299
   45      H       2.9965134168    -3.1152004127     1.3336664688
   46      H       2.6876488457     4.1610861184     1.1439144097
   47      H       2.5130087028     2.0936123841    -2.5715011167
   48      H       2.7481116908     2.0135055331     2.3378239050
 ----------------------------------------------------------------

   15   -1376.4255207454      5.65E-09 Convergence criterion met
 Total energy in the final basis set = -1376.42552075

                    Orbital Energies (a.u.)
 --------------------------------------------------------------

 Alpha MOs
 -- Occupied --
-19.178 -19.177 -19.172 -19.171 -19.121 -19.121 -19.117 -19.116
-10.313 -10.313 -10.309 -10.308 -10.234 -10.233 -10.228 -10.227
-10.212 -10.211 -10.211 -10.211 -10.195 -10.195 -10.195 -10.195
-10.195 -10.194 -10.194 -10.194  -1.121  -1.120  -1.112  -1.112
 -1.032  -1.031  -1.027  -1.026  -0.884  -0.884  -0.797  -0.797
 -0.784  -0.784  -0.741  -0.741  -0.730  -0.729  -0.653  -0.653
 -0.643  -0.643  -0.593  -0.593  -0.576  -0.575  -0.552  -0.551
 -0.521  -0.520  -0.513  -0.512  -0.491  -0.491  -0.488  -0.487
 -0.483  -0.480  -0.477  -0.475  -0.469  -0.469  -0.465  -0.465
 -0.439  -0.437  -0.430  -0.427  -0.413  -0.413  -0.405  -0.404
 -0.386  -0.386  -0.385  -0.383  -0.381  -0.380  -0.367  -0.366
 -0.363  -0.361  -0.321  -0.321  -0.311  -0.310  -0.299  -0.299
 -0.294  -0.293  -0.273  -0.272  -0.269  -0.268

          Ground-State Mulliken Net Atomic Charges

     Atom                 Charge (a.u.)
  ----------------------------------------
      1 C                     0.789361
      2 C                     0.962522
      3 C                    -0.685073
      4 C                    -0.880669
      5 O                     0.095796
      6 O                    -0.179225
      7 O                     0.069517
      8 O                    -0.128377
      9 C                    -0.184102
     10 C                    -0.337132
     11 C                    -0.383493
     12 C                    -0.248468
     13 C                    -0.209333
     14 C                    -0.439018
     15 H                     0.170115
     16 H                     0.200788
     17 H                     0.180345
     18 H                     0.175507
     19 H                     0.172907
     20 H                     0.105634
     21 H                     0.187102
     22 H                     0.178598
     23 H                     0.189148
     24 H                     0.199229
     25 C                     0.947259
     26 C                     0.827599
     27 C                    -0.933511
     28 C                    -0.643860
     29 O                     0.077743
     30 O                    -0.117105
     31 O                     0.079474
     32 O                    -0.181685
     33 C                    -0.344724
     34 C                    -0.182063
     35 C                    -0.429504
     36 C                    -0.205780
     37 C                    -0.259465
     38 C                    -0.397510
     39 H                     0.203895
     40 H                     0.169513
     41 H                     0.178207
     42 H                     0.191493
     43 H                     0.102071
     44 H                     0.171638
     45 H                     0.174995
     46 H                     0.180990
     47 H                     0.200504
     48 H                     0.188148
  ----------------------------------------
  Sum of atomic charges =     0.000000

                    Cartesian Multipole Moments
 -----------------------------------------------------------------
    Charge (ESU x 10^10)
                 0.0000
    Dipole Moment (Debye)
         X       0.1895      Y       0.1713      Z       0.2052
       Tot       0.3277
    Quadrupole Moments (Debye-Ang)
        XX    -170.1349     XY      -0.7932     YY    -124.5748
        XZ      18.8723     YZ       0.5252     ZZ    -173.8584

 Total job time:  1250.17s(wall), 2488.04s(cpu)
        *  Thank you very much for using Q-Chem.  Have a nice day.  *
