 Q-Chem 5.0, Q-Chem, Inc., Pleasanton, CA (2017)
 Q-Chem 5.0.1 for Intel X86 EM64T Linux

User input:
--------------------------------------------------------------
$molecule
0  1
--
0  1
C        +0.22270000        +1.04488000        +0.58595000
C        +0.62626000        -0.41353000        +0.99871000
C        -1.18200000        +1.23223000        +0.04377000
C        -0.37457000        -1.51643000        +0.72333000
O        -2.09172000        +0.78832000        +0.93966000
O        -1.47336000        +1.75939000        -0.99882000
O        -0.91364000        -1.42792000        -0.50620000
O        -0.62208000        -2.40877000        +1.49911000
C        -1.86134000        -2.44741000        -0.86560000
C        -3.47068000        +0.87492000        +0.53920000
C        +1.33008000        +1.39974000        -0.43491000
C        +2.63070000        +1.71700000        +0.32855000
C        +3.04336000        +0.29351000        +0.80300000
C        +1.94423000        -0.59299000        +0.15262000
O        +1.62840000        +0.13663000        -1.04376000
H        +0.27811000        +1.68786000        +1.46900000
H        +0.83923000        -0.48042000        +2.06408000
H        -2.68749000        -2.46677000        -0.15296000
H        -3.76076000        +1.91522000        +0.38406000
H        +3.37234000        +2.13782000        -0.35195000
H        +2.48236000        +2.42488000        +1.14651000
H        +4.02182000        +0.00994000        +0.41161000
H        +3.07359000        +0.18738000        +1.88928000
H        -2.21148000        -2.17765000        -1.85937000
H        -1.38062000        -3.42697000        -0.88096000
H        -4.03855000        +0.43623000        +1.35671000
H        -3.63120000        +0.31700000        -0.38495000
C        +2.35450000        -2.01267000        -0.16812000
H        +3.26311000        -2.00678000        -0.77366000
H        +2.54990000        -2.57059000        +0.75079000
H        +1.57335000        -2.52896000        -0.72872000
H        +1.03270000        +2.19943000        -1.08064000
--
0  1
C        +0.25035000        +2.61098000        +5.64921000
C        +0.65391000        +1.15257000        +6.06197000
C        -1.15435000        +2.79833000        +5.10703000
C        -0.34692000        +0.04967000        +5.78659000
O        -2.06407000        +2.35442000        +6.00292000
O        -1.44571000        +3.32549000        +4.06444000
O        -0.88599000        +0.13818000        +4.55706000
O        -0.59443000        -0.84267000        +6.56237000
C        -1.83369000        -0.88131000        +4.19766000
C        -3.44303000        +2.44102000        +5.60246000
C        +1.35773000        +2.96584000        +4.62835000
C        +2.65835000        +3.28310000        +5.39181000
C        +3.07101000        +1.85961000        +5.86626000
C        +1.97188000        +0.97311000        +5.21588000
O        +1.65605000        +1.70273000        +4.01950000
H        +0.30576000        +3.25396000        +6.53226000
H        +0.86688000        +1.08568000        +7.12734000
H        -2.65984000        -0.90067000        +4.91030000
H        -3.73311000        +3.48132000        +5.44732000
H        +3.39999000        +3.70392000        +4.71131000
H        +2.51001000        +3.99098000        +6.20977000
H        +4.04947000        +1.57604000        +5.47487000
H        +3.10124000        +1.75348000        +6.95254000
H        -2.18383000        -0.61155000        +3.20389000
H        -1.35297000        -1.86087000        +4.18230000
H        -4.01090000        +2.00233000        +6.41997000
H        -3.60355000        +1.88310000        +4.67831000
C        +2.38215000        -0.44657000        +4.89514000
H        +3.29076000        -0.44068000        +4.28960000
H        +2.57755000        -1.00449000        +5.81405000
H        +1.60100000        -0.96286000        +4.33454000
H        +1.06035000        +3.76553000        +3.98262000
$end

$rem
JOBTYPE                   SP
METHOD                    B3LYP
DFT_D                     d3_op
BASIS                     6-311++G(d,p)
SYMMETRY                  False
THRESH                    12
SCF_CONVERGENCE           8
MAX_SUB_FILE_NUM          128
MEM_STATIC                400
MEM_TOTAL                 4000
$end
--------------------------------------------------------------

             Standard Nuclear Orientation (Angstroms)
    I     Atom           X                Y                Z
 ----------------------------------------------------------------
    1      C      -1.8071965312     0.2112519680     1.1253434638
    2      C      -1.9458900187     0.5709739495    -0.3950365650
    3      C      -2.2730540643    -1.1718531159     1.5403595484
    4      C      -2.6250522570    -0.4440562369    -1.2907684545
    5      O      -1.6197197480    -2.1178521882     0.8293704592
    6      O      -3.0577251361    -1.4198302150     2.4193253559
    7      O      -3.7487762802    -0.9431183430    -0.7445488651
    8      O      -2.2331061396    -0.7341130139    -2.3960339390
    9      C      -4.4746600288    -1.9007090921    -1.5337106044
   10      C      -1.9898067501    -3.4817207220     1.0982508910
   11      C      -2.6051986559     1.3567256633     1.7927667523
   12      C      -1.7516317356     2.6397127008     1.7702892578
   13      C      -1.8199766297     3.0073732860     0.2597034351
   14      C      -2.7714727423     1.9102098712    -0.2951395521
   15      O      -3.6260644363     1.6467896839     0.8290054025
   16      H      -0.7496172344     0.2531200819     1.4011041264
   17      H      -0.9739362853     0.7496621193    -0.8513480902
   18      H      -3.8354926928    -2.7485790461    -1.7853771679
   19      H      -1.7612435132    -3.7448064808     2.1321675445
   20      H      -2.2163589319     3.4106452573     2.3866424343
   21      H      -0.7352606966     2.4813457539     2.1364411837
   22      H      -2.2672535058     3.9911672802     0.1077994468
   23      H      -0.8466709547     3.0019756013    -0.2350981376
   24      H      -5.3088973356    -2.2143749004    -0.9103253569
   25      H      -4.8358469513    -1.4405938512    -2.4549616092
   26      H      -1.4004021851    -4.0835901505     0.4100624699
   27      H      -3.0568527492    -3.6255623919     0.9198776051
   28      C      -3.5788149293     2.2999828719    -1.5129090393
   29      H      -4.1214558565     3.2266812001    -1.3152817424
   30      H      -2.9225049343     2.4552136027    -2.3725671604
   31      H      -4.3051857148     1.5256601198    -1.7655605862
   32      H      -2.9212083754     1.0963160297     2.7813166364
   33      C       3.4780140900     0.1165530421     0.7411347145
   34      C       3.3393206025     0.4762750237    -0.7792453142
   35      C       3.0121565570    -1.2665520418     1.1561507992
   36      C       2.6601583642    -0.5387551628    -1.6749772037
   37      O       3.6654908733    -2.2125511141     0.4451617100
   38      O       2.2274854852    -1.5145291409     2.0351166067
   39      O       1.5364343410    -1.0378172689    -1.1287576143
   40      O       3.0521044816    -0.8288119398    -2.7802426883
   41      C       0.8105505924    -1.9954080179    -1.9179193537
   42      C       3.2954038711    -3.5764196479     0.7140421418
   43      C       2.6800119653     1.2620267374     1.4085580031
   44      C       3.5335788856     2.5450137749     1.3860805085
   45      C       3.4652339915     2.9126743601    -0.1245053142
   46      C       2.5137378790     1.8155109454    -0.6793483014
   47      O       1.6591461849     1.5520907580     0.4447966533
   48      H       4.5355933868     0.1584211561     1.0168953771
   49      H       4.3112743359     0.6549631934    -1.2355568394
   50      H       1.4497179285    -2.8432779720    -2.1695859171
   51      H       3.5239671080    -3.8395054066     1.7479587953
   52      H       3.0688516893     3.3159463315     2.0024336851
   53      H       4.5499499246     2.3866468280     1.7522324344
   54      H       3.0179571154     3.8964683543    -0.2764093024
   55      H       4.4385396665     2.9072766754    -0.6193068868
   56      H      -0.0236867143    -2.3090738263    -1.2945341061
   57      H       0.4493636699    -1.5352927771    -2.8391703584
   58      H       3.8848084361    -4.1782890763     0.0258537207
   59      H       2.2283578720    -3.7202613178     0.5356688559
   60      C       1.7063956919     2.2052839460    -1.8971177885
   61      H       1.1637547647     3.1319822742    -1.6994904917
   62      H       2.3627056870     2.3605146769    -2.7567759096
   63      H       0.9800249065     1.4309611939    -2.1497693355
   64      H       2.3640022459     1.0016171038     2.3971078871
 ----------------------------------------------------------------

   15   -1610.4075809739      5.28E-09 Convergence criterion met
 Total energy in the final basis set = -1610.40758097

                    Orbital Energies (a.u.)
 --------------------------------------------------------------

 Alpha MOs
 -- Occupied --
-19.178 -19.171 -19.171 -19.169 -19.141 -19.123 -19.122 -19.115
-19.114 -19.111 -10.313 -10.306 -10.303 -10.301 -10.252 -10.238
-10.236 -10.234 -10.229 -10.229 -10.219 -10.219 -10.210 -10.208
-10.195 -10.192 -10.185 -10.184 -10.177 -10.169 -10.167 -10.166
 -1.122  -1.116  -1.113  -1.108  -1.072  -1.054  -1.034  -1.026
 -1.026  -1.023  -0.838  -0.823  -0.802  -0.789  -0.788  -0.775
 -0.747  -0.742  -0.728  -0.724  -0.702  -0.690  -0.659  -0.647
 -0.610  -0.599  -0.596  -0.582  -0.568  -0.566  -0.565  -0.555
 -0.538  -0.526  -0.521  -0.514  -0.511  -0.504  -0.497  -0.493
 -0.486  -0.485  -0.484  -0.478  -0.476  -0.473  -0.471  -0.467
 -0.464  -0.453  -0.447  -0.438  -0.436  -0.428  -0.427  -0.419
 -0.417  -0.410  -0.409  -0.399  -0.398  -0.395  -0.393  -0.386
 -0.383  -0.375  -0.373  -0.372  -0.369  -0.365  -0.364  -0.358
 -0.357  -0.352  -0.346  -0.342  -0.339  -0.337  -0.325  -0.323
 -0.321  -0.316  -0.311  -0.309  -0.293  -0.286  -0.284  -0.280
 -0.276  -0.265

          Ground-State Mulliken Net Atomic Charges

     Atom                 Charge (a.u.)
  ----------------------------------------
      1 C                    -0.124271
      2 C                     0.941926
      3 C                    -0.696340
      4 C                    -0.770891
      5 O                     0.032491
      6 O                    -0.169162
      7 O                     0.060417
      8 O                    -0.085854
      9 C                    -0.171105
     10 C                    -0.264687
     11 C                    -0.324120
     12 C                    -0.394526
     13 C                    -0.238801
     14 C                    -0.474635
     15 O                     0.021035
     16 H                     0.255516
     17 H                     0.210360
     18 H                     0.192734
     19 H                     0.193199
     20 H                     0.198512
     21 H                     0.120250
     22 H                     0.190394
     23 H                     0.061830
     24 H                     0.180994
     25 H                     0.175314
     26 H                     0.125327
     27 H                     0.187316
     28 C                    -0.278285
     29 H                     0.183788
     30 H                     0.158292
     31 H                     0.183835
     32 H                     0.286244
     33 C                    -0.010526
     34 C                     0.468504
     35 C                    -0.628130
     36 C                    -0.872178
     37 O                     0.024814
     38 O                    -0.110062
     39 O                     0.055057
     40 O                    -0.094405
     41 C                    -0.353380
     42 C                    -0.159805
     43 C                    -0.128923
     44 C                    -0.677680
     45 C                    -0.312699
     46 C                    -0.315159
     47 O                     0.239904
     48 H                     0.248770
     49 H                     0.286633
     50 H                     0.215681
     51 H                     0.170342
     52 H                     0.177612
     53 H                     0.142173
     54 H                     0.168491
     55 H                     0.147656
     56 H                     0.131190
     57 H                     0.228225
     58 H                     0.165864
     59 H                     0.180172
     60 C                    -0.241236
     61 H                     0.199755
     62 H                     0.195558
     63 H                     0.215691
     64 H                     0.274993
  ----------------------------------------
  Sum of atomic charges =     0.000000

                    Cartesian Multipole Moments
 -----------------------------------------------------------------
    Charge (ESU x 10^10)
                 0.0000
    Dipole Moment (Debye)
         X       2.9729      Y       0.0651      Z       0.1436
       Tot       2.9771
    Quadrupole Moments (Debye-Ang)
        XX    -189.1939     XY       9.1762     YY    -165.2134
        XZ      19.7314     YZ       0.4679     ZZ    -208.5632

 Total job time:  7043.78s(wall), 7027.46s(cpu)
        *  Thank you very much for using Q-Chem.  Have a nice day.  *
