 Q-Chem 5.0, Q-Chem, Inc., Pleasanton, CA (2017)
 Q-Chem 5.0.1 for Intel X86 EM64T Linux

User input:
--------------------------------------------------------------
$molecule
0  1
C        +0.22270000        +1.04488000        +0.58595000
C        +0.62626000        -0.41353000        +0.99871000
C        -1.18200000        +1.23223000        +0.04377000
C        -0.37457000        -1.51643000        +0.72333000
O        -2.09172000        +0.78832000        +0.93966000
O        -1.47336000        +1.75939000        -0.99882000
O        -0.91364000        -1.42792000        -0.50620000
O        -0.62208000        -2.40877000        +1.49911000
C        -1.86134000        -2.44741000        -0.86560000
C        -3.47068000        +0.87492000        +0.53920000
C        +1.33008000        +1.39974000        -0.43491000
C        +2.63070000        +1.71700000        +0.32855000
C        +3.04336000        +0.29351000        +0.80300000
C        +1.94423000        -0.59299000        +0.15262000
O        +1.62840000        +0.13663000        -1.04376000
H        +0.27811000        +1.68786000        +1.46900000
H        +0.83923000        -0.48042000        +2.06408000
H        -2.68749000        -2.46677000        -0.15296000
H        -3.76076000        +1.91522000        +0.38406000
H        +3.37234000        +2.13782000        -0.35195000
H        +2.48236000        +2.42488000        +1.14651000
H        +4.02182000        +0.00994000        +0.41161000
H        +3.07359000        +0.18738000        +1.88928000
H        -2.21148000        -2.17765000        -1.85937000
H        -1.38062000        -3.42697000        -0.88096000
H        -4.03855000        +0.43623000        +1.35671000
H        -3.63120000        +0.31700000        -0.38495000
C        +0.90028000        +2.39077000        -1.49430000
C        +2.35450000        -2.01267000        -0.16812000
H        +3.26311000        -2.00678000        -0.77366000
H        +2.54990000        -2.57059000        +0.75079000
H        +1.57335000        -2.52896000        -0.72872000
H        +1.71845000        +2.58186000        -2.15686000
H        +0.59919000        +3.30478000        -1.02650000
H        +0.07925000        +1.98653000        -2.04874000
@C        +0.25035000        +2.61098000        +5.64921000
@C        +0.65391000        +1.15257000        +6.06197000
@C        -1.15435000        +2.79833000        +5.10703000
@C        -0.34692000        +0.04967000        +5.78659000
@O        -2.06407000        +2.35442000        +6.00292000
@O        -1.44571000        +3.32549000        +4.06444000
@O        -0.88599000        +0.13818000        +4.55706000
@O        -0.59443000        -0.84267000        +6.56237000
@C        -1.83369000        -0.88131000        +4.19766000
@C        -3.44303000        +2.44102000        +5.60246000
@C        +1.35773000        +2.96584000        +4.62835000
@C        +2.65835000        +3.28310000        +5.39181000
@C        +3.07101000        +1.85961000        +5.86626000
@C        +1.97188000        +0.97311000        +5.21588000
@O        +1.65605000        +1.70273000        +4.01950000
@H        +0.30576000        +3.25396000        +6.53226000
@H        +0.86688000        +1.08568000        +7.12734000
@H        -2.65984000        -0.90067000        +4.91030000
@H        -3.73311000        +3.48132000        +5.44732000
@H        +3.39999000        +3.70392000        +4.71131000
@H        +2.51001000        +3.99098000        +6.20977000
@H        +4.04947000        +1.57604000        +5.47487000
@H        +3.10124000        +1.75348000        +6.95254000
@H        -2.18383000        -0.61155000        +3.20389000
@H        -1.35297000        -1.86087000        +4.18230000
@H        -4.01090000        +2.00233000        +6.41997000
@H        -3.60355000        +1.88310000        +4.67831000
@C        +0.92793000        +3.95687000        +3.56896000
@C        +2.38215000        -0.44657000        +4.89514000
@H        +3.29076000        -0.44068000        +4.28960000
@H        +2.57755000        -1.00449000        +5.81405000
@H        +1.60100000        -0.96286000        +4.33454000
@H        +1.74610000        +4.14796000        +2.90640000
@H        +0.62684000        +4.87088000        +4.03676000
@H        +0.10690000        +3.55263000        +3.01452000
$end

$rem
JOBTYPE                   SP
METHOD                    B3LYP
DFT_D                     d3_op
BASIS                     6-311++G(d,p)
SYMMETRY                  False
THRESH                    12
SCF_CONVERGENCE           8
MAX_SUB_FILE_NUM          128
MEM_STATIC                400
MEM_TOTAL                 4000
$end
--------------------------------------------------------------

             Standard Nuclear Orientation (Angstroms)
    I     Atom           X                Y                Z
 ----------------------------------------------------------------
    1      C       0.2227000000     1.0448800000     0.5859500000
    2      C       0.6262600000    -0.4135300000     0.9987100000
    3      C      -1.1820000000     1.2322300000     0.0437700000
    4      C      -0.3745700000    -1.5164300000     0.7233300000
    5      O      -2.0917200000     0.7883200000     0.9396600000
    6      O      -1.4733600000     1.7593900000    -0.9988200000
    7      O      -0.9136400000    -1.4279200000    -0.5062000000
    8      O      -0.6220800000    -2.4087700000     1.4991100000
    9      C      -1.8613400000    -2.4474100000    -0.8656000000
   10      C      -3.4706800000     0.8749200000     0.5392000000
   11      C       1.3300800000     1.3997400000    -0.4349100000
   12      C       2.6307000000     1.7170000000     0.3285500000
   13      C       3.0433600000     0.2935100000     0.8030000000
   14      C       1.9442300000    -0.5929900000     0.1526200000
   15      O       1.6284000000     0.1366300000    -1.0437600000
   16      H       0.2781100000     1.6878600000     1.4690000000
   17      H       0.8392300000    -0.4804200000     2.0640800000
   18      H      -2.6874900000    -2.4667700000    -0.1529600000
   19      H      -3.7607600000     1.9152200000     0.3840600000
   20      H       3.3723400000     2.1378200000    -0.3519500000
   21      H       2.4823600000     2.4248800000     1.1465100000
   22      H       4.0218200000     0.0099400000     0.4116100000
   23      H       3.0735900000     0.1873800000     1.8892800000
   24      H      -2.2114800000    -2.1776500000    -1.8593700000
   25      H      -1.3806200000    -3.4269700000    -0.8809600000
   26      H      -4.0385500000     0.4362300000     1.3567100000
   27      H      -3.6312000000     0.3170000000    -0.3849500000
   28      C       0.9002800000     2.3907700000    -1.4943000000
   29      C       2.3545000000    -2.0126700000    -0.1681200000
   30      H       3.2631100000    -2.0067800000    -0.7736600000
   31      H       2.5499000000    -2.5705900000     0.7507900000
   32      H       1.5733500000    -2.5289600000    -0.7287200000
   33      H       1.7184500000     2.5818600000    -2.1568600000
   34      H       0.5991900000     3.3047800000    -1.0265000000
   35      H       0.0792500000     1.9865300000    -2.0487400000
   36      GH      0.2503500000     2.6109800000     5.6492100000
   37      GH      0.6539100000     1.1525700000     6.0619700000
   38      GH     -1.1543500000     2.7983300000     5.1070300000
   39      GH     -0.3469200000     0.0496700000     5.7865900000
   40      GH     -2.0640700000     2.3544200000     6.0029200000
   41      GH     -1.4457100000     3.3254900000     4.0644400000
   42      GH     -0.8859900000     0.1381800000     4.5570600000
   43      GH     -0.5944300000    -0.8426700000     6.5623700000
   44      GH     -1.8336900000    -0.8813100000     4.1976600000
   45      GH     -3.4430300000     2.4410200000     5.6024600000
   46      GH      1.3577300000     2.9658400000     4.6283500000
   47      GH      2.6583500000     3.2831000000     5.3918100000
   48      GH      3.0710100000     1.8596100000     5.8662600000
   49      GH      1.9718800000     0.9731100000     5.2158800000
   50      GH      1.6560500000     1.7027300000     4.0195000000
   51      GH      0.3057600000     3.2539600000     6.5322600000
   52      GH      0.8668800000     1.0856800000     7.1273400000
   53      GH     -2.6598400000    -0.9006700000     4.9103000000
   54      GH     -3.7331100000     3.4813200000     5.4473200000
   55      GH      3.3999900000     3.7039200000     4.7113100000
   56      GH      2.5100100000     3.9909800000     6.2097700000
   57      GH      4.0494700000     1.5760400000     5.4748700000
   58      GH      3.1012400000     1.7534800000     6.9525400000
   59      GH     -2.1838300000    -0.6115500000     3.2038900000
   60      GH     -1.3529700000    -1.8608700000     4.1823000000
   61      GH     -4.0109000000     2.0023300000     6.4199700000
   62      GH     -3.6035500000     1.8831000000     4.6783100000
   63      GH      0.9279300000     3.9568700000     3.5689600000
   64      GH      2.3821500000    -0.4465700000     4.8951400000
   65      GH      3.2907600000    -0.4406800000     4.2896000000
   66      GH      2.5775500000    -1.0044900000     5.8140500000
   67      GH      1.6010000000    -0.9628600000     4.3345400000
   68      GH      1.7461000000     4.1479600000     2.9064000000
   69      GH      0.6268400000     4.8708800000     4.0367600000
   70      GH      0.1069000000     3.5526300000     3.0145200000
 ----------------------------------------------------------------

   14    -844.5177323843      5.81E-09 Convergence criterion met
 Total energy in the final basis set = -844.51773238

                    Orbital Energies (a.u.)
 --------------------------------------------------------------

 Alpha MOs
 -- Occupied --
-19.176 -19.174 -19.125 -19.117 -19.116 -10.311 -10.306 -10.242
-10.232 -10.231 -10.231 -10.204 -10.203 -10.178 -10.175 -10.169
-10.136  -1.121  -1.114  -1.061  -1.034  -1.027  -0.832  -0.804
 -0.784  -0.748  -0.730  -0.720  -0.674  -0.644  -0.603  -0.579
 -0.570  -0.561  -0.525  -0.514  -0.508  -0.493  -0.489  -0.480
 -0.476  -0.471  -0.459  -0.442  -0.435  -0.433  -0.414  -0.411
 -0.403  -0.399  -0.395  -0.374  -0.372  -0.364  -0.358  -0.355
 -0.349  -0.346  -0.333  -0.328  -0.321  -0.313  -0.284  -0.272
 -0.270

          Ground-State Mulliken Net Atomic Charges

     Atom                 Charge (a.u.)
  ----------------------------------------
      1 C                     0.142343
      2 C                     0.630606
      3 C                    -0.500539
      4 C                    -0.600292
      5 O                     0.079482
      6 O                    -0.111812
      7 O                     0.046612
      8 O                    -0.072579
      9 C                    -0.159005
     10 C                    -0.276815
     11 C                    -0.844409
     12 C                    -0.141852
     13 C                    -0.021658
     14 C                    -0.805026
     15 O                     0.185266
     16 H                     0.134305
     17 H                     0.187380
     18 H                     0.194895
     19 H                     0.188501
     20 H                     0.201638
     21 H                     0.142302
     22 H                     0.202757
     23 H                     0.113228
     24 H                     0.174898
     25 H                     0.177816
     26 H                     0.136774
     27 H                     0.190957
     28 C                    -0.404500
     29 C                    -0.210849
     30 H                     0.176707
     31 H                     0.170121
     32 H                     0.184842
     33 H                     0.143109
     34 H                     0.145825
     35 H                     0.206332
     36 GH                    0.005953
     37 GH                    0.003813
     38 GH                    0.005886
     39 GH                    0.021166
     40 GH                    0.000662
     41 GH                   -0.003130
     42 GH                    0.003990
     43 GH                    0.000450
     44 GH                   -0.027587
     45 GH                    0.001631
     46 GH                   -0.043419
     47 GH                   -0.002830
     48 GH                   -0.005304
     49 GH                   -0.052914
     50 GH                    0.008146
     51 GH                    0.000170
     52 GH                    0.000415
     53 GH                   -0.002420
     54 GH                    0.000222
     55 GH                    0.001077
     56 GH                    0.000035
     57 GH                    0.000088
     58 GH                    0.000060
     59 GH                    0.022456
     60 GH                   -0.001255
     61 GH                   -0.000122
     62 GH                   -0.001249
     63 GH                   -0.000774
     64 GH                    0.014411
     65 GH                    0.014246
     66 GH                   -0.000570
     67 GH                    0.002980
     68 GH                    0.006254
     69 GH                   -0.000682
     70 GH                    0.020789
  ----------------------------------------
  Sum of atomic charges =     0.000000

                    Cartesian Multipole Moments
 -----------------------------------------------------------------
    Charge (ESU x 10^10)
                 0.0000
    Dipole Moment (Debye)
         X      -0.3293      Y       0.5008      Z       0.9155
       Tot       1.0943
    Quadrupole Moments (Debye-Ang)
        XX     -89.0383     XY       1.8240     YY    -103.5092
        XZ       3.4952     YZ      10.8070     ZZ    -108.3694

 Total job time:  3655.99s(wall), 7276.04s(cpu)
        *  Thank you very much for using Q-Chem.  Have a nice day.  *
