 Q-Chem 5.0, Q-Chem, Inc., Pleasanton, CA (2017)
 Q-Chem 5.0.1 for Intel X86 EM64T Linux

User input:
--------------------------------------------------------------
$molecule
0  1
--
0  1
C        +0.22270000        +1.04488000        +0.58595000
C        +0.62626000        -0.41353000        +0.99871000
C        -1.18200000        +1.23223000        +0.04377000
C        -0.37457000        -1.51643000        +0.72333000
O        -2.09172000        +0.78832000        +0.93966000
O        -1.47336000        +1.75939000        -0.99882000
O        -0.91364000        -1.42792000        -0.50620000
O        -0.62208000        -2.40877000        +1.49911000
C        -1.86134000        -2.44741000        -0.86560000
C        -3.47068000        +0.87492000        +0.53920000
C        +1.33008000        +1.39974000        -0.43491000
C        +2.63070000        +1.71700000        +0.32855000
C        +3.04336000        +0.29351000        +0.80300000
C        +1.94423000        -0.59299000        +0.15262000
O        +1.62840000        +0.13663000        -1.04376000
H        +0.27811000        +1.68786000        +1.46900000
H        +0.83923000        -0.48042000        +2.06408000
H        -2.68749000        -2.46677000        -0.15296000
H        -3.76076000        +1.91522000        +0.38406000
H        +3.37234000        +2.13782000        -0.35195000
H        +2.48236000        +2.42488000        +1.14651000
H        +4.02182000        +0.00994000        +0.41161000
H        +3.07359000        +0.18738000        +1.88928000
H        -2.21148000        -2.17765000        -1.85937000
H        -1.38062000        -3.42697000        -0.88096000
H        -4.03855000        +0.43623000        +1.35671000
H        -3.63120000        +0.31700000        -0.38495000
C        +0.90028000        +2.39077000        -1.49430000
C        +2.35450000        -2.01267000        -0.16812000
H        +3.26311000        -2.00678000        -0.77366000
H        +2.54990000        -2.57059000        +0.75079000
H        +1.57335000        -2.52896000        -0.72872000
H        +1.71845000        +2.58186000        -2.15686000
H        +0.59919000        +3.30478000        -1.02650000
H        +0.07925000        +1.98653000        -2.04874000
--
0  1
C        +0.25035000        +2.61098000        +5.64921000
C        +0.65391000        +1.15257000        +6.06197000
C        -1.15435000        +2.79833000        +5.10703000
C        -0.34692000        +0.04967000        +5.78659000
O        -2.06407000        +2.35442000        +6.00292000
O        -1.44571000        +3.32549000        +4.06444000
O        -0.88599000        +0.13818000        +4.55706000
O        -0.59443000        -0.84267000        +6.56237000
C        -1.83369000        -0.88131000        +4.19766000
C        -3.44303000        +2.44102000        +5.60246000
C        +1.35773000        +2.96584000        +4.62835000
C        +2.65835000        +3.28310000        +5.39181000
C        +3.07101000        +1.85961000        +5.86626000
C        +1.97188000        +0.97311000        +5.21588000
O        +1.65605000        +1.70273000        +4.01950000
H        +0.30576000        +3.25396000        +6.53226000
H        +0.86688000        +1.08568000        +7.12734000
H        -2.65984000        -0.90067000        +4.91030000
H        -3.73311000        +3.48132000        +5.44732000
H        +3.39999000        +3.70392000        +4.71131000
H        +2.51001000        +3.99098000        +6.20977000
H        +4.04947000        +1.57604000        +5.47487000
H        +3.10124000        +1.75348000        +6.95254000
H        -2.18383000        -0.61155000        +3.20389000
H        -1.35297000        -1.86087000        +4.18230000
H        -4.01090000        +2.00233000        +6.41997000
H        -3.60355000        +1.88310000        +4.67831000
C        +0.92793000        +3.95687000        +3.56896000
C        +2.38215000        -0.44657000        +4.89514000
H        +3.29076000        -0.44068000        +4.28960000
H        +2.57755000        -1.00449000        +5.81405000
H        +1.60100000        -0.96286000        +4.33454000
H        +1.74610000        +4.14796000        +2.90640000
H        +0.62684000        +4.87088000        +4.03676000
H        +0.10690000        +3.55263000        +3.01452000
$end

$rem
JOBTYPE                   SP
METHOD                    B3LYP
DFT_D                     d3_op
BASIS                     6-311++G(d,p)
SYMMETRY                  False
THRESH                    12
SCF_CONVERGENCE           8
MAX_SUB_FILE_NUM          128
MEM_STATIC                400
MEM_TOTAL                 4000
$end
--------------------------------------------------------------

             Standard Nuclear Orientation (Angstroms)
    I     Atom           X                Y                Z
 ----------------------------------------------------------------
    1      C      -1.7923624784     0.2549792061     0.8581467238
    2      C      -1.8917405862     0.4023494817    -0.7002489938
    3      C      -2.2534990879    -1.0659322640     1.4453325382
    4      C      -2.5329284737    -0.7355699222    -1.4669958663
    5      O      -1.5689333561    -2.0895201146     0.8877456575
    6      O      -3.0600107593    -1.2042819874     2.3286108076
    7      O      -3.6658361523    -1.1731975325    -0.8880513333
    8      O      -2.1061081653    -1.1671050522    -2.5114901651
    9      C      -4.3574527500    -2.2404531717    -1.5583463373
   10      C      -1.9303912636    -3.4097564944     1.3301510549
   11      C      -2.6226413910     1.4679769475     1.3415147309
   12      C      -1.7840290489     2.7491635167     1.1670791321
   13      C      -1.8134665562     2.9068291248    -0.3808193941
   14      C      -2.7356402937     1.7296608328    -0.8060646899
   15      O      -3.6188723043     1.6082692700     0.3202498051
   16      H      -0.7436772718     0.3504874689     1.1537957727
   17      H      -0.9093105361     0.5324773610    -1.1505174265
   18      H      -3.7013529098    -3.1045818246    -1.6748326998
   19      H      -1.7284098317    -3.5261633040     2.3960271602
   20      H      -2.2752975185     3.5894086272     1.6598702208
   21      H      -0.7767485364     2.6579730441     1.5784520510
   22      H      -2.2678284653     3.8537081407    -0.6773955790
   23      H      -0.8264045117     2.8493904692    -0.8440590613
   24      H      -5.2054155185    -2.4794107981    -0.9205331310
   25      H      -4.6975508064    -1.9156202993    -2.5430708463
   26      H      -1.3144510012    -4.0903529999     0.7464954690
   27      H      -2.9901182849    -3.5931796862     1.1446000047
   28      C      -3.2898752318     1.2653330547     2.6842396198
   29      C      -3.5123616873     1.9375105161    -2.0867634479
   30      H      -4.0713682169     2.8738833791    -2.0319631100
   31      H      -2.8336040774     1.9846075559    -2.9417028904
   32      H      -4.2219875058     1.1247638054    -2.2507665837
   33      H      -3.8409858309     2.1446477349     2.9449810464
   34      H      -2.5442027503     1.0780076508     3.4284089901
   35      H      -3.9563030599     0.4300390236     2.6289062335
   36      C       3.5024288389     0.1915030986     0.6318918897
   37      C       3.4030507311     0.3388733743    -0.9265038279
   38      C       3.0412922294    -1.1294083714     1.2190777041
   39      C       2.7618628437    -0.7990460297    -1.6932507004
   40      O       3.7258579612    -2.1529962220     0.6614908234
   41      O       2.2347805580    -1.2677580949     2.1023559735
   42      O       1.6289551650    -1.2366736399    -1.1143061674
   43      O       3.1886831520    -1.2305811596    -2.7377449992
   44      C       0.9373385673    -2.3039292792    -1.7846011714
   45      C       3.3644000537    -3.4732326019     1.1038962208
   46      C       2.6721499263     1.4045008400     1.1152598968
   47      C       3.5107622684     2.6856874093     0.9408242980
   48      C       3.4813247611     2.8433530174    -0.6070742282
   49      C       2.5591510236     1.6661847254    -1.0323195240
   50      O       1.6759190130     1.5447931626     0.0939949710
   51      H       4.5511140456     0.2870113615     0.9275409386
   52      H       4.3854807812     0.4690012536    -1.3767722606
   53      H       1.5934384075    -3.1680579321    -1.9010875339
   54      H       3.5663814856    -3.5896394115     2.1697723261
   55      H       3.0194937988     3.5259325198     1.4336153867
   56      H       4.5180427809     2.5944969367     1.3521972169
   57      H       3.0269628521     3.7902320333    -0.9036504131
   58      H       4.4683868056     2.7859143618    -1.0703138954
   59      H       0.0893757988    -2.5428869056    -1.1467879651
   60      H       0.5972405110    -1.9790964067    -2.7693256804
   61      H       3.9803403161    -4.1538291073     0.5202406349
   62      H       2.3046730324    -3.6566557937     0.9183451706
   63      C       2.0049160855     1.2018569473     2.4579847857
   64      C       1.7824296300     1.8740344087    -2.3130182820
   65      H       1.2234231004     2.8104072717    -2.2582179441
   66      H       2.4611872399     1.9211314485    -3.1679577244
   67      H       1.0728038115     1.0612876980    -2.4770214178
   68      H       1.4538054864     2.0811716274     2.7187262123
   69      H       2.7505885670     1.0145315433     3.2021541560
   70      H       1.3384882574     0.3665629162     2.4026513994
 ----------------------------------------------------------------

   15   -1689.0494950368      5.38E-09 Convergence criterion met
 Total energy in the final basis set = -1689.04949504

                    Orbital Energies (a.u.)
 --------------------------------------------------------------

 Alpha MOs
 -- Occupied --
-19.179 -19.172 -19.172 -19.171 -19.134 -19.121 -19.116 -19.115
-19.115 -19.111 -10.315 -10.305 -10.304 -10.303 -10.249 -10.239
-10.235 -10.235 -10.231 -10.229 -10.222 -10.219 -10.209 -10.207
-10.194 -10.192 -10.183 -10.181 -10.174 -10.167 -10.164 -10.164
-10.146 -10.129  -1.123  -1.117  -1.113  -1.111  -1.070  -1.053
 -1.038  -1.028  -1.026  -1.026  -0.837  -0.823  -0.810  -0.796
 -0.789  -0.775  -0.748  -0.744  -0.731  -0.726  -0.725  -0.714
 -0.678  -0.668  -0.650  -0.636  -0.606  -0.597  -0.585  -0.573
 -0.570  -0.565  -0.564  -0.555  -0.528  -0.518  -0.516  -0.512
 -0.510  -0.501  -0.497  -0.491  -0.488  -0.484  -0.483  -0.477
 -0.475  -0.473  -0.472  -0.465  -0.463  -0.452  -0.446  -0.439
 -0.438  -0.434  -0.429  -0.429  -0.419  -0.413  -0.409  -0.408
 -0.405  -0.404  -0.397  -0.395  -0.394  -0.389  -0.377  -0.373
 -0.371  -0.369  -0.368  -0.363  -0.359  -0.357  -0.355  -0.352
 -0.350  -0.346  -0.341  -0.339  -0.336  -0.334  -0.326  -0.323
 -0.320  -0.318  -0.311  -0.310  -0.286  -0.281  -0.281  -0.274
 -0.264  -0.264

          Ground-State Mulliken Net Atomic Charges

     Atom                 Charge (a.u.)
  ----------------------------------------
      1 C                     0.156175
      2 C                     0.659758
      3 C                    -0.538348
      4 C                    -0.536662
      5 O                     0.069341
      6 O                    -0.115861
      7 O                     0.053775
      8 O                    -0.086526
      9 C                    -0.157647
     10 C                    -0.255482
     11 C                    -0.902542
     12 C                    -0.134265
     13 C                    -0.000710
     14 C                    -0.822005
     15 O                     0.179814
     16 H                     0.211043
     17 H                     0.105712
     18 H                     0.191813
     19 H                     0.191905
     20 H                     0.195964
     21 H                     0.141473
     22 H                     0.197379
     23 H                     0.095250
     24 H                     0.175641
     25 H                     0.177556
     26 H                     0.128538
     27 H                     0.191703
     28 C                    -0.401080
     29 C                    -0.209531
     30 H                     0.175878
     31 H                     0.165540
     32 H                     0.181712
     33 H                     0.140391
     34 H                     0.145494
     35 H                     0.204319
     36 C                    -0.110343
     37 C                     0.496766
     38 C                    -0.670915
     39 C                    -0.782107
     40 O                     0.052318
     41 O                    -0.076055
     42 O                     0.047013
     43 O                    -0.092995
     44 C                    -0.335326
     45 C                    -0.163174
     46 C                     0.025272
     47 C                    -0.361375
     48 C                    -0.413956
     49 C                    -0.278561
     50 O                     0.312514
     51 H                     0.263553
     52 H                     0.286366
     53 H                     0.216023
     54 H                     0.168131
     55 H                     0.174775
     56 H                     0.152912
     57 H                     0.168981
     58 H                     0.149432
     59 H                     0.140803
     60 H                     0.228465
     61 H                     0.166231
     62 H                     0.175932
     63 C                    -0.651666
     64 C                    -0.380318
     65 H                     0.204380
     66 H                     0.195187
     67 H                     0.215060
     68 H                     0.136052
     69 H                     0.172999
     70 H                     0.192113
  ----------------------------------------
  Sum of atomic charges =     0.000000

                    Cartesian Multipole Moments
 -----------------------------------------------------------------
    Charge (ESU x 10^10)
                 0.0000
    Dipole Moment (Debye)
         X       2.6593      Y      -0.5432      Z       0.4788
       Tot       2.7562
    Quadrupole Moments (Debye-Ang)
        XX    -202.7371     XY      11.6637     YY    -180.3734
        XZ      17.8350     YZ      -6.4212     ZZ    -220.6278

 Total job time:  3834.60s(wall), 7635.40s(cpu)
        *  Thank you very much for using Q-Chem.  Have a nice day.  *
