 Q-Chem 5.0, Q-Chem, Inc., Pleasanton, CA (2017)
 Q-Chem 5.0.1 for Intel X86 EM64T Linux

User input:
--------------------------------------------------------------
$molecule
0  1
--
0  1
C        -0.54444000        -0.68370000        -0.06689000
C        -0.55709000        +0.71878000        +0.05493000
C        +0.74969000        -1.43776000        -0.09374000
C        +0.72843000        +1.48436000        +0.06598000
O        +1.53645000        -1.09176000        +0.94813000
O        +1.04702000        -2.28405000        -0.90088000
O        +1.53784000        +1.08301000        -0.93877000
O        +1.01035000        +2.37097000        +0.83478000
C        +2.83449000        +1.70121000        -0.99358000
C        +2.82316000        -1.73208000        +1.00475000
C        -1.74320000        -1.41616000        -0.12552000
C        -2.93952000        -0.70056000        -0.05285000
C        -2.95313000        +0.68255000        +0.06934000
C        -1.77161000        +1.42404000        +0.12810000
H        +2.73835000        +2.77989000        -1.12464000
H        +2.70778000        -2.81319000        +1.09555000
H        -3.90354000        +1.20325000        +0.11710000
H        +3.38998000        +1.50093000        -0.07544000
H        +3.33184000        +1.25269000        -1.85067000
H        +3.31095000        -1.32281000        +1.88650000
H        +3.39889000        -1.50934000        +0.10459000
H        -3.87892000        -1.24211000        -0.08988000
C        -1.83960000        +2.92746000        +0.24839000
H        -1.24214000        +3.42352000        -0.52065000
H        -1.45503000        +3.26427000        +1.21284000
H        -2.87211000        +3.26623000        +0.14638000
H        -1.73878000        -2.44393000        -0.21875000
--
0  1
C        -0.50797000        -1.14582000        +5.21280000
C        -0.52062000        +0.25666000        +5.33462000
C        +0.78616000        -1.89988000        +5.18595000
C        +0.76490000        +1.02224000        +5.34567000
O        +1.57292000        -1.55388000        +6.22782000
O        +1.08349000        -2.74617000        +4.37881000
O        +1.57431000        +0.62089000        +4.34092000
O        +1.04682000        +1.90885000        +6.11447000
C        +2.87096000        +1.23909000        +4.28611000
C        +2.85963000        -2.19420000        +6.28444000
C        -1.70673000        -1.87828000        +5.15417000
C        -2.90305000        -1.16268000        +5.22684000
C        -2.91666000        +0.22043000        +5.34903000
C        -1.73514000        +0.96192000        +5.40779000
H        +2.77482000        +2.31777000        +4.15505000
H        +2.74425000        -3.27531000        +6.37524000
H        -3.86707000        +0.74113000        +5.39679000
H        +3.42645000        +1.03881000        +5.20425000
H        +3.36831000        +0.79057000        +3.42902000
H        +3.34742000        -1.78493000        +7.16619000
H        +3.43536000        -1.97146000        +5.38428000
H        -3.84245000        -1.70423000        +5.18981000
C        -1.80313000        +2.46534000        +5.52808000
H        -1.20567000        +2.96140000        +4.75904000
H        -1.41856000        +2.80215000        +6.49253000
H        -2.83564000        +2.80411000        +5.42607000
H        -1.70231000        -2.90605000        +5.06094000
$end

$rem
JOBTYPE                   SP
METHOD                    B3LYP
DFT_D                     d3_op
BASIS                     6-311++G(d,p)
SYMMETRY                  False
THRESH                    12
SCF_CONVERGENCE           8
MAX_SUB_FILE_NUM          128
MEM_STATIC                400
MEM_TOTAL                 4000
$end
--------------------------------------------------------------

             Standard Nuclear Orientation (Angstroms)
    I     Atom           X                Y                Z
 ----------------------------------------------------------------
    1      C      -2.6103715126     0.2279435617     1.2186772586
    2      C      -2.6869788827     0.7287781812    -0.0948090490
    3      C      -2.5075477052    -1.2450808714     1.4711176422
    4      C      -2.7602177689    -0.2125445070    -1.2555606035
    5      O      -1.5104845326    -1.7950581983     0.7447634832
    6      O      -3.1822978340    -1.8670604805     2.2546611968
    7      O      -3.6837767651    -1.1747934436    -1.0390780459
    8      O      -2.1185654140    -0.1220475494    -2.2737463305
    9      C      -3.8013111672    -2.1814236904    -2.0585670401
   10      C      -1.3411407742    -3.2166283819     0.8836845239
   11      C      -2.5873091597     1.0961931440     2.3243767913
   12      C      -2.6375971374     2.4673924647     2.0678044360
   13      C      -2.7111352676     2.9625083543     0.7725973871
   14      C      -2.7356501999     2.1135187559    -0.3354934702
   15      H      -4.0842903367    -1.7300476264    -3.0104875221
   16      H      -1.1015155590    -3.4732840802     1.9166722417
   17      H      -2.7542442044     4.0347998094     0.6144160651
   18      H      -2.8542088879    -2.7101752275    -2.1813732397
   19      H      -4.5777401896    -2.8577111899    -1.7079623165
   20      H      -0.5168987860    -3.4753014777     0.2228990412
   21      H      -2.2530569173    -3.7389987856     0.5888892129
   22      H      -2.6152549484     3.1595011149     2.9030328038
   23      C      -2.8289534864     2.7007248033    -1.7232425740
   24      H      -3.6490626206     2.2603567086    -2.2959147716
   25      H      -1.9145427282     2.5193699462    -2.2911001659
   26      H      -2.9962629132     3.7776964743    -1.6650392346
   27      H      -2.5351751541     0.7334541901     3.2891177093
   28      C       2.6816744507     0.3829204095     0.9732324574
   29      C       2.6050670806     0.8837550290    -0.3402538501
   30      C       2.7844982581    -1.0901040235     1.2256728410
   31      C       2.5318281944    -0.0575676592    -1.5010054047
   32      O       3.7815614307    -1.6400813505     0.4993186820
   33      O       2.1097481293    -1.7120836327     2.0092163957
   34      O       1.6082691982    -1.0198165958    -1.2845228471
   35      O       3.1734805493     0.0329292984    -2.5191911317
   36      C       1.4907347961    -2.0264468425    -2.3040118413
   37      C       3.9509051891    -3.0616515340     0.6382397227
   38      C       2.7047368036     1.2511699919     2.0789319901
   39      C       2.6544488259     2.6223693126     1.8223596348
   40      C       2.5809106957     3.1174852022     0.5271525859
   41      C       2.5563957634     2.2684956037    -0.5809382714
   42      H       1.2077556266    -1.5750707785    -3.2559323233
   43      H       4.1905304043    -3.3183072323     1.6712274405
   44      H       2.5378017589     4.1897766573     0.3689712639
   45      H       2.4378370753    -2.5551983797    -2.4268180409
   46      H       0.7143057737    -2.7027343420    -1.9534071177
   47      H       4.7751471773    -3.3203246298    -0.0225457600
   48      H       3.0389890460    -3.5840219378     0.3434444117
   49      H       2.6767910149     3.3144779627     2.6575880026
   50      C       2.4630924769     2.8557016512    -1.9686873752
   51      H       1.6429833427     2.4153335564    -2.5413595728
   52      H       3.3775032351     2.6743467940    -2.5365449671
   53      H       2.2957830501     3.9326733222    -1.9104840358
   54      H       2.7568708092     0.8884310380     3.0436729082
 ----------------------------------------------------------------

   15   -1455.0923745551      6.19E-09 Convergence criterion met
 Total energy in the final basis set = -1455.09237456

                    Orbital Energies (a.u.)
 --------------------------------------------------------------

 Alpha MOs
 -- Occupied --
-19.176 -19.176 -19.172 -19.169 -19.120 -19.119 -19.117 -19.113
-10.312 -10.311 -10.308 -10.306 -10.233 -10.232 -10.228 -10.226
-10.208 -10.207 -10.205 -10.205 -10.204 -10.204 -10.191 -10.190
-10.189 -10.187 -10.187 -10.187 -10.173 -10.170  -1.120  -1.119
 -1.112  -1.110  -1.032  -1.030  -1.028  -1.024  -0.883  -0.883
 -0.799  -0.798  -0.792  -0.792  -0.744  -0.744  -0.729  -0.727
 -0.702  -0.701  -0.652  -0.651  -0.624  -0.624  -0.579  -0.577
 -0.574  -0.570  -0.547  -0.546  -0.519  -0.517  -0.511  -0.510
 -0.490  -0.490  -0.486  -0.486  -0.481  -0.478  -0.476  -0.474
 -0.470  -0.469  -0.445  -0.443  -0.434  -0.432  -0.430  -0.429
 -0.427  -0.424  -0.411  -0.409  -0.404  -0.402  -0.393  -0.393
 -0.382  -0.380  -0.376  -0.374  -0.368  -0.367  -0.363  -0.362
 -0.360  -0.358  -0.320  -0.319  -0.311  -0.309  -0.295  -0.294
 -0.291  -0.290  -0.267  -0.265  -0.262  -0.260

          Ground-State Mulliken Net Atomic Charges

     Atom                 Charge (a.u.)
  ----------------------------------------
      1 C                     0.434348
      2 C                     1.137707
      3 C                    -0.494198
      4 C                    -0.997527
      5 O                     0.110318
      6 O                    -0.178531
      7 O                     0.089938
      8 O                    -0.099109
      9 C                    -0.186066
     10 C                    -0.336005
     11 C                    -0.559240
     12 C                    -0.190244
     13 C                    -0.433252
     14 C                     0.204746
     15 H                     0.166676
     16 H                     0.202013
     17 H                     0.148235
     18 H                     0.178131
     19 H                     0.172603
     20 H                     0.100176
     21 H                     0.186197
     22 H                     0.183922
     23 C                    -0.550585
     24 H                     0.173806
     25 H                     0.192435
     26 H                     0.147098
     27 H                     0.192524
     28 C                     0.610095
     29 C                     0.896437
     30 C                    -0.877707
     31 C                    -0.749300
     32 O                     0.078095
     33 O                    -0.106140
     34 O                     0.102095
     35 O                    -0.152847
     36 C                    -0.321980
     37 C                    -0.176382
     38 C                    -0.541646
     39 C                    -0.181893
     40 C                    -0.499389
     41 C                     0.375606
     42 H                     0.195689
     43 H                     0.170023
     44 H                     0.148224
     45 H                     0.195267
     46 H                     0.107215
     47 H                     0.172533
     48 H                     0.173070
     49 H                     0.185444
     50 C                    -0.526559
     51 H                     0.198742
     52 H                     0.213996
     53 H                     0.135641
     54 H                     0.179553
  ----------------------------------------
  Sum of atomic charges =     0.000000

                    Cartesian Multipole Moments
 -----------------------------------------------------------------
    Charge (ESU x 10^10)
                 0.0000
    Dipole Moment (Debye)
         X       0.2563      Y       0.3645      Z      -0.8099
       Tot       0.9244
    Quadrupole Moments (Debye-Ang)
        XX    -182.6710     XY      -7.2804     YY    -144.4691
        XZ      16.9515     YZ      14.2033     ZZ    -180.2441

 Total job time:  1684.32s(wall), 3353.16s(cpu)
        *  Thank you very much for using Q-Chem.  Have a nice day.  *
