 Q-Chem 5.0, Q-Chem, Inc., Pleasanton, CA (2017)
 Q-Chem 5.0.1 for Intel X86 EM64T Linux

User input:
--------------------------------------------------------------
$molecule
0  1
C        -0.54444000        -0.68370000        -0.06689000
C        -0.55709000        +0.71878000        +0.05493000
C        +0.74969000        -1.43776000        -0.09374000
C        +0.72843000        +1.48436000        +0.06598000
O        +1.53645000        -1.09176000        +0.94813000
O        +1.04702000        -2.28405000        -0.90088000
O        +1.53784000        +1.08301000        -0.93877000
O        +1.01035000        +2.37097000        +0.83478000
C        +2.83449000        +1.70121000        -0.99358000
C        +2.82316000        -1.73208000        +1.00475000
C        -1.74320000        -1.41616000        -0.12552000
C        -2.93952000        -0.70056000        -0.05285000
C        -2.95313000        +0.68255000        +0.06934000
C        -1.77161000        +1.42404000        +0.12810000
H        +2.73835000        +2.77989000        -1.12464000
H        +2.70778000        -2.81319000        +1.09555000
H        -3.90354000        +1.20325000        +0.11710000
H        +3.38998000        +1.50093000        -0.07544000
H        +3.33184000        +1.25269000        -1.85067000
H        +3.31095000        -1.32281000        +1.88650000
H        +3.39889000        -1.50934000        +0.10459000
H        -3.87892000        -1.24211000        -0.08988000
C        -1.83960000        +2.92746000        +0.24839000
H        -1.24214000        +3.42352000        -0.52065000
H        -1.45503000        +3.26427000        +1.21284000
H        -2.87211000        +3.26623000        +0.14638000
H        -1.73878000        -2.44393000        -0.21875000
@C        -0.50797000        -1.14582000        +5.21280000
@C        -0.52062000        +0.25666000        +5.33462000
@C        +0.78616000        -1.89988000        +5.18595000
@C        +0.76490000        +1.02224000        +5.34567000
@O        +1.57292000        -1.55388000        +6.22782000
@O        +1.08349000        -2.74617000        +4.37881000
@O        +1.57431000        +0.62089000        +4.34092000
@O        +1.04682000        +1.90885000        +6.11447000
@C        +2.87096000        +1.23909000        +4.28611000
@C        +2.85963000        -2.19420000        +6.28444000
@C        -1.70673000        -1.87828000        +5.15417000
@C        -2.90305000        -1.16268000        +5.22684000
@C        -2.91666000        +0.22043000        +5.34903000
@C        -1.73514000        +0.96192000        +5.40779000
@H        +2.77482000        +2.31777000        +4.15505000
@H        +2.74425000        -3.27531000        +6.37524000
@H        -3.86707000        +0.74113000        +5.39679000
@H        +3.42645000        +1.03881000        +5.20425000
@H        +3.36831000        +0.79057000        +3.42902000
@H        +3.34742000        -1.78493000        +7.16619000
@H        +3.43536000        -1.97146000        +5.38428000
@H        -3.84245000        -1.70423000        +5.18981000
@C        -1.80313000        +2.46534000        +5.52808000
@H        -1.20567000        +2.96140000        +4.75904000
@H        -1.41856000        +2.80215000        +6.49253000
@H        -2.83564000        +2.80411000        +5.42607000
@H        -1.70231000        -2.90605000        +5.06094000
$end

$rem
JOBTYPE                   SP
METHOD                    B3LYP
DFT_D                     d3_op
BASIS                     6-311++G(d,p)
SYMMETRY                  False
THRESH                    12
SCF_CONVERGENCE           8
MAX_SUB_FILE_NUM          128
MEM_STATIC                400
MEM_TOTAL                 4000
$end
--------------------------------------------------------------

             Standard Nuclear Orientation (Angstroms)
    I     Atom           X                Y                Z
 ----------------------------------------------------------------
    1      C      -0.5444400000    -0.6837000000    -0.0668900000
    2      C      -0.5570900000     0.7187800000     0.0549300000
    3      C       0.7496900000    -1.4377600000    -0.0937400000
    4      C       0.7284300000     1.4843600000     0.0659800000
    5      O       1.5364500000    -1.0917600000     0.9481300000
    6      O       1.0470200000    -2.2840500000    -0.9008800000
    7      O       1.5378400000     1.0830100000    -0.9387700000
    8      O       1.0103500000     2.3709700000     0.8347800000
    9      C       2.8344900000     1.7012100000    -0.9935800000
   10      C       2.8231600000    -1.7320800000     1.0047500000
   11      C      -1.7432000000    -1.4161600000    -0.1255200000
   12      C      -2.9395200000    -0.7005600000    -0.0528500000
   13      C      -2.9531300000     0.6825500000     0.0693400000
   14      C      -1.7716100000     1.4240400000     0.1281000000
   15      H       2.7383500000     2.7798900000    -1.1246400000
   16      H       2.7077800000    -2.8131900000     1.0955500000
   17      H      -3.9035400000     1.2032500000     0.1171000000
   18      H       3.3899800000     1.5009300000    -0.0754400000
   19      H       3.3318400000     1.2526900000    -1.8506700000
   20      H       3.3109500000    -1.3228100000     1.8865000000
   21      H       3.3988900000    -1.5093400000     0.1045900000
   22      H      -3.8789200000    -1.2421100000    -0.0898800000
   23      C      -1.8396000000     2.9274600000     0.2483900000
   24      H      -1.2421400000     3.4235200000    -0.5206500000
   25      H      -1.4550300000     3.2642700000     1.2128400000
   26      H      -2.8721100000     3.2662300000     0.1463800000
   27      H      -1.7387800000    -2.4439300000    -0.2187500000
   28      GH     -0.5079700000    -1.1458200000     5.2128000000
   29      GH     -0.5206200000     0.2566600000     5.3346200000
   30      GH      0.7861600000    -1.8998800000     5.1859500000
   31      GH      0.7649000000     1.0222400000     5.3456700000
   32      GH      1.5729200000    -1.5538800000     6.2278200000
   33      GH      1.0834900000    -2.7461700000     4.3788100000
   34      GH      1.5743100000     0.6208900000     4.3409200000
   35      GH      1.0468200000     1.9088500000     6.1144700000
   36      GH      2.8709600000     1.2390900000     4.2861100000
   37      GH      2.8596300000    -2.1942000000     6.2844400000
   38      GH     -1.7067300000    -1.8782800000     5.1541700000
   39      GH     -2.9030500000    -1.1626800000     5.2268400000
   40      GH     -2.9166600000     0.2204300000     5.3490300000
   41      GH     -1.7351400000     0.9619200000     5.4077900000
   42      GH      2.7748200000     2.3177700000     4.1550500000
   43      GH      2.7442500000    -3.2753100000     6.3752400000
   44      GH     -3.8670700000     0.7411300000     5.3967900000
   45      GH      3.4264500000     1.0388100000     5.2042500000
   46      GH      3.3683100000     0.7905700000     3.4290200000
   47      GH      3.3474200000    -1.7849300000     7.1661900000
   48      GH      3.4353600000    -1.9714600000     5.3842800000
   49      GH     -3.8424500000    -1.7042300000     5.1898100000
   50      GH     -1.8031300000     2.4653400000     5.5280800000
   51      GH     -1.2056700000     2.9614000000     4.7590400000
   52      GH     -1.4185600000     2.8021500000     6.4925300000
   53      GH     -2.8356400000     2.8041100000     5.4260700000
   54      GH     -1.7023100000    -2.9060500000     5.0609400000
 ----------------------------------------------------------------

   14    -727.5443916066      5.54E-09 Convergence criterion met
 Total energy in the final basis set = -727.54439161

                    Orbital Energies (a.u.)
 --------------------------------------------------------------

 Alpha MOs
 -- Occupied --
-19.178 -19.177 -19.121 -19.119 -10.313 -10.312 -10.233 -10.232
-10.211 -10.208 -10.207 -10.193 -10.191 -10.190 -10.174  -1.122
 -1.115  -1.033  -1.030  -0.886  -0.801  -0.795  -0.747  -0.731
 -0.704  -0.655  -0.627  -0.581  -0.575  -0.550  -0.521  -0.514
 -0.492  -0.490  -0.482  -0.478  -0.472  -0.447  -0.435  -0.432
 -0.429  -0.412  -0.407  -0.396  -0.384  -0.378  -0.371  -0.365
 -0.364  -0.322  -0.314  -0.296  -0.294  -0.269  -0.264

          Ground-State Mulliken Net Atomic Charges

     Atom                 Charge (a.u.)
  ----------------------------------------
      1 C                     0.416350
      2 C                     1.163614
      3 C                    -0.460987
      4 C                    -1.013418
      5 O                     0.103723
      6 O                    -0.173401
      7 O                     0.086423
      8 O                    -0.087244
      9 C                    -0.185604
     10 C                    -0.348954
     11 C                    -0.572266
     12 C                    -0.194064
     13 C                    -0.432298
     14 C                     0.186225
     15 H                     0.166563
     16 H                     0.197817
     17 H                     0.151582
     18 H                     0.181376
     19 H                     0.172007
     20 H                     0.110810
     21 H                     0.190200
     22 H                     0.187138
     23 C                    -0.553227
     24 H                     0.174193
     25 H                     0.203094
     26 H                     0.147418
     27 H                     0.192248
     28 GH                   -0.052795
     29 GH                    0.105397
     30 GH                    0.071188
     31 GH                   -0.039579
     32 GH                    0.000111
     33 GH                   -0.004631
     34 GH                   -0.010049
     35 GH                    0.000032
     36 GH                    0.000662
     37 GH                   -0.003629
     38 GH                   -0.028521
     39 GH                   -0.006741
     40 GH                   -0.011480
     41 GH                   -0.028201
     42 GH                   -0.001059
     43 GH                    0.000334
     44 GH                   -0.000787
     45 GH                    0.001235
     46 GH                    0.010699
     47 GH                   -0.000235
     48 GH                    0.002413
     49 GH                   -0.000525
     50 GH                   -0.011017
     51 GH                   -0.003248
     52 GH                   -0.000015
     53 GH                    0.001073
     54 GH                    0.000053
  ----------------------------------------
  Sum of atomic charges =     0.000000

                    Cartesian Multipole Moments
 -----------------------------------------------------------------
    Charge (ESU x 10^10)
                 0.0000
    Dipole Moment (Debye)
         X       0.0050      Y       0.4781      Z       0.2066
       Tot       0.5209
    Quadrupole Moments (Debye-Ang)
        XX     -68.7729     XY      -0.6839     YY     -89.6954
        XZ      -0.0852     YZ      -9.3124     ZZ     -93.2720

 Total job time:  1555.83s(wall), 3072.18s(cpu)
        *  Thank you very much for using Q-Chem.  Have a nice day.  *
