 Q-Chem 5.0, Q-Chem, Inc., Pleasanton, CA (2017)
 Q-Chem 5.0.1 for Intel X86 EM64T Linux

User input:
--------------------------------------------------------------
$molecule
0  1
--
0  1
C        -0.54444000        -0.68370000        -0.06689000
C        -0.55709000        +0.71878000        +0.05493000
C        +0.74969000        -1.43776000        -0.09374000
C        +0.72843000        +1.48436000        +0.06598000
O        +1.53645000        -1.09176000        +0.94813000
O        +1.04702000        -2.28405000        -0.90088000
O        +1.53784000        +1.08301000        -0.93877000
O        +1.01035000        +2.37097000        +0.83478000
C        +2.83449000        +1.70121000        -0.99358000
C        +2.82316000        -1.73208000        +1.00475000
C        -1.74320000        -1.41616000        -0.12552000
C        -2.93952000        -0.70056000        -0.05285000
C        -2.95313000        +0.68255000        +0.06934000
C        -1.77161000        +1.42404000        +0.12810000
H        +2.73835000        +2.77989000        -1.12464000
H        +2.70778000        -2.81319000        +1.09555000
H        -3.90354000        +1.20325000        +0.11710000
H        +3.38998000        +1.50093000        -0.07544000
H        +3.33184000        +1.25269000        -1.85067000
H        +3.31095000        -1.32281000        +1.88650000
H        +3.39889000        -1.50934000        +0.10459000
H        -3.87892000        -1.24211000        -0.08988000
C        -1.83960000        +2.92746000        +0.24839000
C        -1.78103000        -2.92226000        -0.24590000
H        -1.39752000        -3.25223000        -1.21323000
H        -2.80572000        -3.28175000        -0.13627000
H        -1.16958000        -3.40777000        +0.51926000
H        -1.24214000        +3.42352000        -0.52065000
H        -1.45503000        +3.26427000        +1.21284000
H        -2.87211000        +3.26623000        +0.14638000
--
0  1
C        -0.50797000        -1.14582000        +5.21280000
C        -0.52062000        +0.25666000        +5.33462000
C        +0.78616000        -1.89988000        +5.18595000
C        +0.76490000        +1.02224000        +5.34567000
O        +1.57292000        -1.55388000        +6.22782000
O        +1.08349000        -2.74617000        +4.37881000
O        +1.57431000        +0.62089000        +4.34092000
O        +1.04682000        +1.90885000        +6.11447000
C        +2.87096000        +1.23909000        +4.28611000
C        +2.85963000        -2.19420000        +6.28444000
C        -1.70673000        -1.87828000        +5.15417000
C        -2.90305000        -1.16268000        +5.22684000
C        -2.91666000        +0.22043000        +5.34903000
C        -1.73514000        +0.96192000        +5.40779000
H        +2.77482000        +2.31777000        +4.15505000
H        +2.74425000        -3.27531000        +6.37524000
H        -3.86707000        +0.74113000        +5.39679000
H        +3.42645000        +1.03881000        +5.20425000
H        +3.36831000        +0.79057000        +3.42902000
H        +3.34742000        -1.78493000        +7.16619000
H        +3.43536000        -1.97146000        +5.38428000
H        -3.84245000        -1.70423000        +5.18981000
C        -1.80313000        +2.46534000        +5.52808000
C        -1.74456000        -3.38438000        +5.03379000
H        -1.36105000        -3.71435000        +4.06646000
H        -2.76925000        -3.74387000        +5.14342000
H        -1.13311000        -3.86989000        +5.79895000
H        -1.20567000        +2.96140000        +4.75904000
H        -1.41856000        +2.80215000        +6.49253000
H        -2.83564000        +2.80411000        +5.42607000
$end

$rem
JOBTYPE                   SP
METHOD                    B3LYP
DFT_D                     d3_op
BASIS                     6-311++G(d,p)
SYMMETRY                  False
THRESH                    12
SCF_CONVERGENCE           8
MAX_SUB_FILE_NUM          128
MEM_STATIC                400
MEM_TOTAL                 4000
$end
--------------------------------------------------------------

             Standard Nuclear Orientation (Angstroms)
    I     Atom           X                Y                Z
 ----------------------------------------------------------------
    1      C      -2.6162103196     0.4938965261     0.8594574667
    2      C      -2.6956236338     0.5602777591    -0.5445501339
    3      C      -2.5208112604    -0.8274257329     1.5588188687
    4      C      -2.7793451129    -0.6957763623    -1.3533240623
    5      O      -1.5301090503    -1.5834457559     1.0381046957
    6      O      -3.1957378089    -1.1691495846     2.4989177124
    7      O      -3.7075044078    -1.5360429155    -0.8451691884
    8      O      -2.1416079940    -0.9319795947    -2.3503742209
    9      C      -3.8352844349    -2.8097483178    -1.4992513021
   10      C      -1.3683872181    -2.8917710759     1.6134037978
   11      C      -2.5833257171     1.6636911478     1.6388545491
   12      C      -2.6267971097     2.8866278072     0.9672281674
   13      C      -2.7030949518     2.9532601712    -0.4176356048
   14      C      -2.7373311020     1.8010265677    -1.2053127449
   15      H      -4.1197799527    -2.6760932371    -2.5438415496
   16      H      -1.1257664115    -2.8148388781     2.6743338604
   17      H      -2.7406887533     3.9228869616    -0.9025059681
   18      H      -2.8917979683    -3.3568899183    -1.4530816754
   19      H      -4.6140814481    -3.3374924572    -0.9532734486
   20      H      -0.5485323355    -3.3493973985     1.0644591741
   21      H      -2.2845805732    -3.4737960485     1.4985002147
   22      H      -2.5968258646     3.8046737171     1.5446477853
   23      C      -2.8332629278     1.9263990519    -2.7067929631
   24      C      -2.4882889326     1.6439517181     3.1471111678
   25      H      -3.3943642064     1.2324912489     3.5959043613
   26      H      -2.3400627917     2.6563715601     3.5269485905
   27      H      -1.6549409256     1.0278327623     3.4949465019
   28      H      -3.6583842309     1.3349220992    -3.1114982218
   29      H      -1.9223909406     1.5706125788    -3.1917950992
   30      H      -2.9940871876     2.9688579211    -2.9872624208
   31      C       2.6755275449     0.5282752775     0.5656209017
   32      C       2.5961142307     0.5946565106    -0.8383866989
   33      C       2.7709266040    -0.7930469814     1.2649823037
   34      C       2.5123927515    -0.6613976109    -1.6471606273
   35      O       3.7616288142    -1.5490670045     0.7442681307
   36      O       2.0960000555    -1.1347708331     2.2050811474
   37      O       1.5842334566    -1.5016641641    -1.1390057534
   38      O       3.1501298704    -0.8976008433    -2.6442107858
   39      C       1.4564534295    -2.7753695664    -1.7930878670
   40      C       3.9233506464    -2.8573923245     1.3195672328
   41      C       2.7084121474     1.6980698992     1.3450179841
   42      C       2.6649407548     2.9210065586     0.6733916025
   43      C       2.5886429126     2.9876389226    -0.7114721698
   44      C       2.5544067624     1.8354053191    -1.4991493099
   45      H       1.1719579118    -2.6417144856    -2.8376781146
   46      H       4.1659714530    -2.7804601267     2.3804972954
   47      H       2.5510491112     3.9572657130    -1.1963425330
   48      H       2.3999398962    -3.3225111669    -1.7469182404
   49      H       0.6776564163    -3.3031137058    -1.2471100135
   50      H       4.7432055289    -3.3150186471     0.7706226091
   51      H       3.0071572912    -3.4394172971     1.2046636497
   52      H       2.6949119998     3.8390524685     1.2508112203
   53      C       2.4584749367     1.9607778033    -3.0006295281
   54      C       2.8034489318     1.6783304695     2.8532746028
   55      H       1.8973736581     1.2668700003     3.3020677963
   56      H       2.9516750728     2.6907503115     3.2331120255
   57      H       3.6367969389     1.0622115138     3.2011099370
   58      H       1.6333536335     1.3693008506    -3.4053347867
   59      H       3.3693469238     1.6049913302    -3.4856316642
   60      H       2.2976506768     3.0032366725    -3.2810989857
 ----------------------------------------------------------------

   14   -1533.7583829432      9.26E-09 Convergence criterion met
 Total energy in the final basis set = -1533.75838294

                    Orbital Energies (a.u.)
 --------------------------------------------------------------

 Alpha MOs
 -- Occupied --
-19.175 -19.175 -19.170 -19.169 -19.118 -19.118 -19.114 -19.113
-10.310 -10.309 -10.306 -10.305 -10.232 -10.232 -10.227 -10.226
-10.203 -10.202 -10.202 -10.201 -10.198 -10.198 -10.198 -10.197
-10.184 -10.184 -10.183 -10.183 -10.170 -10.169 -10.167 -10.166
 -1.119  -1.118  -1.110  -1.110  -1.030  -1.030  -1.026  -1.025
 -0.882  -0.882  -0.804  -0.804  -0.793  -0.792  -0.744  -0.743
 -0.732  -0.731  -0.722  -0.721  -0.672  -0.672  -0.646  -0.646
 -0.618  -0.617  -0.575  -0.574  -0.562  -0.561  -0.534  -0.534
 -0.515  -0.514  -0.512  -0.511  -0.489  -0.489  -0.485  -0.484
 -0.478  -0.476  -0.475  -0.473  -0.467  -0.466  -0.441  -0.439
 -0.432  -0.431  -0.428  -0.425  -0.418  -0.417  -0.413  -0.413
 -0.409  -0.408  -0.403  -0.403  -0.393  -0.393  -0.385  -0.384
 -0.378  -0.377  -0.370  -0.369  -0.359  -0.359  -0.356  -0.355
 -0.355  -0.354  -0.319  -0.318  -0.309  -0.308  -0.292  -0.292
 -0.289  -0.287  -0.264  -0.262  -0.251  -0.249

          Ground-State Mulliken Net Atomic Charges

     Atom                 Charge (a.u.)
  ----------------------------------------
      1 C                     0.439126
      2 C                     0.475346
      3 C                    -0.641476
      4 C                    -0.905380
      5 O                     0.129042
      6 O                    -0.152245
      7 O                     0.082745
      8 O                    -0.094477
      9 C                    -0.173597
     10 C                    -0.321390
     11 C                     0.519547
     12 C                    -0.425412
     13 C                    -0.438437
     14 C                     0.464011
     15 H                     0.166276
     16 H                     0.192559
     17 H                     0.157496
     18 H                     0.174317
     19 H                     0.173587
     20 H                     0.101315
     21 H                     0.191588
     22 H                     0.156470
     23 C                    -0.651948
     24 C                    -0.660607
     25 H                     0.213398
     26 H                     0.130970
     27 H                     0.196445
     28 H                     0.172634
     29 H                     0.190819
     30 H                     0.138363
     31 C                     0.425060
     32 C                     0.401856
     33 C                    -0.900488
     34 C                    -0.577063
     35 O                     0.097483
     36 O                    -0.084233
     37 O                     0.106630
     38 O                    -0.154206
     39 C                    -0.324440
     40 C                    -0.170392
     41 C                     0.460291
     42 C                    -0.425237
     43 C                    -0.441890
     44 C                     0.548196
     45 H                     0.195645
     46 H                     0.165578
     47 H                     0.155237
     48 H                     0.195330
     49 H                     0.099131
     50 H                     0.171749
     51 H                     0.173932
     52 H                     0.159330
     53 C                    -0.656828
     54 C                    -0.665885
     55 H                     0.192309
     56 H                     0.139502
     57 H                     0.172968
     58 H                     0.196369
     59 H                     0.212929
     60 H                     0.130052
  ----------------------------------------
  Sum of atomic charges =     0.000000

                    Cartesian Multipole Moments
 -----------------------------------------------------------------
    Charge (ESU x 10^10)
                 0.0000
    Dipole Moment (Debye)
         X       0.1886      Y      -0.0938      Z       0.1827
       Tot       0.2788
    Quadrupole Moments (Debye-Ang)
        XX    -195.3360     XY      -1.4003     YY    -154.3909
        XZ      17.7870     YZ       1.7301     ZZ    -196.2238

 Total job time:  2248.90s(wall), 4476.58s(cpu)
        *  Thank you very much for using Q-Chem.  Have a nice day.  *
