 Q-Chem 5.0, Q-Chem, Inc., Pleasanton, CA (2017)
 Q-Chem 5.0.1 for Intel X86 EM64T Linux

User input:
--------------------------------------------------------------
$molecule
0  1
C        -0.54444000        -0.68370000        -0.06689000
C        -0.55709000        +0.71878000        +0.05493000
C        +0.74969000        -1.43776000        -0.09374000
C        +0.72843000        +1.48436000        +0.06598000
O        +1.53645000        -1.09176000        +0.94813000
O        +1.04702000        -2.28405000        -0.90088000
O        +1.53784000        +1.08301000        -0.93877000
O        +1.01035000        +2.37097000        +0.83478000
C        +2.83449000        +1.70121000        -0.99358000
C        +2.82316000        -1.73208000        +1.00475000
C        -1.74320000        -1.41616000        -0.12552000
C        -2.93952000        -0.70056000        -0.05285000
C        -2.95313000        +0.68255000        +0.06934000
C        -1.77161000        +1.42404000        +0.12810000
H        +2.73835000        +2.77989000        -1.12464000
H        +2.70778000        -2.81319000        +1.09555000
H        -3.90354000        +1.20325000        +0.11710000
H        +3.38998000        +1.50093000        -0.07544000
H        +3.33184000        +1.25269000        -1.85067000
H        +3.31095000        -1.32281000        +1.88650000
H        +3.39889000        -1.50934000        +0.10459000
H        -3.87892000        -1.24211000        -0.08988000
C        -1.83960000        +2.92746000        +0.24839000
C        -1.78103000        -2.92226000        -0.24590000
H        -1.39752000        -3.25223000        -1.21323000
H        -2.80572000        -3.28175000        -0.13627000
H        -1.16958000        -3.40777000        +0.51926000
H        -1.24214000        +3.42352000        -0.52065000
H        -1.45503000        +3.26427000        +1.21284000
H        -2.87211000        +3.26623000        +0.14638000
@C        -0.50797000        -1.14582000        +5.21280000
@C        -0.52062000        +0.25666000        +5.33462000
@C        +0.78616000        -1.89988000        +5.18595000
@C        +0.76490000        +1.02224000        +5.34567000
@O        +1.57292000        -1.55388000        +6.22782000
@O        +1.08349000        -2.74617000        +4.37881000
@O        +1.57431000        +0.62089000        +4.34092000
@O        +1.04682000        +1.90885000        +6.11447000
@C        +2.87096000        +1.23909000        +4.28611000
@C        +2.85963000        -2.19420000        +6.28444000
@C        -1.70673000        -1.87828000        +5.15417000
@C        -2.90305000        -1.16268000        +5.22684000
@C        -2.91666000        +0.22043000        +5.34903000
@C        -1.73514000        +0.96192000        +5.40779000
@H        +2.77482000        +2.31777000        +4.15505000
@H        +2.74425000        -3.27531000        +6.37524000
@H        -3.86707000        +0.74113000        +5.39679000
@H        +3.42645000        +1.03881000        +5.20425000
@H        +3.36831000        +0.79057000        +3.42902000
@H        +3.34742000        -1.78493000        +7.16619000
@H        +3.43536000        -1.97146000        +5.38428000
@H        -3.84245000        -1.70423000        +5.18981000
@C        -1.80313000        +2.46534000        +5.52808000
@C        -1.74456000        -3.38438000        +5.03379000
@H        -1.36105000        -3.71435000        +4.06646000
@H        -2.76925000        -3.74387000        +5.14342000
@H        -1.13311000        -3.86989000        +5.79895000
@H        -1.20567000        +2.96140000        +4.75904000
@H        -1.41856000        +2.80215000        +6.49253000
@H        -2.83564000        +2.80411000        +5.42607000
$end

$rem
JOBTYPE                   SP
METHOD                    B3LYP
DFT_D                     d3_op
BASIS                     6-311++G(d,p)
SYMMETRY                  False
THRESH                    12
SCF_CONVERGENCE           8
MAX_SUB_FILE_NUM          128
MEM_STATIC                400
MEM_TOTAL                 4000
$end
--------------------------------------------------------------

             Standard Nuclear Orientation (Angstroms)
    I     Atom           X                Y                Z
 ----------------------------------------------------------------
    1      C      -0.5444400000    -0.6837000000    -0.0668900000
    2      C      -0.5570900000     0.7187800000     0.0549300000
    3      C       0.7496900000    -1.4377600000    -0.0937400000
    4      C       0.7284300000     1.4843600000     0.0659800000
    5      O       1.5364500000    -1.0917600000     0.9481300000
    6      O       1.0470200000    -2.2840500000    -0.9008800000
    7      O       1.5378400000     1.0830100000    -0.9387700000
    8      O       1.0103500000     2.3709700000     0.8347800000
    9      C       2.8344900000     1.7012100000    -0.9935800000
   10      C       2.8231600000    -1.7320800000     1.0047500000
   11      C      -1.7432000000    -1.4161600000    -0.1255200000
   12      C      -2.9395200000    -0.7005600000    -0.0528500000
   13      C      -2.9531300000     0.6825500000     0.0693400000
   14      C      -1.7716100000     1.4240400000     0.1281000000
   15      H       2.7383500000     2.7798900000    -1.1246400000
   16      H       2.7077800000    -2.8131900000     1.0955500000
   17      H      -3.9035400000     1.2032500000     0.1171000000
   18      H       3.3899800000     1.5009300000    -0.0754400000
   19      H       3.3318400000     1.2526900000    -1.8506700000
   20      H       3.3109500000    -1.3228100000     1.8865000000
   21      H       3.3988900000    -1.5093400000     0.1045900000
   22      H      -3.8789200000    -1.2421100000    -0.0898800000
   23      C      -1.8396000000     2.9274600000     0.2483900000
   24      C      -1.7810300000    -2.9222600000    -0.2459000000
   25      H      -1.3975200000    -3.2522300000    -1.2132300000
   26      H      -2.8057200000    -3.2817500000    -0.1362700000
   27      H      -1.1695800000    -3.4077700000     0.5192600000
   28      H      -1.2421400000     3.4235200000    -0.5206500000
   29      H      -1.4550300000     3.2642700000     1.2128400000
   30      H      -2.8721100000     3.2662300000     0.1463800000
   31      GH     -0.5079700000    -1.1458200000     5.2128000000
   32      GH     -0.5206200000     0.2566600000     5.3346200000
   33      GH      0.7861600000    -1.8998800000     5.1859500000
   34      GH      0.7649000000     1.0222400000     5.3456700000
   35      GH      1.5729200000    -1.5538800000     6.2278200000
   36      GH      1.0834900000    -2.7461700000     4.3788100000
   37      GH      1.5743100000     0.6208900000     4.3409200000
   38      GH      1.0468200000     1.9088500000     6.1144700000
   39      GH      2.8709600000     1.2390900000     4.2861100000
   40      GH      2.8596300000    -2.1942000000     6.2844400000
   41      GH     -1.7067300000    -1.8782800000     5.1541700000
   42      GH     -2.9030500000    -1.1626800000     5.2268400000
   43      GH     -2.9166600000     0.2204300000     5.3490300000
   44      GH     -1.7351400000     0.9619200000     5.4077900000
   45      GH      2.7748200000     2.3177700000     4.1550500000
   46      GH      2.7442500000    -3.2753100000     6.3752400000
   47      GH     -3.8670700000     0.7411300000     5.3967900000
   48      GH      3.4264500000     1.0388100000     5.2042500000
   49      GH      3.3683100000     0.7905700000     3.4290200000
   50      GH      3.3474200000    -1.7849300000     7.1661900000
   51      GH      3.4353600000    -1.9714600000     5.3842800000
   52      GH     -3.8424500000    -1.7042300000     5.1898100000
   53      GH     -1.8031300000     2.4653400000     5.5280800000
   54      GH     -1.7445600000    -3.3843800000     5.0337900000
   55      GH     -1.3610500000    -3.7143500000     4.0664600000
   56      GH     -2.7692500000    -3.7438700000     5.1434200000
   57      GH     -1.1331100000    -3.8698900000     5.7989500000
   58      GH     -1.2056700000     2.9614000000     4.7590400000
   59      GH     -1.4185600000     2.8021500000     6.4925300000
   60      GH     -2.8356400000     2.8041100000     5.4260700000
 ----------------------------------------------------------------

   14    -766.8771000010      6.05E-09 Convergence criterion met
 Total energy in the final basis set = -766.87710000

                    Orbital Energies (a.u.)
 --------------------------------------------------------------

 Alpha MOs
 -- Occupied --
-19.176 -19.176 -19.119 -19.119 -10.311 -10.311 -10.232 -10.232
-10.205 -10.205 -10.201 -10.201 -10.187 -10.186 -10.171 -10.170
 -1.121  -1.114  -1.031  -1.030  -0.885  -0.807  -0.795  -0.747
 -0.734  -0.725  -0.675  -0.649  -0.620  -0.577  -0.565  -0.537
 -0.517  -0.515  -0.491  -0.489  -0.480  -0.477  -0.469  -0.442
 -0.434  -0.429  -0.420  -0.416  -0.411  -0.406  -0.396  -0.387
 -0.380  -0.373  -0.362  -0.359  -0.357  -0.321  -0.313  -0.293
 -0.292  -0.266  -0.253

          Ground-State Mulliken Net Atomic Charges

     Atom                 Charge (a.u.)
  ----------------------------------------
      1 C                     0.358294
      2 C                     0.518465
      3 C                    -0.601978
      4 C                    -0.922618
      5 O                     0.126773
      6 O                    -0.145989
      7 O                     0.079832
      8 O                    -0.083535
      9 C                    -0.173800
     10 C                    -0.337057
     11 C                     0.525010
     12 C                    -0.406601
     13 C                    -0.447924
     14 C                     0.442365
     15 H                     0.166234
     16 H                     0.189810
     17 H                     0.160066
     18 H                     0.177416
     19 H                     0.173050
     20 H                     0.104331
     21 H                     0.195173
     22 H                     0.160011
     23 C                    -0.650619
     24 C                    -0.650254
     25 H                     0.214101
     26 H                     0.133335
     27 H                     0.195089
     28 H                     0.172888
     29 H                     0.200605
     30 H                     0.139333
     31 GH                   -0.064421
     32 GH                    0.069507
     33 GH                    0.045082
     34 GH                   -0.059235
     35 GH                    0.000175
     36 GH                   -0.004545
     37 GH                   -0.012139
     38 GH                    0.000082
     39 GH                    0.001256
     40 GH                   -0.002574
     41 GH                    0.025857
     42 GH                    0.007487
     43 GH                   -0.012299
     44 GH                   -0.007636
     45 GH                   -0.001122
     46 GH                    0.000239
     47 GH                   -0.001346
     48 GH                    0.001123
     49 GH                    0.013057
     50 GH                   -0.000200
     51 GH                    0.002526
     52 GH                   -0.000320
     53 GH                   -0.004473
     54 GH                   -0.000646
     55 GH                   -0.005312
     56 GH                   -0.000220
     57 GH                    0.000134
     58 GH                   -0.002797
     59 GH                   -0.000038
     60 GH                    0.000993
  ----------------------------------------
  Sum of atomic charges =     0.000000

                    Cartesian Multipole Moments
 -----------------------------------------------------------------
    Charge (ESU x 10^10)
                 0.0000
    Dipole Moment (Debye)
         X       0.0687      Y      -0.1071      Z       0.0782
       Tot       0.1493
    Quadrupole Moments (Debye-Ang)
        XX     -76.1684     XY      -0.0609     YY     -95.4363
        XZ       0.0806     YZ      -8.9395     ZZ     -99.5028

 Total job time:  2213.87s(wall), 4404.42s(cpu)
        *  Thank you very much for using Q-Chem.  Have a nice day.  *
