                               Psi4 1.1 release

  ==> Input File <==

--------------------------------------------------------------------------
memory 750000 mb

molecule mol {
0 1
C         -0.57623       -1.79746        0.05551
O         -0.47582       -2.54961       -0.87645
O         -1.69585       -1.70514        0.81657
C         -2.84012       -2.43366        0.33612
H         -2.62543       -3.50226        0.28859
H         -3.11813       -2.07470       -0.65608
H         -3.63334       -2.23501        1.05391
--
0 1
C         -1.21327        0.96990       -0.07677
O         -1.57720        0.49442       -1.12327
O         -1.89143        1.94548        0.57034
C         -3.09333        2.40773       -0.07301
H         -2.86046        2.85517       -1.04067
H         -3.51605        3.15013        0.60029
H         -3.78899        1.58031       -0.21958
--
0 1
C          2.38310       -2.01604       -0.82361
H          3.38400       -1.80580       -1.20818
H          2.44604       -2.87318       -0.14769
H          1.72504       -2.28237       -1.64637
C          1.05672        2.63656       -0.72519
H          1.98084        2.98365       -1.19168
H          0.29744        2.53831       -1.50323
H          0.72699        3.38770       -0.00317
C          0.06118        0.63828        0.66607
C          0.48264       -0.87056        0.63556
C          1.30152        1.31111       -0.03803
C          2.47024        1.28634        0.97918
C          2.87218       -0.20996        0.95099
C          1.87058       -0.80015       -0.08286
O          1.68965        0.31021       -0.98511
H         -0.04726        1.00553        1.68489
H          0.61264       -1.21537        1.66468
H          3.28025        1.92430        0.61997
H          2.17302        1.64546        1.96637
H          3.89069       -0.33873        0.58106
H          2.80652       -0.70092        1.92428

symmetry c1
no_reorient
no_com
}

set {
basis jun-cc-pvdz
scf_type df
guess sad
freeze_core true
}

energy('fisapt0')
--------------------------------------------------------------------------

    Molecular point group: c1

    Geometry (in Angstrom), charge = 0, multiplicity = 1:

       Center              X                  Y                   Z               Mass
    ------------   -----------------  -----------------  -----------------  -----------------
           C         -0.576230000000    -1.797460000000     0.055510000000    12.000000000000
           O         -0.475820000000    -2.549610000000    -0.876450000000    15.994914619560
           O         -1.695850000000    -1.705140000000     0.816570000000    15.994914619560
           C         -2.840120000000    -2.433660000000     0.336120000000    12.000000000000
           H         -2.625430000000    -3.502260000000     0.288590000000     1.007825032070
           H         -3.118130000000    -2.074700000000    -0.656080000000     1.007825032070
           H         -3.633340000000    -2.235010000000     1.053910000000     1.007825032070
           C         -1.213270000000     0.969900000000    -0.076770000000    12.000000000000
           O         -1.577200000000     0.494420000000    -1.123270000000    15.994914619560
           O         -1.891430000000     1.945480000000     0.570340000000    15.994914619560
           C         -3.093330000000     2.407730000000    -0.073010000000    12.000000000000
           H         -2.860460000000     2.855170000000    -1.040670000000     1.007825032070
           H         -3.516050000000     3.150130000000     0.600290000000     1.007825032070
           H         -3.788990000000     1.580310000000    -0.219580000000     1.007825032070
           C          2.383100000000    -2.016040000000    -0.823610000000    12.000000000000
           H          3.384000000000    -1.805800000000    -1.208180000000     1.007825032070
           H          2.446040000000    -2.873180000000    -0.147690000000     1.007825032070
           H          1.725040000000    -2.282370000000    -1.646370000000     1.007825032070
           C          1.056720000000     2.636560000000    -0.725190000000    12.000000000000
           H          1.980840000000     2.983650000000    -1.191680000000     1.007825032070
           H          0.297440000000     2.538310000000    -1.503230000000     1.007825032070
           H          0.726990000000     3.387700000000    -0.003170000000     1.007825032070
           C          0.061180000000     0.638280000000     0.666070000000    12.000000000000
           C          0.482640000000    -0.870560000000     0.635560000000    12.000000000000
           C          1.301520000000     1.311110000000    -0.038030000000    12.000000000000
           C          2.470240000000     1.286340000000     0.979180000000    12.000000000000
           C          2.872180000000    -0.209960000000     0.950990000000    12.000000000000
           C          1.870580000000    -0.800150000000    -0.082860000000    12.000000000000
           O          1.689650000000     0.310210000000    -0.985110000000    15.994914619560
           H         -0.047260000000     1.005530000000     1.684890000000     1.007825032070
           H          0.612640000000    -1.215370000000     1.664680000000     1.007825032070
           H          3.280250000000     1.924300000000     0.619970000000     1.007825032070
           H          2.173020000000     1.645460000000     1.966370000000     1.007825032070
           H          3.890690000000    -0.338730000000     0.581060000000     1.007825032070
           H          2.806520000000    -0.700920000000     1.924280000000     1.007825032070

  Charge       = 0
  Multiplicity = 1
  Basis Set: JUN-CC-PVDZ
    Blend: JUN-CC-PVDZ
  Basis Set: (JUN-CC-PVDZ AUX)
    Blend: JUN-CC-PVDZ-JKFIT

    Orbital Energies (a.u.)
    -----------------------

    Doubly Occupied:

       1A    -20.613798     2A    -20.603356     3A    -20.560868
       4A    -20.555322     5A    -20.549604     6A    -11.391235
       7A    -11.386736     8A    -11.303775     9A    -11.298060
      10A    -11.296553    11A    -11.288584    12A    -11.264755
      13A    -11.264127    14A    -11.237897    15A    -11.235507
      16A    -11.230616    17A    -11.214345    18A     -1.469073
      19A     -1.458765    20A     -1.399990    21A     -1.367351
      22A     -1.360507    23A     -1.113839    24A     -1.075110
      25A     -1.050585    26A     -0.995649    27A     -0.974914
      28A     -0.963818    29A     -0.908399    30A     -0.872307
      31A     -0.813978    32A     -0.784903    33A     -0.762881
      34A     -0.755791    35A     -0.716633    36A     -0.691249
      37A     -0.688058    38A     -0.678340    39A     -0.667826
      40A     -0.665067    41A     -0.654214    42A     -0.643538
      43A     -0.624994    44A     -0.597590    45A     -0.588246
      46A     -0.580250    47A     -0.575989    48A     -0.562933
      49A     -0.555000    50A     -0.543927    51A     -0.539717
      52A     -0.533713    53A     -0.525600    54A     -0.507866
      55A     -0.502042    56A     -0.501521    57A     -0.494516
      58A     -0.483776    59A     -0.473586    60A     -0.465211
      61A     -0.464428    62A     -0.457172    63A     -0.445617
      64A     -0.423354    65A     -0.420096

  @DF-RHF Final Energy:  -839.31005326581146

   => Energetics <=

    Nuclear Repulsion Energy =           1397.7654491085497739
    One-Electron Energy =               -3926.7608657232453879
    Two-Electron Energy =                1689.6853633488840387
    DFT Exchange-Correlation Energy =       0.0000000000000000
    Empirical Dispersion Energy =           0.0000000000000000
    PCM Polarization Energy =               0.0000000000000000
    EFP Energy =                            0.0000000000000000
    Total Energy =                       -839.3100532658113480
  Basis Set: (JUN-CC-PVDZ AUX)
    Blend: JUN-CC-PVDZ-JKFIT
  Basis Set: (JUN-CC-PVDZ AUX)
    Blend: JUN-CC-PVDZ-JKFIT
  Basis Set: (JUN-CC-PVDZ AUX)
    Blend: JUN-CC-PVDZ-JKFIT
  Basis Set: (JUN-CC-PVDZ AUX)
    Blend: JUN-CC-PVDZ-JKFIT
  Basis Set: (JUN-CC-PVDZ AUX)
    Blend: JUN-CC-PVDZ-RI

    SAPT Results
  --------------------------------------------------------------------------------------------------------
    Electrostatics                 13.20549768 [mEh]       8.28657524 [kcal/mol]      34.67103415 [kJ/mol]
      Elst10,r                     13.20549768 [mEh]       8.28657524 [kcal/mol]      34.67103415 [kJ/mol]

    Exchange                        7.82040542 [mEh]       4.90737870 [kcal/mol]      20.53247444 [kJ/mol]
      Exch10                        7.82040542 [mEh]       4.90737870 [kcal/mol]      20.53247444 [kJ/mol]
      Exch10(S^2)                   7.79490431 [mEh]       4.89137651 [kcal/mol]      20.46552126 [kJ/mol]

    Induction                      -2.65175826 [mEh]      -1.66400350 [kcal/mol]      -6.96219131 [kJ/mol]
      Ind20,r                      -5.10957286 [mEh]      -3.20630551 [kcal/mol]     -13.41518355 [kJ/mol]
      Exch-Ind20,r                  3.00535361 [mEh]       1.88588794 [kcal/mol]       7.89055590 [kJ/mol]
      delta HF,r (2)               -0.54753900 [mEh]      -0.34358593 [kcal/mol]      -1.43756366 [kJ/mol]
      Induction (A<-B)             -1.65414507 [mEh]      -1.03799175 [kcal/mol]      -4.34295789 [kJ/mol]
      Induction (B<-A)             -0.99761318 [mEh]      -0.62601175 [kcal/mol]      -2.61923341 [kJ/mol]

    Dispersion                     -4.02267735 [mEh]      -2.52426825 [kcal/mol]     -10.56153939 [kJ/mol]
      Disp20                       -4.65581898 [mEh]      -2.92157064 [kcal/mol]     -12.22385272 [kJ/mol]
      Exch-Disp20                   0.63314162 [mEh]       0.39730238 [kcal/mol]       1.66231333 [kJ/mol]

  Total HF                         18.37414484 [mEh]      11.52995044 [kcal/mol]      48.24131728 [kJ/mol]
  Total SAPT0                      14.35146749 [mEh]       9.00568219 [kcal/mol]      37.67977789 [kJ/mol]

  --------------------------------------------------------------------------------------------------------

*** Psi4 exiting successfully. Buy a developer a beer!
