                               Psi4 1.1 release

  ==> Input File <==

--------------------------------------------------------------------------
memory 750000 mb

molecule mol {
0 1
C          2.06118       -2.03239       -0.96737
H          2.99054       -1.90032       -1.52611
H          2.15103       -2.90365       -0.31831
H          1.25402       -2.21962       -1.67705
--
0 1
C         -0.56632       -1.79004        0.40669
O         -0.32100       -2.97037        0.49680
O         -1.78262       -1.31841        0.09460
C         -2.79967       -2.29767       -0.18708
H         -2.49726       -2.92789       -1.02402
H         -2.97969       -2.92140        0.68962
H         -3.68807       -1.72428       -0.44168
--
0 1
C          1.31577        2.73369       -0.68220
H          2.27987        2.99232       -1.12558
H          1.07733        3.48393        0.07758
H          0.55583        2.76206       -1.46173
C         -1.14811        1.17238       -0.13345
O         -1.29212        1.16687       -1.32838
O         -2.11227        1.58364        0.72677
C         -3.37525        1.91728        0.12882
H         -3.26453        2.74764       -0.57053
H         -3.78000        1.05521       -0.40443
H         -4.02558        2.19658        0.95517
C          0.10963        0.80645        0.63885
C          0.46432       -0.71766        0.71374
C          1.40111        1.36200       -0.04815
C          2.58556        1.18150        0.94929
C          2.93559       -0.31851        0.77196
C          1.79220       -0.78417       -0.16026
O          1.65586        0.34770       -1.03108
H         -0.00830        1.20976        1.64430
H          0.73897       -0.95221        1.74488
H          3.41708        1.82542        0.65862
H          2.30451        1.44513        1.97137
H          3.89100       -0.44306        0.25852
H          2.97559       -0.87902        1.70795

symmetry c1
no_reorient
no_com
}

set {
basis jun-cc-pvdz
scf_type df
guess sad
freeze_core true
}

energy('fisapt0')
--------------------------------------------------------------------------

    Molecular point group: c1

    Geometry (in Angstrom), charge = 0, multiplicity = 1:

       Center              X                  Y                   Z               Mass
    ------------   -----------------  -----------------  -----------------  -----------------
           C          2.061180000000    -2.032390000000    -0.967370000000    12.000000000000
           H          2.990540000000    -1.900320000000    -1.526110000000     1.007825032070
           H          2.151030000000    -2.903650000000    -0.318310000000     1.007825032070
           H          1.254020000000    -2.219620000000    -1.677050000000     1.007825032070
           C         -0.566320000000    -1.790040000000     0.406690000000    12.000000000000
           O         -0.321000000000    -2.970370000000     0.496800000000    15.994914619560
           O         -1.782620000000    -1.318410000000     0.094600000000    15.994914619560
           C         -2.799670000000    -2.297670000000    -0.187080000000    12.000000000000
           H         -2.497260000000    -2.927890000000    -1.024020000000     1.007825032070
           H         -2.979690000000    -2.921400000000     0.689620000000     1.007825032070
           H         -3.688070000000    -1.724280000000    -0.441680000000     1.007825032070
           C          1.315770000000     2.733690000000    -0.682200000000    12.000000000000
           H          2.279870000000     2.992320000000    -1.125580000000     1.007825032070
           H          1.077330000000     3.483930000000     0.077580000000     1.007825032070
           H          0.555830000000     2.762060000000    -1.461730000000     1.007825032070
           C         -1.148110000000     1.172380000000    -0.133450000000    12.000000000000
           O         -1.292120000000     1.166870000000    -1.328380000000    15.994914619560
           O         -2.112270000000     1.583640000000     0.726770000000    15.994914619560
           C         -3.375250000000     1.917280000000     0.128820000000    12.000000000000
           H         -3.264530000000     2.747640000000    -0.570530000000     1.007825032070
           H         -3.780000000000     1.055210000000    -0.404430000000     1.007825032070
           H         -4.025580000000     2.196580000000     0.955170000000     1.007825032070
           C          0.109630000000     0.806450000000     0.638850000000    12.000000000000
           C          0.464320000000    -0.717660000000     0.713740000000    12.000000000000
           C          1.401110000000     1.362000000000    -0.048150000000    12.000000000000
           C          2.585560000000     1.181500000000     0.949290000000    12.000000000000
           C          2.935590000000    -0.318510000000     0.771960000000    12.000000000000
           C          1.792200000000    -0.784170000000    -0.160260000000    12.000000000000
           O          1.655860000000     0.347700000000    -1.031080000000    15.994914619560
           H         -0.008300000000     1.209760000000     1.644300000000     1.007825032070
           H          0.738970000000    -0.952210000000     1.744880000000     1.007825032070
           H          3.417080000000     1.825420000000     0.658620000000     1.007825032070
           H          2.304510000000     1.445130000000     1.971370000000     1.007825032070
           H          3.891000000000    -0.443060000000     0.258520000000     1.007825032070
           H          2.975590000000    -0.879020000000     1.707950000000     1.007825032070

  Charge       = 0
  Multiplicity = 1
  Basis Set: JUN-CC-PVDZ
    Blend: JUN-CC-PVDZ
  Basis Set: (JUN-CC-PVDZ AUX)
    Blend: JUN-CC-PVDZ-JKFIT

    Orbital Energies (a.u.)
    -----------------------

    Doubly Occupied:

       1A    -20.616549     2A    -20.605323     3A    -20.560035
       4A    -20.555684     5A    -20.545241     6A    -11.396273
       7A    -11.385215     8A    -11.301130     9A    -11.299879
      10A    -11.299750    11A    -11.292671    12A    -11.269623
      13A    -11.261928    14A    -11.237358    15A    -11.235123
      16A    -11.224140    17A    -11.219648    18A     -1.474094
      19A     -1.458731    20A     -1.400730    21A     -1.369083
      22A     -1.358522    23A     -1.112345    24A     -1.073767
      25A     -1.049370    26A     -0.994606    27A     -0.975598
      28A     -0.968599    29A     -0.912085    30A     -0.872983
      31A     -0.812891    32A     -0.785974    33A     -0.769048
      34A     -0.756279    35A     -0.715045    36A     -0.693537
      37A     -0.690536    38A     -0.677745    39A     -0.665254
      40A     -0.663416    41A     -0.658510    42A     -0.643159
      43A     -0.625238    44A     -0.598004    45A     -0.590176
      46A     -0.583183    47A     -0.573193    48A     -0.561959
      49A     -0.555401    50A     -0.547863    51A     -0.543795
      52A     -0.528926    53A     -0.525390    54A     -0.506958
      55A     -0.504758    56A     -0.501133    57A     -0.497424
      58A     -0.482924    59A     -0.471837    60A     -0.467624
      61A     -0.460372    62A     -0.451909    63A     -0.444488
      64A     -0.428644    65A     -0.417852

  @DF-RHF Final Energy:  -839.30376509669588

   => Energetics <=

    Nuclear Repulsion Energy =           1395.6165874528574022
    One-Electron Energy =               -3922.3876414380370079
    Two-Electron Energy =                1687.4672888884836084
    DFT Exchange-Correlation Energy =       0.0000000000000000
    Empirical Dispersion Energy =           0.0000000000000000
    PCM Polarization Energy =               0.0000000000000000
    EFP Energy =                            0.0000000000000000
    Total Energy =                       -839.3037650966959973
  Basis Set: (JUN-CC-PVDZ AUX)
    Blend: JUN-CC-PVDZ-JKFIT
  Basis Set: (JUN-CC-PVDZ AUX)
    Blend: JUN-CC-PVDZ-JKFIT
  Basis Set: (JUN-CC-PVDZ AUX)
    Blend: JUN-CC-PVDZ-JKFIT
  Basis Set: (JUN-CC-PVDZ AUX)
    Blend: JUN-CC-PVDZ-JKFIT
  Basis Set: (JUN-CC-PVDZ AUX)
    Blend: JUN-CC-PVDZ-RI

    SAPT Results
  --------------------------------------------------------------------------------------------------------
    Electrostatics                  8.88876309 [mEh]       5.57778328 [kcal/mol]      23.33744749 [kJ/mol]
      Elst10,r                      8.88876309 [mEh]       5.57778328 [kcal/mol]      23.33744749 [kJ/mol]

    Exchange                        6.06728813 [mEh]       3.80728094 [kcal/mol]      15.92966500 [kJ/mol]
      Exch10                        6.06728813 [mEh]       3.80728094 [kcal/mol]      15.92966500 [kJ/mol]
      Exch10(S^2)                   6.04710178 [mEh]       3.79461381 [kcal/mol]      15.87666572 [kJ/mol]

    Induction                      -1.48845647 [mEh]      -0.93402057 [kcal/mol]      -3.90794245 [kJ/mol]
      Ind20,r                      -2.57368772 [mEh]      -1.61501349 [kcal/mol]      -6.75721711 [kJ/mol]
      Exch-Ind20,r                  1.52471841 [mEh]       0.95677529 [kcal/mol]       4.00314818 [kJ/mol]
      delta HF,r (2)               -0.43948716 [mEh]      -0.27578237 [kcal/mol]      -1.15387353 [kJ/mol]
      Induction (A<-B)             -1.19482498 [mEh]      -0.74976402 [kcal/mol]      -3.13701298 [kJ/mol]
      Induction (B<-A)             -0.29363149 [mEh]      -0.18425655 [kcal/mol]      -0.77092947 [kJ/mol]

    Dispersion                     -2.30678768 [mEh]      -1.44753118 [kcal/mol]      -6.05647106 [kJ/mol]
      Disp20                       -2.74029212 [mEh]      -1.71955934 [kcal/mol]      -7.19463696 [kJ/mol]
      Exch-Disp20                   0.43350444 [mEh]       0.27202815 [kcal/mol]       1.13816590 [kJ/mol]

  Total HF                         13.46759476 [mEh]       8.45104365 [kcal/mol]      35.35917003 [kJ/mol]
  Total SAPT0                      11.16080708 [mEh]       7.00351247 [kcal/mol]      29.30269898 [kJ/mol]

  --------------------------------------------------------------------------------------------------------

*** Psi4 exiting successfully. Buy a developer a beer!
