                               Psi4 1.1 release

  ==> Input File <==

--------------------------------------------------------------------------
memory 750000 mb

molecule mol {
0 1
C         -0.73542       -1.49952        0.38217
O         -1.13563       -2.46177        0.99281
O         -1.18010       -1.15479       -0.83993
C         -2.21350       -1.97714       -1.40797
H         -1.84168       -2.98766       -1.58525
H         -3.07461       -2.02595       -0.73946
H         -2.47870       -1.49653       -2.34687
--
0 1
C         -1.17606        1.35531        0.12069
O         -1.46827        1.99861       -0.85291
O         -2.09350        0.92356        1.02220
C         -3.47090        1.17274        0.69261
H         -3.71917        0.70923       -0.26377
H         -4.04776        0.72310        1.49775
H         -3.66500        2.24465        0.63174
--
0 1
C          1.97079       -2.30011       -0.31048
H          2.93192       -2.36710       -0.82440
H          1.98827       -2.96636        0.55516
H          1.19279       -2.64400       -0.99443
C          1.37572        2.40177       -1.29229
H          2.33795        2.49230       -1.80177
H          1.17042        3.33925       -0.76921
H          0.58779        2.24717       -2.02448
C          0.20635        0.94931        0.60403
C          0.37020       -0.58821        0.87402
C          1.44234        1.25231       -0.31040
C          2.68229        1.27548        0.62721
C          2.85423       -0.22613        0.97023
C          1.72415       -0.87302        0.12645
O          1.63168        0.00333       -1.00436
H          0.31871        1.47742        1.55542
H          0.46361       -0.80200        1.93696
H          3.54305        1.65351        0.07311
H          2.53935        1.91277        1.50257
H          3.82422       -0.60390        0.64125
H          2.75274       -0.44933        2.03429

symmetry c1
no_reorient
no_com
}

set {
basis jun-cc-pvdz
scf_type df
guess sad
freeze_core true
}

energy('fisapt0')
--------------------------------------------------------------------------

    Molecular point group: c1

    Geometry (in Angstrom), charge = 0, multiplicity = 1:

       Center              X                  Y                   Z               Mass
    ------------   -----------------  -----------------  -----------------  -----------------
           C         -0.735420000000    -1.499520000000     0.382170000000    12.000000000000
           O         -1.135630000000    -2.461770000000     0.992810000000    15.994914619560
           O         -1.180100000000    -1.154790000000    -0.839930000000    15.994914619560
           C         -2.213500000000    -1.977140000000    -1.407970000000    12.000000000000
           H         -1.841680000000    -2.987660000000    -1.585250000000     1.007825032070
           H         -3.074610000000    -2.025950000000    -0.739460000000     1.007825032070
           H         -2.478700000000    -1.496530000000    -2.346870000000     1.007825032070
           C         -1.176060000000     1.355310000000     0.120690000000    12.000000000000
           O         -1.468270000000     1.998610000000    -0.852910000000    15.994914619560
           O         -2.093500000000     0.923560000000     1.022200000000    15.994914619560
           C         -3.470900000000     1.172740000000     0.692610000000    12.000000000000
           H         -3.719170000000     0.709230000000    -0.263770000000     1.007825032070
           H         -4.047760000000     0.723100000000     1.497750000000     1.007825032070
           H         -3.665000000000     2.244650000000     0.631740000000     1.007825032070
           C          1.970790000000    -2.300110000000    -0.310480000000    12.000000000000
           H          2.931920000000    -2.367100000000    -0.824400000000     1.007825032070
           H          1.988270000000    -2.966360000000     0.555160000000     1.007825032070
           H          1.192790000000    -2.644000000000    -0.994430000000     1.007825032070
           C          1.375720000000     2.401770000000    -1.292290000000    12.000000000000
           H          2.337950000000     2.492300000000    -1.801770000000     1.007825032070
           H          1.170420000000     3.339250000000    -0.769210000000     1.007825032070
           H          0.587790000000     2.247170000000    -2.024480000000     1.007825032070
           C          0.206350000000     0.949310000000     0.604030000000    12.000000000000
           C          0.370200000000    -0.588210000000     0.874020000000    12.000000000000
           C          1.442340000000     1.252310000000    -0.310400000000    12.000000000000
           C          2.682290000000     1.275480000000     0.627210000000    12.000000000000
           C          2.854230000000    -0.226130000000     0.970230000000    12.000000000000
           C          1.724150000000    -0.873020000000     0.126450000000    12.000000000000
           O          1.631680000000     0.003330000000    -1.004360000000    15.994914619560
           H          0.318710000000     1.477420000000     1.555420000000     1.007825032070
           H          0.463610000000    -0.802000000000     1.936960000000     1.007825032070
           H          3.543050000000     1.653510000000     0.073110000000     1.007825032070
           H          2.539350000000     1.912770000000     1.502570000000     1.007825032070
           H          3.824220000000    -0.603900000000     0.641250000000     1.007825032070
           H          2.752740000000    -0.449330000000     2.034290000000     1.007825032070

  Charge       = 0
  Multiplicity = 1
  Basis Set: JUN-CC-PVDZ
    Blend: JUN-CC-PVDZ
  Basis Set: (JUN-CC-PVDZ AUX)
    Blend: JUN-CC-PVDZ-JKFIT

    Orbital Energies (a.u.)
    -----------------------

    Doubly Occupied:

       1A    -20.610864     2A    -20.610054     3A    -20.562279
       4A    -20.556481     5A    -20.554771     6A    -11.393935
       7A    -11.389780     8A    -11.303919     9A    -11.299056
      10A    -11.297177    11A    -11.296345    12A    -11.268092
      13A    -11.264192    14A    -11.238507    15A    -11.236691
      16A    -11.230903    17A    -11.217315    18A     -1.471573
      19A     -1.463250    20A     -1.401036    21A     -1.367628
      22A     -1.365242    23A     -1.115643    24A     -1.075987
      25A     -1.052746    26A     -0.993342    27A     -0.976732
      28A     -0.968006    29A     -0.914112    30A     -0.874453
      31A     -0.816449    32A     -0.785391    33A     -0.768596
      34A     -0.760989    35A     -0.712144    36A     -0.698822
      37A     -0.694828    38A     -0.677069    39A     -0.672030
      40A     -0.664342    41A     -0.651321    42A     -0.646149
      43A     -0.623536    44A     -0.602128    45A     -0.590139
      46A     -0.588267    47A     -0.569479    48A     -0.563641
      49A     -0.555989    50A     -0.548383    51A     -0.542386
      52A     -0.532529    53A     -0.531998    54A     -0.511123
      55A     -0.503522    56A     -0.500292    57A     -0.496223
      58A     -0.484660    59A     -0.474572    60A     -0.472117
      61A     -0.465878    62A     -0.463156    63A     -0.443980
      64A     -0.425684    65A     -0.421690

  @DF-RHF Final Energy:  -839.31030875024976

   => Energetics <=

    Nuclear Repulsion Energy =           1411.1521314282413186
    One-Electron Energy =               -3953.2656439061265701
    Two-Electron Energy =                1702.8032037276354913
    DFT Exchange-Correlation Energy =       0.0000000000000000
    Empirical Dispersion Energy =           0.0000000000000000
    PCM Polarization Energy =               0.0000000000000000
    EFP Energy =                            0.0000000000000000
    Total Energy =                       -839.3103087502497601
  Basis Set: (JUN-CC-PVDZ AUX)
    Blend: JUN-CC-PVDZ-JKFIT
  Basis Set: (JUN-CC-PVDZ AUX)
    Blend: JUN-CC-PVDZ-JKFIT
  Basis Set: (JUN-CC-PVDZ AUX)
    Blend: JUN-CC-PVDZ-JKFIT
  Basis Set: (JUN-CC-PVDZ AUX)
    Blend: JUN-CC-PVDZ-JKFIT
  Basis Set: (JUN-CC-PVDZ AUX)
    Blend: JUN-CC-PVDZ-RI

    SAPT Results
  --------------------------------------------------------------------------------------------------------
    Electrostatics                 11.84946653 [mEh]       7.43565282 [kcal/mol]      31.11077438 [kJ/mol]
      Elst10,r                     11.84946653 [mEh]       7.43565282 [kcal/mol]      31.11077438 [kJ/mol]

    Exchange                        7.53205332 [mEh]       4.72643501 [kcal/mol]      19.77540600 [kJ/mol]
      Exch10                        7.53205332 [mEh]       4.72643501 [kcal/mol]      19.77540600 [kJ/mol]
      Exch10(S^2)                   7.51237927 [mEh]       4.71408936 [kcal/mol]      19.72375178 [kJ/mol]

    Induction                      -2.57693678 [mEh]      -1.61705231 [kcal/mol]      -6.76574750 [kJ/mol]
      Ind20,r                      -4.15428120 [mEh]      -2.60685092 [kcal/mol]     -10.90706530 [kJ/mol]
      Exch-Ind20,r                  2.19382145 [mEh]       1.37664380 [kcal/mol]       5.75987821 [kJ/mol]
      delta HF,r (2)               -0.61647702 [mEh]      -0.38684519 [kcal/mol]      -1.61856042 [kJ/mol]
      Induction (A<-B)             -1.38054079 [mEh]      -0.86630246 [kcal/mol]      -3.62460985 [kJ/mol]
      Induction (B<-A)             -1.19639598 [mEh]      -0.75074984 [kcal/mol]      -3.14113765 [kJ/mol]

    Dispersion                     -4.73935013 [mEh]      -2.97398723 [kcal/mol]     -12.44316378 [kJ/mol]
      Disp20                       -5.30175830 [mEh]      -3.32690370 [kcal/mol]     -13.91976641 [kJ/mol]
      Exch-Disp20                   0.56240816 [mEh]       0.35291647 [kcal/mol]       1.47660263 [kJ/mol]

  Total HF                         16.80458308 [mEh]      10.54503553 [kcal/mol]      44.12043287 [kJ/mol]
  Total SAPT0                      12.06523294 [mEh]       7.57104829 [kcal/mol]      31.67726910 [kJ/mol]

  --------------------------------------------------------------------------------------------------------

*** Psi4 exiting successfully. Buy a developer a beer!
