                               Psi4 1.1 release

  ==> Input File <==

--------------------------------------------------------------------------
memory 750000 mb

molecule mol {
0 1
C          1.91069       -2.40671       -0.32329
H          2.00304       -3.02988        0.57048
H          1.09519       -2.78872       -0.93642
H          2.83844       -2.48594       -0.89405
--
0 1
C         -0.82048       -1.50080        0.50191
O         -1.48590       -2.10965        1.30702
O         -1.02805       -1.55732       -0.82410
C         -2.17237       -2.31252       -1.24807
H         -2.08808       -3.35399       -0.93287
H         -3.08392       -1.88581       -0.82570
H         -2.18230       -2.23960       -2.33355
--
0 1
C          1.16349        2.24276       -1.43340
H          1.99947        2.27185       -2.13610
H          1.07591        3.21088       -0.93935
H          0.24596        2.06487       -1.99800
C         -1.03723        1.59665        0.42739
O         -1.13186        2.80245        0.42291
O         -2.08672        0.78024        0.25215
C         -3.36695        1.41025        0.05821
H         -4.08170        0.59323       -0.00892
H         -3.36368        1.99758       -0.86096
H         -3.60308        2.05996        0.90159
C          0.28370        0.89578        0.68456
C          0.37873       -0.65186        0.89479
C          1.39844        1.14521       -0.42345
C          2.74479        1.18881        0.33553
C          2.87347       -0.28530        0.80006
C          1.67326       -0.96445        0.07004
O          1.48767       -0.12754       -1.08092
H          0.62302        1.38227        1.60129
H          0.52619       -0.87291        1.95148
H          3.54144        1.45476       -0.36207
H          2.74985        1.91374        1.15170
H          3.81354       -0.73064        0.47086
H          2.81123       -0.40391        1.88396

symmetry c1
no_reorient
no_com
}

set {
basis jun-cc-pvdz
scf_type df
guess sad
freeze_core true
}

energy('fisapt0')
--------------------------------------------------------------------------

    Molecular point group: c1

    Geometry (in Angstrom), charge = 0, multiplicity = 1:

       Center              X                  Y                   Z               Mass
    ------------   -----------------  -----------------  -----------------  -----------------
           C          1.910690000000    -2.406710000000    -0.323290000000    12.000000000000
           H          2.003040000000    -3.029880000000     0.570480000000     1.007825032070
           H          1.095190000000    -2.788720000000    -0.936420000000     1.007825032070
           H          2.838440000000    -2.485940000000    -0.894050000000     1.007825032070
           C         -0.820480000000    -1.500800000000     0.501910000000    12.000000000000
           O         -1.485900000000    -2.109650000000     1.307020000000    15.994914619560
           O         -1.028050000000    -1.557320000000    -0.824100000000    15.994914619560
           C         -2.172370000000    -2.312520000000    -1.248070000000    12.000000000000
           H         -2.088080000000    -3.353990000000    -0.932870000000     1.007825032070
           H         -3.083920000000    -1.885810000000    -0.825700000000     1.007825032070
           H         -2.182300000000    -2.239600000000    -2.333550000000     1.007825032070
           C          1.163490000000     2.242760000000    -1.433400000000    12.000000000000
           H          1.999470000000     2.271850000000    -2.136100000000     1.007825032070
           H          1.075910000000     3.210880000000    -0.939350000000     1.007825032070
           H          0.245960000000     2.064870000000    -1.998000000000     1.007825032070
           C         -1.037230000000     1.596650000000     0.427390000000    12.000000000000
           O         -1.131860000000     2.802450000000     0.422910000000    15.994914619560
           O         -2.086720000000     0.780240000000     0.252150000000    15.994914619560
           C         -3.366950000000     1.410250000000     0.058210000000    12.000000000000
           H         -4.081700000000     0.593230000000    -0.008920000000     1.007825032070
           H         -3.363680000000     1.997580000000    -0.860960000000     1.007825032070
           H         -3.603080000000     2.059960000000     0.901590000000     1.007825032070
           C          0.283700000000     0.895780000000     0.684560000000    12.000000000000
           C          0.378730000000    -0.651860000000     0.894790000000    12.000000000000
           C          1.398440000000     1.145210000000    -0.423450000000    12.000000000000
           C          2.744790000000     1.188810000000     0.335530000000    12.000000000000
           C          2.873470000000    -0.285300000000     0.800060000000    12.000000000000
           C          1.673260000000    -0.964450000000     0.070040000000    12.000000000000
           O          1.487670000000    -0.127540000000    -1.080920000000    15.994914619560
           H          0.623020000000     1.382270000000     1.601290000000     1.007825032070
           H          0.526190000000    -0.872910000000     1.951480000000     1.007825032070
           H          3.541440000000     1.454760000000    -0.362070000000     1.007825032070
           H          2.749850000000     1.913740000000     1.151700000000     1.007825032070
           H          3.813540000000    -0.730640000000     0.470860000000     1.007825032070
           H          2.811230000000    -0.403910000000     1.883960000000     1.007825032070

  Charge       = 0
  Multiplicity = 1
  Basis Set: JUN-CC-PVDZ
    Blend: JUN-CC-PVDZ
  Basis Set: (JUN-CC-PVDZ AUX)
    Blend: JUN-CC-PVDZ-JKFIT

    Orbital Energies (a.u.)
    -----------------------

    Doubly Occupied:

       1A    -20.617610     2A    -20.600701     3A    -20.563392
       4A    -20.556729     5A    -20.548248     6A    -11.397009
       7A    -11.385208     8A    -11.304121     9A    -11.303245
      10A    -11.300824    11A    -11.291230    12A    -11.269406
      13A    -11.262213    14A    -11.239554    15A    -11.237176
      16A    -11.229687    17A    -11.224498    18A     -1.474972
      19A     -1.459790    20A     -1.403472    21A     -1.369758
      22A     -1.358046    23A     -1.113673    24A     -1.077337
      25A     -1.050582    26A     -0.992699    27A     -0.977878
      28A     -0.970535    29A     -0.916401    30A     -0.875908
      31A     -0.813885    32A     -0.786333    33A     -0.771314
      34A     -0.765852    35A     -0.708081    36A     -0.698504
      37A     -0.693049    38A     -0.674800    39A     -0.671209
      40A     -0.663161    41A     -0.655874    42A     -0.646255
      43A     -0.625948    44A     -0.604331    45A     -0.588578
      46A     -0.582335    47A     -0.567595    48A     -0.564309
      49A     -0.560210    50A     -0.547701    51A     -0.546727
      52A     -0.531351    53A     -0.526224    54A     -0.510836
      55A     -0.506934    56A     -0.501000    57A     -0.498718
      58A     -0.483116    59A     -0.476474    60A     -0.470726
      61A     -0.464339    62A     -0.453921    63A     -0.446041
      64A     -0.427303    65A     -0.420932

  @DF-RHF Final Energy:  -839.30460497230149

   => Energetics <=

    Nuclear Repulsion Energy =           1404.9445749452172549
    One-Electron Energy =               -3940.8466246971106557
    Two-Electron Energy =                1696.5974447795917968
    DFT Exchange-Correlation Energy =       0.0000000000000000
    Empirical Dispersion Energy =           0.0000000000000000
    PCM Polarization Energy =               0.0000000000000000
    EFP Energy =                            0.0000000000000000
    Total Energy =                       -839.3046049723013766
  Basis Set: (JUN-CC-PVDZ AUX)
    Blend: JUN-CC-PVDZ-JKFIT
  Basis Set: (JUN-CC-PVDZ AUX)
    Blend: JUN-CC-PVDZ-JKFIT
  Basis Set: (JUN-CC-PVDZ AUX)
    Blend: JUN-CC-PVDZ-JKFIT
  Basis Set: (JUN-CC-PVDZ AUX)
    Blend: JUN-CC-PVDZ-JKFIT
  Basis Set: (JUN-CC-PVDZ AUX)
    Blend: JUN-CC-PVDZ-RI

    SAPT Results
  --------------------------------------------------------------------------------------------------------
    Electrostatics                  6.95039834 [mEh]       4.36144099 [kcal/mol]      18.24827085 [kJ/mol]
      Elst10,r                      6.95039834 [mEh]       4.36144099 [kcal/mol]      18.24827085 [kJ/mol]

    Exchange                        4.68340584 [mEh]       2.93888166 [kcal/mol]      12.29628204 [kJ/mol]
      Exch10                        4.68340584 [mEh]       2.93888166 [kcal/mol]      12.29628204 [kJ/mol]
      Exch10(S^2)                   4.66590359 [mEh]       2.92789883 [kcal/mol]      12.25032988 [kJ/mol]

    Induction                      -1.07327401 [mEh]      -0.67348964 [kcal/mol]      -2.81788092 [kJ/mol]
      Ind20,r                      -1.79043466 [mEh]      -1.12351476 [kcal/mol]      -4.70078620 [kJ/mol]
      Exch-Ind20,r                  0.98550818 [mEh]       0.61841574 [kcal/mol]       2.58745173 [kJ/mol]
      delta HF,r (2)               -0.26834753 [mEh]      -0.16839062 [kcal/mol]      -0.70454644 [kJ/mol]
      Induction (A<-B)             -0.71982158 [mEh]      -0.45169488 [kcal/mol]      -1.88989157 [kJ/mol]
      Induction (B<-A)             -0.35345243 [mEh]      -0.22179476 [kcal/mol]      -0.92798935 [kJ/mol]

    Dispersion                     -2.30414608 [mEh]      -1.44587355 [kcal/mol]      -6.04953553 [kJ/mol]
      Disp20                       -2.61720641 [mEh]      -1.64232189 [kcal/mol]      -6.87147543 [kJ/mol]
      Exch-Disp20                   0.31306033 [mEh]       0.19644833 [kcal/mol]       0.82193990 [kJ/mol]

  Total HF                         10.56053017 [mEh]       6.62683301 [kcal/mol]      27.72667197 [kJ/mol]
  Total SAPT0                       8.25638409 [mEh]       5.18095945 [kcal/mol]      21.67713644 [kJ/mol]

  --------------------------------------------------------------------------------------------------------

*** Psi4 exiting successfully. Buy a developer a beer!
