                               Psi4 1.1 release

  ==> Input File <==

--------------------------------------------------------------------------
memory 750000 mb

molecule mol {
0 1
C         -1.15007       -2.35633       -1.45793
H         -0.35913       -2.08295       -2.15394
H         -0.88929       -3.30945       -0.98842
H         -2.08298       -2.49195       -2.00991
--
0 1
C          1.27189       -1.19180       -0.03155
O          1.61954       -1.12417       -1.18361
O          2.12096       -1.46760        0.98508
C          3.51182       -1.58970        0.63643
H          3.88556       -0.64080        0.24803
H          4.02065       -1.84659        1.56264
H          3.65281       -2.36984       -0.11271
--
0 1
C         -2.19239        2.18641       -0.11287
H         -1.48932        2.65631       -0.79855
H         -3.18392        2.19253       -0.57065
H         -2.23637        2.77386        0.80870
C          0.72431        1.49546        0.49714
O          1.52376        1.94221        1.28832
O          0.75351        1.75805       -0.81571
C          1.84256        2.57228       -1.28378
H          1.68367        2.67415       -2.35456
H          1.83178        3.54699       -0.79344
H          2.79483        2.07826       -1.08605
C         -0.39824        0.55005        0.89674
C         -0.11835       -0.96151        0.53049
C         -1.78233        0.76264        0.19713
C         -2.83079       -0.04902        1.01422
C         -2.55151       -1.49776        0.54055
C         -1.33607       -1.28951       -0.40204
O         -1.64589       -0.01896       -0.99821
H         -0.47974        0.65973        1.97719
H         -0.17401       -1.55527        1.44239
H         -3.83801        0.27366        0.74483
H         -2.71306        0.08969        2.09096
H         -3.38808       -1.89373       -0.03795
H         -2.34057       -2.19651        1.35252

symmetry c1
no_reorient
no_com
}

set {
basis jun-cc-pvdz
scf_type df
guess sad
freeze_core true
}

energy('fisapt0')
--------------------------------------------------------------------------

    Molecular point group: c1

    Geometry (in Angstrom), charge = 0, multiplicity = 1:

       Center              X                  Y                   Z               Mass
    ------------   -----------------  -----------------  -----------------  -----------------
           C         -1.150070000000    -2.356330000000    -1.457930000000    12.000000000000
           H         -0.359130000000    -2.082950000000    -2.153940000000     1.007825032070
           H         -0.889290000000    -3.309450000000    -0.988420000000     1.007825032070
           H         -2.082980000000    -2.491950000000    -2.009910000000     1.007825032070
           C          1.271890000000    -1.191800000000    -0.031550000000    12.000000000000
           O          1.619540000000    -1.124170000000    -1.183610000000    15.994914619560
           O          2.120960000000    -1.467600000000     0.985080000000    15.994914619560
           C          3.511820000000    -1.589700000000     0.636430000000    12.000000000000
           H          3.885560000000    -0.640800000000     0.248030000000     1.007825032070
           H          4.020650000000    -1.846590000000     1.562640000000     1.007825032070
           H          3.652810000000    -2.369840000000    -0.112710000000     1.007825032070
           C         -2.192390000000     2.186410000000    -0.112870000000    12.000000000000
           H         -1.489320000000     2.656310000000    -0.798550000000     1.007825032070
           H         -3.183920000000     2.192530000000    -0.570650000000     1.007825032070
           H         -2.236370000000     2.773860000000     0.808700000000     1.007825032070
           C          0.724310000000     1.495460000000     0.497140000000    12.000000000000
           O          1.523760000000     1.942210000000     1.288320000000    15.994914619560
           O          0.753510000000     1.758050000000    -0.815710000000    15.994914619560
           C          1.842560000000     2.572280000000    -1.283780000000    12.000000000000
           H          1.683670000000     2.674150000000    -2.354560000000     1.007825032070
           H          1.831780000000     3.546990000000    -0.793440000000     1.007825032070
           H          2.794830000000     2.078260000000    -1.086050000000     1.007825032070
           C         -0.398240000000     0.550050000000     0.896740000000    12.000000000000
           C         -0.118350000000    -0.961510000000     0.530490000000    12.000000000000
           C         -1.782330000000     0.762640000000     0.197130000000    12.000000000000
           C         -2.830790000000    -0.049020000000     1.014220000000    12.000000000000
           C         -2.551510000000    -1.497760000000     0.540550000000    12.000000000000
           C         -1.336070000000    -1.289510000000    -0.402040000000    12.000000000000
           O         -1.645890000000    -0.018960000000    -0.998210000000    15.994914619560
           H         -0.479740000000     0.659730000000     1.977190000000     1.007825032070
           H         -0.174010000000    -1.555270000000     1.442390000000     1.007825032070
           H         -3.838010000000     0.273660000000     0.744830000000     1.007825032070
           H         -2.713060000000     0.089690000000     2.090960000000     1.007825032070
           H         -3.388080000000    -1.893730000000    -0.037950000000     1.007825032070
           H         -2.340570000000    -2.196510000000     1.352520000000     1.007825032070

  Charge       = 0
  Multiplicity = 1
  Basis Set: JUN-CC-PVDZ
    Blend: JUN-CC-PVDZ
  Basis Set: (JUN-CC-PVDZ AUX)
    Blend: JUN-CC-PVDZ-JKFIT

    Orbital Energies (a.u.)
    -----------------------

    Doubly Occupied:

       1A    -20.610909     2A    -20.605218     3A    -20.560857
       4A    -20.558173     5A    -20.555178     6A    -11.391865
       7A    -11.388545     8A    -11.301938     9A    -11.299641
      10A    -11.294525    11A    -11.290910    12A    -11.267108
      13A    -11.266471    14A    -11.238164    15A    -11.236637
      16A    -11.228044    17A    -11.221917    18A     -1.469015
      19A     -1.463813    20A     -1.400083    21A     -1.367417
      22A     -1.362689    23A     -1.114790    24A     -1.075913
      25A     -1.050968    26A     -0.993886    27A     -0.976188
      28A     -0.966106    29A     -0.910811    30A     -0.872953
      31A     -0.818068    32A     -0.784779    33A     -0.767260
      34A     -0.758806    35A     -0.710072    36A     -0.692432
      37A     -0.690514    38A     -0.677800    39A     -0.673959
      40A     -0.660015    41A     -0.656993    42A     -0.647841
      43A     -0.623743    44A     -0.597713    45A     -0.589227
      46A     -0.580560    47A     -0.574325    48A     -0.563690
      49A     -0.558306    50A     -0.545026    51A     -0.541023
      52A     -0.531772    53A     -0.526111    54A     -0.508243
      55A     -0.506409    56A     -0.502935    57A     -0.495406
      58A     -0.485024    59A     -0.475443    60A     -0.468146
      61A     -0.466767    62A     -0.452771    63A     -0.446624
      64A     -0.423859    65A     -0.422249

  @DF-RHF Final Energy:  -839.30576170401753

   => Energetics <=

    Nuclear Repulsion Energy =           1402.9299379388255602
    One-Electron Energy =               -3936.9421143350855345
    Two-Electron Energy =                1694.7064146922423333
    DFT Exchange-Correlation Energy =       0.0000000000000000
    Empirical Dispersion Energy =           0.0000000000000000
    PCM Polarization Energy =               0.0000000000000000
    EFP Energy =                            0.0000000000000000
    Total Energy =                       -839.3057617040174136
  Basis Set: (JUN-CC-PVDZ AUX)
    Blend: JUN-CC-PVDZ-JKFIT
  Basis Set: (JUN-CC-PVDZ AUX)
    Blend: JUN-CC-PVDZ-JKFIT
  Basis Set: (JUN-CC-PVDZ AUX)
    Blend: JUN-CC-PVDZ-JKFIT
  Basis Set: (JUN-CC-PVDZ AUX)
    Blend: JUN-CC-PVDZ-JKFIT
  Basis Set: (JUN-CC-PVDZ AUX)
    Blend: JUN-CC-PVDZ-RI

    SAPT Results
  --------------------------------------------------------------------------------------------------------
    Electrostatics                  6.65548620 [mEh]       4.17638082 [kcal/mol]      17.47397902 [kJ/mol]
      Elst10,r                      6.65548620 [mEh]       4.17638082 [kcal/mol]      17.47397902 [kJ/mol]

    Exchange                        6.01393197 [mEh]       3.77379944 [kcal/mol]      15.78957839 [kJ/mol]
      Exch10                        6.01393197 [mEh]       3.77379944 [kcal/mol]      15.78957839 [kJ/mol]
      Exch10(S^2)                   5.98714057 [mEh]       3.75698758 [kcal/mol]      15.71923756 [kJ/mol]

    Induction                      -1.52087335 [mEh]      -0.95436248 [kcal/mol]      -3.99305298 [kJ/mol]
      Ind20,r                      -2.43052778 [mEh]      -1.52517927 [kcal/mol]      -6.38135069 [kJ/mol]
      Exch-Ind20,r                  1.38102117 [mEh]       0.86660390 [kcal/mol]       3.62587108 [kJ/mol]
      delta HF,r (2)               -0.47136674 [mEh]      -0.29578711 [kcal/mol]      -1.23757337 [kJ/mol]
      Induction (A<-B)             -1.25707895 [mEh]      -0.78882898 [kcal/mol]      -3.30046077 [kJ/mol]
      Induction (B<-A)             -0.26379440 [mEh]      -0.16553349 [kcal/mol]      -0.69259221 [kJ/mol]

    Dispersion                     -2.08683794 [mEh]      -1.30951063 [kcal/mol]      -5.47899300 [kJ/mol]
      Disp20                       -2.48018869 [mEh]      -1.55634197 [kcal/mol]      -6.51173542 [kJ/mol]
      Exch-Disp20                   0.39335076 [mEh]       0.24683134 [kcal/mol]       1.03274241 [kJ/mol]

  Total HF                         11.14854482 [mEh]       6.99581779 [kcal/mol]      29.27050443 [kJ/mol]
  Total SAPT0                       9.06170688 [mEh]       5.68630716 [kcal/mol]      23.79151142 [kJ/mol]

  --------------------------------------------------------------------------------------------------------

*** Psi4 exiting successfully. Buy a developer a beer!
