 Q-Chem 5.0, Q-Chem, Inc., Pleasanton, CA (2017)
 Q-Chem 5.0.1 for Intel X86 EM64T Linux

User input:
--------------------------------------------------------------
$molecule
0  1
--
0  1
C        +0.22270000        +1.04488000        +0.58595000
C        +0.62626000        -0.41353000        +0.99871000
C        +1.33008000        +1.39974000        -0.43491000
C        +2.63070000        +1.71700000        +0.32855000
C        +3.04336000        +0.29351000        +0.80300000
C        +1.94423000        -0.59299000        +0.15262000
O        +1.62840000        +0.13663000        -1.04376000
H        +3.37234000        +2.13782000        -0.35195000
H        +2.48236000        +2.42488000        +1.14651000
H        +4.02182000        +0.00994000        +0.41161000
H        +3.07359000        +0.18738000        +1.88928000
H        +1.03270000        +2.19943000        -1.08064000
H        +2.24339000        -1.61496000        +0.04786000
H        +0.81693000        -0.48905000        +2.04887000
H        -0.12524000        -1.15356000        +0.81843000
H        -0.74673000        +1.06811000        +0.13365000
H        +0.15552000        +1.72617000        +1.40828000
--
0  1
C        +4.01529000        +3.25277000        +4.06467000
C        +4.41885000        +1.79436000        +4.47743000
C        +5.12267000        +3.60763000        +3.04381000
C        +6.42329000        +3.92489000        +3.80727000
C        +6.83595000        +2.50140000        +4.28172000
C        +5.73682000        +1.61490000        +3.63134000
O        +5.42099000        +2.34452000        +2.43496000
H        +7.16493000        +4.34571000        +3.12677000
H        +6.27495000        +4.63277000        +4.62523000
H        +7.81441000        +2.21783000        +3.89033000
H        +6.86618000        +2.39527000        +5.36800000
H        +4.82529000        +4.40732000        +2.39808000
H        +6.03598000        +0.59293000        +3.52658000
H        +4.60952000        +1.71884000        +5.52759000
H        +3.66735000        +1.05433000        +4.29715000
H        +3.04586000        +3.27600000        +3.61237000
H        +3.94811000        +3.93406000        +4.88700000
$end

$rem
JOBTYPE                   SP
METHOD                    B3LYP
DFT_D                     d3_op
BASIS                     6-311++G(d,p)
SYMMETRY                  False
THRESH                    12
SCF_CONVERGENCE           8
MAX_SUB_FILE_NUM          128
MEM_STATIC                400
MEM_TOTAL                 4000
$end
--------------------------------------------------------------

             Standard Nuclear Orientation (Angstroms)
    I     Atom           X                Y                Z
 ----------------------------------------------------------------
    1      C       3.3734238725    -0.5158374594     1.2454824524
    2      C       3.4210657299     1.0135831015     0.9008170774
    3      C       3.0620822654    -1.1391913008    -0.1361353007
    4      C       1.5714143350    -0.9189146299    -0.4594382132
    5      C       1.5622891848     0.6077917012    -0.7607675489
    6      C       3.0691936486     0.9689453360    -0.6351883291
    7      O       3.7125674163    -0.2465401394    -1.0500187667
    8      H       1.2887089695    -1.4977677298    -1.3398962627
    9      H       0.9108023462    -1.2068901577     0.3608174221
   10      H       1.2199446290     0.8124915508    -1.7765826036
   11      H       0.9385082361     1.1842004554    -0.0745955994
   12      H       3.3381671555    -2.1721761115    -0.1764553677
   13      H       3.3248440464     1.8693121241    -1.1537214186
   14      H       2.6940689405     1.5673795967     1.4573055813
   15      H       4.3473648139     1.4959234972     1.1336588242
   16      H       4.3127332663    -0.8594339501     1.6256781415
   17      H       2.6637738529    -0.7678903754     2.0055890387
   18      C      -2.2227342684    -0.4621740622     1.4458428802
   19      C      -2.1750924109     1.0672464987     1.1011775052
   20      C      -2.5340758755    -1.0855279037     0.0642251271
   21      C      -4.0247438058    -0.8652512327    -0.2590777854
   22      C      -4.0338689561     0.6614550984    -0.5604071211
   23      C      -2.5269644923     1.0226087331    -0.4348279013
   24      O      -1.8835907246    -0.1928767422    -0.8496583389
   25      H      -4.3074491714    -1.4441043327    -1.1395358349
   26      H      -4.6853557946    -1.1532267605     0.5611778499
   27      H      -4.3762135119     0.8661549479    -1.5762221758
   28      H      -4.6576499048     1.2378638526     0.1257648284
   29      H      -2.2579909853    -2.1185127143     0.0239050601
   30      H      -2.2713140945     1.9229755213    -0.9533609908
   31      H      -2.9020892004     1.6210429938     1.6576660091
   32      H      -1.2487933270     1.5495868944     1.3340192520
   33      H      -1.2834248745    -0.8057705529     1.8260385693
   34      H      -2.9323842880    -0.7142269783     2.2059494665
 ----------------------------------------------------------------

   13    -619.9220257659      6.37E-09 Convergence criterion met
 Total energy in the final basis set = -619.92202577

                    Orbital Energies (a.u.)
 --------------------------------------------------------------

 Alpha MOs
 -- Occupied --
-19.127 -19.116 -10.225 -10.222 -10.214 -10.211 -10.171 -10.170
-10.169 -10.168 -10.159 -10.158 -10.158 -10.157  -1.054  -1.043
 -0.801  -0.790  -0.753  -0.751  -0.741  -0.740  -0.618  -0.607
 -0.582  -0.577  -0.571  -0.566  -0.530  -0.519  -0.482  -0.471
 -0.468  -0.458  -0.434  -0.424  -0.410  -0.399  -0.398  -0.388
 -0.368  -0.363  -0.357  -0.355  -0.352  -0.344  -0.343  -0.332
 -0.321  -0.310  -0.308  -0.296  -0.268  -0.257

          Ground-State Mulliken Net Atomic Charges

     Atom                 Charge (a.u.)
  ----------------------------------------
      1 C                    -0.454525
      2 C                    -0.437143
      3 C                     0.058294
      4 C                    -0.317586
      5 C                    -0.286713
      6 C                     0.028640
      7 O                    -0.140093
      8 H                     0.189500
      9 H                     0.064687
     10 H                     0.180911
     11 H                     0.054278
     12 H                     0.228846
     13 H                     0.230720
     14 H                     0.104478
     15 H                     0.176432
     16 H                     0.170017
     17 H                     0.112571
     18 C                    -0.324538
     19 C                    -0.366135
     20 C                     0.103019
     21 C                    -0.570787
     22 C                    -0.498106
     23 C                     0.136930
     24 O                    -0.043832
     25 H                     0.169057
     26 H                     0.125363
     27 H                     0.168483
     28 H                     0.125070
     29 H                     0.221764
     30 H                     0.226758
     31 H                     0.138322
     32 H                     0.143559
     33 H                     0.131670
     34 H                     0.150089
  ----------------------------------------
  Sum of atomic charges =     0.000000

                    Cartesian Multipole Moments
 -----------------------------------------------------------------
    Charge (ESU x 10^10)
                 0.0000
    Dipole Moment (Debye)
         X      -2.8029      Y       0.5504      Z       2.3793
       Tot       3.7175
    Quadrupole Moments (Debye-Ang)
        XX     -92.0293     XY       1.0400     YY     -81.5671
        XZ       3.8366     YZ      -2.3561     ZZ     -90.2216

 Total job time:  134.20s(wall), 534.21s(cpu)
        *  Thank you very much for using Q-Chem.  Have a nice day.  *
