 Q-Chem 5.0, Q-Chem, Inc., Pleasanton, CA (2017)
 Q-Chem 5.0.1 for Intel X86 EM64T Linux

User input:
--------------------------------------------------------------
$molecule
0  1
--
0  1
C        +0.22270000        +1.04488000        +0.58595000
C        +0.62626000        -0.41353000        +0.99871000
C        +1.33008000        +1.39974000        -0.43491000
C        +2.63070000        +1.71700000        +0.32855000
C        +3.04336000        +0.29351000        +0.80300000
C        +1.94423000        -0.59299000        +0.15262000
O        +1.62840000        +0.13663000        -1.04376000
H        +3.37234000        +2.13782000        -0.35195000
H        +2.48236000        +2.42488000        +1.14651000
H        +4.02182000        +0.00994000        +0.41161000
H        +3.07359000        +0.18738000        +1.88928000
H        +1.03270000        +2.19943000        -1.08064000
H        +2.24339000        -1.61496000        +0.04786000
H        +0.81693000        -0.48905000        +2.04887000
H        -0.12524000        -1.15356000        +0.81843000
H        -0.74673000        +1.06811000        +0.13365000
H        +0.15552000        +1.72617000        +1.40828000
--
0  1
C        +3.13486000        +2.74022000        +3.25711000
C        +3.53842000        +1.28181000        +3.66987000
C        +4.24224000        +3.09508000        +2.23625000
C        +5.54286000        +3.41234000        +2.99971000
C        +5.95552000        +1.98885000        +3.47416000
C        +4.85639000        +1.10235000        +2.82378000
O        +4.54056000        +1.83197000        +1.62740000
H        +6.28450000        +3.83316000        +2.31921000
H        +5.39452000        +4.12022000        +3.81767000
H        +6.93398000        +1.70528000        +3.08277000
H        +5.98575000        +1.88272000        +4.56044000
H        +3.94486000        +3.89477000        +1.59052000
H        +5.15555000        +0.08038000        +2.71902000
H        +3.72909000        +1.20629000        +4.72003000
H        +2.78692000        +0.54178000        +3.48959000
H        +2.16543000        +2.76345000        +2.80481000
H        +3.06768000        +3.42151000        +4.07944000
$end

$rem
JOBTYPE                   SP
METHOD                    B3LYP
DFT_D                     d3_op
BASIS                     6-311++G(d,p)
SYMMETRY                  False
THRESH                    12
SCF_CONVERGENCE           8
MAX_SUB_FILE_NUM          128
MEM_STATIC                400
MEM_TOTAL                 4000
$end
--------------------------------------------------------------

             Standard Nuclear Orientation (Angstroms)
    I     Atom           X                Y                Z
 ----------------------------------------------------------------
    1      C       2.7510572192    -0.5758732110     1.1785148147
    2      C       2.8003848848     0.9659018640     0.8944591528
    3      C       2.4013206633    -1.1412369540    -0.2187752064
    4      C       0.9045942433    -0.8996056064    -0.4954731988
    5      C       0.8982318230     0.6380343337    -0.7349263104
    6      C       2.4101797821     0.9852293752    -0.6327885434
    7      O       3.0348817419    -0.2161955588    -1.1121053772
    8      H       0.5962304151    -1.4408720913    -1.3910969779
    9      H       0.2626414738    -1.2166405698     0.3288707132
   10      H       0.5321441350     0.8854679605    -1.7327932623
   11      H       0.2955674780     1.1898621111    -0.0107278158
   12      H       2.6693816279    -2.1733148341    -0.3074587009
   13      H       2.6589079441     1.9042947383    -1.1209966995
   14      H       2.0911661747     1.5009528832     1.4908009785
   15      H       3.7353968801     1.4331713797     1.1231714121
   16      H       3.6971932110    -0.9398702208     1.5209214584
   17      H       2.0588297533    -0.8543108097     1.9454499387
   18      C      -1.5404659186    -0.5163870956     1.4416495451
   19      C      -1.4911382531     1.0253879793     1.1575938833
   20      C      -1.8902024745    -1.0817508387     0.0443595240
   21      C      -3.3869288945    -0.8401194910    -0.2323384683
   22      C      -3.3932913149     0.6975204490    -0.4717915799
   23      C      -1.8813433558     1.0447154905    -0.3696538130
   24      O      -1.2566413960    -0.1567094435    -0.8489706467
   25      H      -3.6952927227    -1.3813859759    -1.1279622475
   26      H      -4.0288816640    -1.1571544545     0.5920054437
   27      H      -3.7593790029     0.9449540758    -1.4696585318
   28      H      -3.9959556599     1.2493482264     0.2524069146
   29      H      -1.6221415099    -2.1138287187    -0.0443239705
   30      H      -1.6326151937     1.9637808537    -0.8578619691
   31      H      -2.2003569631     1.5604389986     1.7539357090
   32      H      -0.5561262578     1.4926574951     1.3863061426
   33      H      -0.5943299268    -0.8803841054     1.7840561888
   34      H      -2.2326933846    -0.7948246944     2.2085846692
 ----------------------------------------------------------------

   13    -619.8728256689      7.30E-09 Convergence criterion met
 Total energy in the final basis set = -619.87282567

                    Orbital Energies (a.u.)
 --------------------------------------------------------------

 Alpha MOs
 -- Occupied --
-19.125 -19.107 -10.230 -10.227 -10.202 -10.200 -10.175 -10.174
-10.174 -10.173 -10.154 -10.153 -10.144 -10.144  -1.063  -1.034
 -0.809  -0.784  -0.760  -0.760  -0.733  -0.731  -0.627  -0.603
 -0.589  -0.584  -0.571  -0.556  -0.536  -0.511  -0.498  -0.482
 -0.456  -0.443  -0.441  -0.415  -0.415  -0.408  -0.392  -0.385
 -0.378  -0.369  -0.358  -0.350  -0.345  -0.344  -0.335  -0.324
 -0.318  -0.310  -0.304  -0.287  -0.269  -0.237

          Ground-State Mulliken Net Atomic Charges

     Atom                 Charge (a.u.)
  ----------------------------------------
      1 C                    -0.351531
      2 C                    -0.350363
      3 C                    -0.254356
      4 C                    -0.107974
      5 C                    -0.158321
      6 C                    -0.264030
      7 O                    -0.124297
      8 H                     0.207195
      9 H                     0.029061
     10 H                     0.197584
     11 H                     0.019919
     12 H                     0.213790
     13 H                     0.211762
     14 H                     0.082511
     15 H                     0.182807
     16 H                     0.175227
     17 H                     0.097763
     18 C                    -0.428254
     19 C                    -0.411974
     20 C                     0.186574
     21 C                    -0.589077
     22 C                    -0.563907
     23 C                     0.206170
     24 O                     0.070933
     25 H                     0.168869
     26 H                     0.128037
     27 H                     0.172124
     28 H                     0.123960
     29 H                     0.230205
     30 H                     0.232368
     31 H                     0.171636
     32 H                     0.173034
     33 H                     0.140889
     34 H                     0.181667
  ----------------------------------------
  Sum of atomic charges =     0.000000

                    Cartesian Multipole Moments
 -----------------------------------------------------------------
    Charge (ESU x 10^10)
                 0.0000
    Dipole Moment (Debye)
         X      -3.4689      Y       0.4578      Z       2.3809
       Tot       4.2323
    Quadrupole Moments (Debye-Ang)
        XX     -93.0142     XY       0.8856     YY     -81.8254
        XZ       3.9634     YZ      -1.9462     ZZ     -90.6758

 Total job time:  174.21s(wall), 692.83s(cpu)
        *  Thank you very much for using Q-Chem.  Have a nice day.  *
