 Q-Chem 5.0, Q-Chem, Inc., Pleasanton, CA (2017)
 Q-Chem 5.0.1 for Intel X86 EM64T Linux

User input:
--------------------------------------------------------------
$molecule
0  1
C        +4.01529000        +3.25277000        +4.06467000
C        +4.41885000        +1.79436000        +4.47743000
C        +5.12267000        +3.60763000        +3.04381000
C        +6.42329000        +3.92489000        +3.80727000
C        +6.83595000        +2.50140000        +4.28172000
C        +5.73682000        +1.61490000        +3.63134000
O        +5.42099000        +2.34452000        +2.43496000
H        +7.16493000        +4.34571000        +3.12677000
H        +6.27495000        +4.63277000        +4.62523000
H        +7.81441000        +2.21783000        +3.89033000
H        +6.86618000        +2.39527000        +5.36800000
H        +4.82529000        +4.40732000        +2.39808000
H        +6.03598000        +0.59293000        +3.52658000
H        +4.60952000        +1.71884000        +5.52759000
H        +3.66735000        +1.05433000        +4.29715000
H        +3.04586000        +3.27600000        +3.61237000
H        +3.94811000        +3.93406000        +4.88700000
@C        +0.22270000        +1.04488000        +0.58595000
@C        +0.62626000        -0.41353000        +0.99871000
@C        +1.33008000        +1.39974000        -0.43491000
@C        +2.63070000        +1.71700000        +0.32855000
@C        +3.04336000        +0.29351000        +0.80300000
@C        +1.94423000        -0.59299000        +0.15262000
@O        +1.62840000        +0.13663000        -1.04376000
@H        +3.37234000        +2.13782000        -0.35195000
@H        +2.48236000        +2.42488000        +1.14651000
@H        +4.02182000        +0.00994000        +0.41161000
@H        +3.07359000        +0.18738000        +1.88928000
@H        +1.03270000        +2.19943000        -1.08064000
@H        +2.24339000        -1.61496000        +0.04786000
@H        +0.81693000        -0.48905000        +2.04887000
@H        -0.12524000        -1.15356000        +0.81843000
@H        -0.74673000        +1.06811000        +0.13365000
@H        +0.15552000        +1.72617000        +1.40828000
$end

$rem
JOBTYPE                   SP
METHOD                    B3LYP
DFT_D                     d3_op
BASIS                     6-311++G(d,p)
SYMMETRY                  False
THRESH                    12
SCF_CONVERGENCE           8
MAX_SUB_FILE_NUM          128
MEM_STATIC                400
MEM_TOTAL                 4000
$end
--------------------------------------------------------------

             Standard Nuclear Orientation (Angstroms)
    I     Atom           X                Y                Z
 ----------------------------------------------------------------
    1      C       4.0152900000     3.2527700000     4.0646700000
    2      C       4.4188500000     1.7943600000     4.4774300000
    3      C       5.1226700000     3.6076300000     3.0438100000
    4      C       6.4232900000     3.9248900000     3.8072700000
    5      C       6.8359500000     2.5014000000     4.2817200000
    6      C       5.7368200000     1.6149000000     3.6313400000
    7      O       5.4209900000     2.3445200000     2.4349600000
    8      H       7.1649300000     4.3457100000     3.1267700000
    9      H       6.2749500000     4.6327700000     4.6252300000
   10      H       7.8144100000     2.2178300000     3.8903300000
   11      H       6.8661800000     2.3952700000     5.3680000000
   12      H       4.8252900000     4.4073200000     2.3980800000
   13      H       6.0359800000     0.5929300000     3.5265800000
   14      H       4.6095200000     1.7188400000     5.5275900000
   15      H       3.6673500000     1.0543300000     4.2971500000
   16      H       3.0458600000     3.2760000000     3.6123700000
   17      H       3.9481100000     3.9340600000     4.8870000000
   18      GH      0.2227000000     1.0448800000     0.5859500000
   19      GH      0.6262600000    -0.4135300000     0.9987100000
   20      GH      1.3300800000     1.3997400000    -0.4349100000
   21      GH      2.6307000000     1.7170000000     0.3285500000
   22      GH      3.0433600000     0.2935100000     0.8030000000
   23      GH      1.9442300000    -0.5929900000     0.1526200000
   24      GH      1.6284000000     0.1366300000    -1.0437600000
   25      GH      3.3723400000     2.1378200000    -0.3519500000
   26      GH      2.4823600000     2.4248800000     1.1465100000
   27      GH      4.0218200000     0.0099400000     0.4116100000
   28      GH      3.0735900000     0.1873800000     1.8892800000
   29      GH      1.0327000000     2.1994300000    -1.0806400000
   30      GH      2.2433900000    -1.6149600000     0.0478600000
   31      GH      0.8169300000    -0.4890500000     2.0488700000
   32      GH     -0.1252400000    -1.1535600000     0.8184300000
   33      GH     -0.7467300000     1.0681100000     0.1336500000
   34      GH      0.1555200000     1.7261700000     1.4082800000
 ----------------------------------------------------------------

   12    -309.9598144001      6.22E-09 Convergence criterion met
 Total energy in the final basis set = -309.95981440

                    Orbital Energies (a.u.)
 --------------------------------------------------------------

 Alpha MOs
 -- Occupied --
-19.123 -10.221 -10.218 -10.168 -10.167 -10.165 -10.163  -1.050
 -0.798  -0.749  -0.747  -0.614  -0.578  -0.574  -0.527  -0.478
 -0.465  -0.431  -0.406  -0.395  -0.364  -0.360  -0.351  -0.339
 -0.317  -0.304  -0.264

          Ground-State Mulliken Net Atomic Charges

     Atom                 Charge (a.u.)
  ----------------------------------------
      1 C                    -0.336192
      2 C                    -0.373994
      3 C                     0.125974
      4 C                    -0.569774
      5 C                    -0.495778
      6 C                     0.154284
      7 O                    -0.061014
      8 H                     0.167907
      9 H                     0.124874
     10 H                     0.167384
     11 H                     0.124348
     12 H                     0.218506
     13 H                     0.223365
     14 H                     0.137729
     15 H                     0.140378
     16 H                     0.128421
     17 H                     0.149223
     18 GH                   -0.003066
     19 GH                   -0.000808
     20 GH                   -0.021445
     21 GH                    0.024914
     22 GH                   -0.002266
     23 GH                   -0.019667
     24 GH                   -0.000095
     25 GH                    0.002392
     26 GH                   -0.002669
     27 GH                    0.000513
     28 GH                   -0.005153
     29 GH                   -0.000492
     30 GH                   -0.000341
     31 GH                    0.001089
     32 GH                   -0.000092
     33 GH                   -0.000250
     34 GH                    0.001796
  ----------------------------------------
  Sum of atomic charges =     0.000000

                    Cartesian Multipole Moments
 -----------------------------------------------------------------
    Charge (ESU x 10^10)
                -0.0000
    Dipole Moment (Debye)
         X      -0.0125      Y       0.5177      Z       1.7212
       Tot       1.7974
    Quadrupole Moments (Debye-Ang)
        XX     -43.3166     XY       1.8802     YY     -38.3444
        XZ       9.2466     YZ       4.7367     ZZ     -34.2548

 Total job time:  119.32s(wall), 474.62s(cpu)
        *  Thank you very much for using Q-Chem.  Have a nice day.  *
