 Q-Chem 5.0, Q-Chem, Inc., Pleasanton, CA (2017)
 Q-Chem 5.0.1 for Intel X86 EM64T Linux

User input:
--------------------------------------------------------------
$molecule
0  1
C        +0.20238000        +1.04766000        +0.59128000
C        +0.63819000        -0.38392000        +1.03507000
C        +1.32502000        +1.40342000        -0.40773000
C        +2.63024000        +1.71632000        +0.35656000
C        +3.06844000        +0.28546000        +0.80025000
C        +1.92879000        -0.57154000        +0.20725000
O        +1.61715000        +0.12844000        -1.01410000
H        +3.36771000        +2.16806000        -0.30914000
H        +2.46905000        +2.39751000        +1.19495000
H        +4.02649000        +0.00980000        +0.35668000
H        +3.15140000        +0.17666000        +1.88393000
H        +1.05332000        +2.11810000        -1.18255000
H        +2.19020000        -1.60239000        -0.02473000
H        +0.81538000        -0.46660000        +2.10960000
H        -0.10758000        -1.13032000        +0.75591000
H        -0.76622000        +1.02844000        +0.08894000
H        +0.14243000        +1.75630000        +1.41989000
@C        +0.24499000        +2.33285000        +4.69451000
@C        +0.68080000        +0.90127000        +5.13830000
@C        +1.36763000        +2.68861000        +3.69550000
@C        +2.67285000        +3.00151000        +4.45979000
@C        +3.11105000        +1.57065000        +4.90348000
@C        +1.97140000        +0.71365000        +4.31048000
@O        +1.65976000        +1.41363000        +3.08913000
@H        +3.41032000        +3.45325000        +3.79409000
@H        +2.51166000        +3.68270000        +5.29818000
@H        +4.06910000        +1.29499000        +4.45991000
@H        +3.19401000        +1.46185000        +5.98716000
@H        +1.09593000        +3.40329000        +2.92068000
@H        +2.23281000        -0.31720000        +4.07850000
@H        +0.85799000        +0.81859000        +6.21283000
@H        -0.06497000        +0.15487000        +4.85914000
@H        -0.72361000        +2.31363000        +4.19217000
@H        +0.18504000        +3.04149000        +5.52312000
$end

$rem
JOBTYPE                   SP
METHOD                    B3LYP
DFT_D                     d3_op
BASIS                     6-311++G(d,p)
SYMMETRY                  False
THRESH                    12
SCF_CONVERGENCE           8
MAX_SUB_FILE_NUM          128
MEM_STATIC                400
MEM_TOTAL                 4000
$end
--------------------------------------------------------------

             Standard Nuclear Orientation (Angstroms)
    I     Atom           X                Y                Z
 ----------------------------------------------------------------
    1      C       0.2023800000     1.0476600000     0.5912800000
    2      C       0.6381900000    -0.3839200000     1.0350700000
    3      C       1.3250200000     1.4034200000    -0.4077300000
    4      C       2.6302400000     1.7163200000     0.3565600000
    5      C       3.0684400000     0.2854600000     0.8002500000
    6      C       1.9287900000    -0.5715400000     0.2072500000
    7      O       1.6171500000     0.1284400000    -1.0141000000
    8      H       3.3677100000     2.1680600000    -0.3091400000
    9      H       2.4690500000     2.3975100000     1.1949500000
   10      H       4.0264900000     0.0098000000     0.3566800000
   11      H       3.1514000000     0.1766600000     1.8839300000
   12      H       1.0533200000     2.1181000000    -1.1825500000
   13      H       2.1902000000    -1.6023900000    -0.0247300000
   14      H       0.8153800000    -0.4666000000     2.1096000000
   15      H      -0.1075800000    -1.1303200000     0.7559100000
   16      H      -0.7662200000     1.0284400000     0.0889400000
   17      H       0.1424300000     1.7563000000     1.4198900000
   18      GH      0.2449900000     2.3328500000     4.6945100000
   19      GH      0.6808000000     0.9012700000     5.1383000000
   20      GH      1.3676300000     2.6886100000     3.6955000000
   21      GH      2.6728500000     3.0015100000     4.4597900000
   22      GH      3.1110500000     1.5706500000     4.9034800000
   23      GH      1.9714000000     0.7136500000     4.3104800000
   24      GH      1.6597600000     1.4136300000     3.0891300000
   25      GH      3.4103200000     3.4532500000     3.7940900000
   26      GH      2.5116600000     3.6827000000     5.2981800000
   27      GH      4.0691000000     1.2949900000     4.4599100000
   28      GH      3.1940100000     1.4618500000     5.9871600000
   29      GH      1.0959300000     3.4032900000     2.9206800000
   30      GH      2.2328100000    -0.3172000000     4.0785000000
   31      GH      0.8579900000     0.8185900000     6.2128300000
   32      GH     -0.0649700000     0.1548700000     4.8591400000
   33      GH     -0.7236100000     2.3136300000     4.1921700000
   34      GH      0.1850400000     3.0414900000     5.5231200000
 ----------------------------------------------------------------

   11    -309.9683044177      9.71E-09 Convergence criterion met
 Total energy in the final basis set = -309.96830442

                    Orbital Energies (a.u.)
 --------------------------------------------------------------

 Alpha MOs
 -- Occupied --
-19.118 -10.219 -10.219 -10.170 -10.170 -10.170 -10.170  -1.046
 -0.798  -0.751  -0.746  -0.612  -0.572  -0.571  -0.524  -0.478
 -0.468  -0.418  -0.408  -0.389  -0.367  -0.361  -0.348  -0.342
 -0.323  -0.306  -0.263

          Ground-State Mulliken Net Atomic Charges

     Atom                 Charge (a.u.)
  ----------------------------------------
      1 C                    -0.268624
      2 C                    -0.274412
      3 C                    -0.175665
      4 C                    -0.270809
      5 C                    -0.274639
      6 C                    -0.176212
      7 O                    -0.155347
      8 H                     0.196377
      9 H                     0.094471
     10 H                     0.196759
     11 H                     0.095105
     12 H                     0.226884
     13 H                     0.226407
     14 H                     0.094822
     15 H                     0.196946
     16 H                     0.196308
     17 H                     0.093762
     18 GH                    0.006528
     19 GH                    0.006311
     20 GH                   -0.045278
     21 GH                    0.006317
     22 GH                    0.006647
     23 GH                   -0.047063
     24 GH                    0.021329
     25 GH                    0.002730
     26 GH                   -0.000346
     27 GH                    0.002734
     28 GH                   -0.000350
     29 GH                    0.006846
     30 GH                    0.006621
     31 GH                   -0.000363
     32 GH                    0.002771
     33 GH                    0.002767
     34 GH                   -0.000334
  ----------------------------------------
  Sum of atomic charges =     0.000000

                    Cartesian Multipole Moments
 -----------------------------------------------------------------
    Charge (ESU x 10^10)
                 0.0000
    Dipole Moment (Debye)
         X       0.0195      Y       0.5283      Z       1.6798
       Tot       1.7610
    Quadrupole Moments (Debye-Ang)
        XX     -43.1077     XY       0.2909     YY     -41.2700
        XZ       2.8859     YZ      -0.7007     ZZ     -45.9373

 Total job time:  121.99s(wall), 485.10s(cpu)
        *  Thank you very much for using Q-Chem.  Have a nice day.  *
