 Q-Chem 5.0, Q-Chem, Inc., Pleasanton, CA (2017)
 Q-Chem 5.0.1 for Intel X86 EM64T Linux

User input:
--------------------------------------------------------------
$molecule
0  1
C        +0.22270000        +1.04488000        +0.58595000
C        +0.62626000        -0.41353000        +0.99871000
C        +1.33008000        +1.39974000        -0.43491000
C        +2.63070000        +1.71700000        +0.32855000
C        +3.04336000        +0.29351000        +0.80300000
C        +1.94423000        -0.59299000        +0.15262000
O        +1.62840000        +0.13663000        -1.04376000
H        +3.37234000        +2.13782000        -0.35195000
H        +2.48236000        +2.42488000        +1.14651000
H        +4.02182000        +0.00994000        +0.41161000
H        +3.07359000        +0.18738000        +1.88928000
H        +1.03270000        +2.19943000        -1.08064000
H        +2.24339000        -1.61496000        +0.04786000
H        +0.81693000        -0.48905000        +2.04887000
H        -0.12524000        -1.15356000        +0.81843000
H        -0.74673000        +1.06811000        +0.13365000
H        +0.15552000        +1.72617000        +1.40828000
@C        +4.01529000        +3.25277000        +4.06467000
@C        +4.41885000        +1.79436000        +4.47743000
@C        +5.12267000        +3.60763000        +3.04381000
@C        +6.42329000        +3.92489000        +3.80727000
@C        +6.83595000        +2.50140000        +4.28172000
@C        +5.73682000        +1.61490000        +3.63134000
@O        +5.42099000        +2.34452000        +2.43496000
@H        +7.16493000        +4.34571000        +3.12677000
@H        +6.27495000        +4.63277000        +4.62523000
@H        +7.81441000        +2.21783000        +3.89033000
@H        +6.86618000        +2.39527000        +5.36800000
@H        +4.82529000        +4.40732000        +2.39808000
@H        +6.03598000        +0.59293000        +3.52658000
@H        +4.60952000        +1.71884000        +5.52759000
@H        +3.66735000        +1.05433000        +4.29715000
@H        +3.04586000        +3.27600000        +3.61237000
@H        +3.94811000        +3.93406000        +4.88700000
$end

$rem
JOBTYPE                   SP
METHOD                    B3LYP
DFT_D                     d3_op
BASIS                     6-311++G(d,p)
SYMMETRY                  False
THRESH                    12
SCF_CONVERGENCE           8
MAX_SUB_FILE_NUM          128
MEM_STATIC                400
MEM_TOTAL                 4000
$end
--------------------------------------------------------------

             Standard Nuclear Orientation (Angstroms)
    I     Atom           X                Y                Z
 ----------------------------------------------------------------
    1      C       0.2227000000     1.0448800000     0.5859500000
    2      C       0.6262600000    -0.4135300000     0.9987100000
    3      C       1.3300800000     1.3997400000    -0.4349100000
    4      C       2.6307000000     1.7170000000     0.3285500000
    5      C       3.0433600000     0.2935100000     0.8030000000
    6      C       1.9442300000    -0.5929900000     0.1526200000
    7      O       1.6284000000     0.1366300000    -1.0437600000
    8      H       3.3723400000     2.1378200000    -0.3519500000
    9      H       2.4823600000     2.4248800000     1.1465100000
   10      H       4.0218200000     0.0099400000     0.4116100000
   11      H       3.0735900000     0.1873800000     1.8892800000
   12      H       1.0327000000     2.1994300000    -1.0806400000
   13      H       2.2433900000    -1.6149600000     0.0478600000
   14      H       0.8169300000    -0.4890500000     2.0488700000
   15      H      -0.1252400000    -1.1535600000     0.8184300000
   16      H      -0.7467300000     1.0681100000     0.1336500000
   17      H       0.1555200000     1.7261700000     1.4082800000
   18      GH      4.0152900000     3.2527700000     4.0646700000
   19      GH      4.4188500000     1.7943600000     4.4774300000
   20      GH      5.1226700000     3.6076300000     3.0438100000
   21      GH      6.4232900000     3.9248900000     3.8072700000
   22      GH      6.8359500000     2.5014000000     4.2817200000
   23      GH      5.7368200000     1.6149000000     3.6313400000
   24      GH      5.4209900000     2.3445200000     2.4349600000
   25      GH      7.1649300000     4.3457100000     3.1267700000
   26      GH      6.2749500000     4.6327700000     4.6252300000
   27      GH      7.8144100000     2.2178300000     3.8903300000
   28      GH      6.8661800000     2.3952700000     5.3680000000
   29      GH      4.8252900000     4.4073200000     2.3980800000
   30      GH      6.0359800000     0.5929300000     3.5265800000
   31      GH      4.6095200000     1.7188400000     5.5275900000
   32      GH      3.6673500000     1.0543300000     4.2971500000
   33      GH      3.0458600000     3.2760000000     3.6123700000
   34      GH      3.9481100000     3.9340600000     4.8870000000
 ----------------------------------------------------------------

   12    -309.9595927244      6.23E-09 Convergence criterion met
 Total energy in the final basis set = -309.95959272

                    Orbital Energies (a.u.)
 --------------------------------------------------------------

 Alpha MOs
 -- Occupied --
-19.123 -10.221 -10.218 -10.168 -10.167 -10.165 -10.163  -1.050
 -0.798  -0.749  -0.747  -0.614  -0.578  -0.574  -0.527  -0.478
 -0.465  -0.431  -0.406  -0.395  -0.364  -0.360  -0.351  -0.339
 -0.317  -0.304  -0.264

          Ground-State Mulliken Net Atomic Charges

     Atom                 Charge (a.u.)
  ----------------------------------------
      1 C                    -0.453451
      2 C                    -0.435296
      3 C                     0.059035
      4 C                    -0.338132
      5 C                    -0.285188
      6 C                     0.030131
      7 O                    -0.136365
      8 H                     0.184470
      9 H                     0.076321
     10 H                     0.175430
     11 H                     0.069457
     12 H                     0.232017
     13 H                     0.234069
     14 H                     0.108654
     15 H                     0.179302
     16 H                     0.172313
     17 H                     0.115937
     18 GH                    0.005406
     19 GH                    0.011171
     20 GH                   -0.019192
     21 GH                    0.001094
     22 GH                   -0.003612
     23 GH                   -0.019894
     24 GH                    0.012316
     25 GH                   -0.000368
     26 GH                    0.000295
     27 GH                   -0.000258
     28 GH                    0.000127
     29 GH                    0.002417
     30 GH                    0.002760
     31 GH                   -0.000988
     32 GH                    0.011550
     33 GH                    0.009728
     34 GH                   -0.001259
  ----------------------------------------
  Sum of atomic charges =     0.000000

                    Cartesian Multipole Moments
 -----------------------------------------------------------------
    Charge (ESU x 10^10)
                 0.0000
    Dipole Moment (Debye)
         X      -0.0137      Y       0.5167      Z       1.7204
       Tot       1.7964
    Quadrupole Moments (Debye-Ang)
        XX     -43.2287     XY      -0.0559     YY     -40.6242
        XZ       2.7783     YZ      -0.8620     ZZ     -46.2358

 Total job time:  131.03s(wall), 521.00s(cpu)
        *  Thank you very much for using Q-Chem.  Have a nice day.  *
