 Q-Chem 5.0, Q-Chem, Inc., Pleasanton, CA (2017)
 Q-Chem 5.0.1 for Intel X86 EM64T Linux

User input:
--------------------------------------------------------------
$molecule
0  1
C        +3.13486000        +2.74022000        +3.25711000
C        +3.53842000        +1.28181000        +3.66987000
C        +4.24224000        +3.09508000        +2.23625000
C        +5.54286000        +3.41234000        +2.99971000
C        +5.95552000        +1.98885000        +3.47416000
C        +4.85639000        +1.10235000        +2.82378000
O        +4.54056000        +1.83197000        +1.62740000
H        +6.28450000        +3.83316000        +2.31921000
H        +5.39452000        +4.12022000        +3.81767000
H        +6.93398000        +1.70528000        +3.08277000
H        +5.98575000        +1.88272000        +4.56044000
H        +3.94486000        +3.89477000        +1.59052000
H        +5.15555000        +0.08038000        +2.71902000
H        +3.72909000        +1.20629000        +4.72003000
H        +2.78692000        +0.54178000        +3.48959000
H        +2.16543000        +2.76345000        +2.80481000
H        +3.06768000        +3.42151000        +4.07944000
@C        +0.22270000        +1.04488000        +0.58595000
@C        +0.62626000        -0.41353000        +0.99871000
@C        +1.33008000        +1.39974000        -0.43491000
@C        +2.63070000        +1.71700000        +0.32855000
@C        +3.04336000        +0.29351000        +0.80300000
@C        +1.94423000        -0.59299000        +0.15262000
@O        +1.62840000        +0.13663000        -1.04376000
@H        +3.37234000        +2.13782000        -0.35195000
@H        +2.48236000        +2.42488000        +1.14651000
@H        +4.02182000        +0.00994000        +0.41161000
@H        +3.07359000        +0.18738000        +1.88928000
@H        +1.03270000        +2.19943000        -1.08064000
@H        +2.24339000        -1.61496000        +0.04786000
@H        +0.81693000        -0.48905000        +2.04887000
@H        -0.12524000        -1.15356000        +0.81843000
@H        -0.74673000        +1.06811000        +0.13365000
@H        +0.15552000        +1.72617000        +1.40828000
$end

$rem
JOBTYPE                   SP
METHOD                    B3LYP
DFT_D                     d3_op
BASIS                     6-311++G(d,p)
SYMMETRY                  False
THRESH                    12
SCF_CONVERGENCE           8
MAX_SUB_FILE_NUM          128
MEM_STATIC                400
MEM_TOTAL                 4000
$end
--------------------------------------------------------------

             Standard Nuclear Orientation (Angstroms)
    I     Atom           X                Y                Z
 ----------------------------------------------------------------
    1      C       3.1348600000     2.7402200000     3.2571100000
    2      C       3.5384200000     1.2818100000     3.6698700000
    3      C       4.2422400000     3.0950800000     2.2362500000
    4      C       5.5428600000     3.4123400000     2.9997100000
    5      C       5.9555200000     1.9888500000     3.4741600000
    6      C       4.8563900000     1.1023500000     2.8237800000
    7      O       4.5405600000     1.8319700000     1.6274000000
    8      H       6.2845000000     3.8331600000     2.3192100000
    9      H       5.3945200000     4.1202200000     3.8176700000
   10      H       6.9339800000     1.7052800000     3.0827700000
   11      H       5.9857500000     1.8827200000     4.5604400000
   12      H       3.9448600000     3.8947700000     1.5905200000
   13      H       5.1555500000     0.0803800000     2.7190200000
   14      H       3.7290900000     1.2062900000     4.7200300000
   15      H       2.7869200000     0.5417800000     3.4895900000
   16      H       2.1654300000     2.7634500000     2.8048100000
   17      H       3.0676800000     3.4215100000     4.0794400000
   18      GH      0.2227000000     1.0448800000     0.5859500000
   19      GH      0.6262600000    -0.4135300000     0.9987100000
   20      GH      1.3300800000     1.3997400000    -0.4349100000
   21      GH      2.6307000000     1.7170000000     0.3285500000
   22      GH      3.0433600000     0.2935100000     0.8030000000
   23      GH      1.9442300000    -0.5929900000     0.1526200000
   24      GH      1.6284000000     0.1366300000    -1.0437600000
   25      GH      3.3723400000     2.1378200000    -0.3519500000
   26      GH      2.4823600000     2.4248800000     1.1465100000
   27      GH      4.0218200000     0.0099400000     0.4116100000
   28      GH      3.0735900000     0.1873800000     1.8892800000
   29      GH      1.0327000000     2.1994300000    -1.0806400000
   30      GH      2.2433900000    -1.6149600000     0.0478600000
   31      GH      0.8169300000    -0.4890500000     2.0488700000
   32      GH     -0.1252400000    -1.1535600000     0.8184300000
   33      GH     -0.7467300000     1.0681100000     0.1336500000
   34      GH      0.1555200000     1.7261700000     1.4082800000
 ----------------------------------------------------------------

   12    -309.9606389470      6.36E-09 Convergence criterion met
 Total energy in the final basis set = -309.96063895

                    Orbital Energies (a.u.)
 --------------------------------------------------------------

 Alpha MOs
 -- Occupied --
-19.123 -10.221 -10.218 -10.168 -10.167 -10.165 -10.163  -1.050
 -0.798  -0.749  -0.747  -0.614  -0.578  -0.573  -0.526  -0.478
 -0.465  -0.430  -0.406  -0.395  -0.364  -0.360  -0.351  -0.339
 -0.317  -0.304  -0.264

          Ground-State Mulliken Net Atomic Charges

     Atom                 Charge (a.u.)
  ----------------------------------------
      1 C                    -0.414537
      2 C                    -0.371042
      3 C                     0.261084
      4 C                    -0.606137
      5 C                    -0.562754
      6 C                     0.231001
      7 O                    -0.043731
      8 H                     0.165994
      9 H                     0.125425
     10 H                     0.168732
     11 H                     0.122095
     12 H                     0.215631
     13 H                     0.220277
     14 H                     0.171458
     15 H                     0.140138
     16 H                     0.124997
     17 H                     0.179043
     18 GH                   -0.004826
     19 GH                   -0.005697
     20 GH                   -0.061950
     21 GH                   -0.006579
     22 GH                   -0.003443
     23 GH                   -0.082615
     24 GH                   -0.000613
     25 GH                    0.011547
     26 GH                    0.005144
     27 GH                    0.013658
     28 GH                    0.005545
     29 GH                   -0.001090
     30 GH                   -0.001672
     31 GH                    0.001757
     32 GH                   -0.000063
     33 GH                    0.000285
     34 GH                    0.002939
  ----------------------------------------
  Sum of atomic charges =     0.000000

                    Cartesian Multipole Moments
 -----------------------------------------------------------------
    Charge (ESU x 10^10)
                 0.0000
    Dipole Moment (Debye)
         X      -0.0216      Y       0.5071      Z       1.6944
       Tot       1.7688
    Quadrupole Moments (Debye-Ang)
        XX     -43.4048     XY       1.3777     YY     -38.9418
        XZ       7.6325     YZ       3.3907     ZZ     -37.1198

 Total job time:  165.46s(wall), 658.36s(cpu)
        *  Thank you very much for using Q-Chem.  Have a nice day.  *
