 Q-Chem 5.0, Q-Chem, Inc., Pleasanton, CA (2017)
 Q-Chem 5.0.1 for Intel X86 EM64T Linux

User input:
--------------------------------------------------------------
$molecule
0  1
--
0  1
C        +0.20238000        +1.04766000        +0.59128000
C        +0.63819000        -0.38392000        +1.03507000
C        +1.32502000        +1.40342000        -0.40773000
C        +2.63024000        +1.71632000        +0.35656000
C        +3.06844000        +0.28546000        +0.80025000
C        +1.92879000        -0.57154000        +0.20725000
O        +1.61715000        +0.12844000        -1.01410000
H        +3.36771000        +2.16806000        -0.30914000
H        +2.46905000        +2.39751000        +1.19495000
H        +4.02649000        +0.00980000        +0.35668000
H        +3.15140000        +0.17666000        +1.88393000
H        +1.05332000        +2.11810000        -1.18255000
H        +2.19020000        -1.60239000        -0.02473000
H        +0.81538000        -0.46660000        +2.10960000
H        -0.10758000        -1.13032000        +0.75591000
H        -0.76622000        +1.02844000        +0.08894000
H        +0.14243000        +1.75630000        +1.41989000
--
0  1
C        +0.24499000        +2.33285000        +4.69451000
C        +0.68080000        +0.90127000        +5.13830000
C        +1.36763000        +2.68861000        +3.69550000
C        +2.67285000        +3.00151000        +4.45979000
C        +3.11105000        +1.57065000        +4.90348000
C        +1.97140000        +0.71365000        +4.31048000
O        +1.65976000        +1.41363000        +3.08913000
H        +3.41032000        +3.45325000        +3.79409000
H        +2.51166000        +3.68270000        +5.29818000
H        +4.06910000        +1.29499000        +4.45991000
H        +3.19401000        +1.46185000        +5.98716000
H        +1.09593000        +3.40329000        +2.92068000
H        +2.23281000        -0.31720000        +4.07850000
H        +0.85799000        +0.81859000        +6.21283000
H        -0.06497000        +0.15487000        +4.85914000
H        -0.72361000        +2.31363000        +4.19217000
H        +0.18504000        +3.04149000        +5.52312000
$end

$rem
JOBTYPE                   SP
METHOD                    B3LYP
DFT_D                     d3_op
BASIS                     6-311++G(d,p)
SYMMETRY                  False
THRESH                    12
SCF_CONVERGENCE           8
MAX_SUB_FILE_NUM          128
MEM_STATIC                400
MEM_TOTAL                 4000
$end
--------------------------------------------------------------

             Standard Nuclear Orientation (Angstroms)
    I     Atom           X                Y                Z
 ----------------------------------------------------------------
    1      C      -1.6860662560    -1.2641732557     0.7815029294
    2      C      -1.6862206095    -1.2659843376    -0.7793615467
    3      C      -2.5218322515     0.0003754823     1.0769998283
    4      C      -1.6860207891     1.2649972012     0.7806959812
    5      C      -1.6860315732     1.2656800205    -0.7801499207
    6      C      -2.5194033489     0.0000612463    -1.0778086589
    7      O      -3.4786836323    -0.0003271034    -0.0014404600
    8      H      -2.1788714794     2.1542729749     1.1774002966
    9      H      -0.6839785462     1.2126691260     1.2120577093
   10      H      -2.1821793250     2.1535232510    -1.1753389759
   11      H      -0.6836631674     1.2158258209    -1.2112581226
   12      H      -3.0502334459     0.0007258391     2.0286964605
   13      H      -3.0463291339    -0.0003007493    -2.0302532595
   14      H      -0.6838384413    -1.2176282952    -1.2103356544
   15      H      -2.1831425215    -2.1534237000    -1.1752607131
   16      H      -2.1807811663    -2.1523004134     1.1782246874
   17      H      -0.6841441471    -1.2111519739     1.2124321760
   18      C       2.6139366848    -1.2643707815     0.7812765368
   19      C       2.6137823313    -1.2661818634    -0.7795879393
   20      C       1.7781706893     0.0001779566     1.0767734357
   21      C       2.6139821517     1.2647996755     0.7804695886
   22      C       2.6139713676     1.2654824947    -0.7803763133
   23      C       1.7805995918    -0.0001362794    -1.0780350515
   24      O       0.8213193085    -0.0005246291    -0.0016668526
   25      H       2.1211314614     2.1540754492     1.1771739040
   26      H       3.6160243945     1.2124716002     1.2118313167
   27      H       2.1178236158     2.1533257252    -1.1755653685
   28      H       3.6163397734     1.2156282952    -1.2114845152
   29      H       1.2497694949     0.0005283133     2.0284700679
   30      H       1.2536738069    -0.0004982750    -2.0304796520
   31      H       3.6161644995    -1.2178258209    -1.2105620470
   32      H       2.1168604193    -2.1536212257    -1.1754871057
   33      H       2.1192217745    -2.1524979392     1.1779982948
   34      H       3.6158587937    -1.2113494997     1.2122057834
 ----------------------------------------------------------------

   13    -619.9340486547      6.30E-09 Convergence criterion met
 Total energy in the final basis set = -619.93404865

                    Orbital Energies (a.u.)
 --------------------------------------------------------------

 Alpha MOs
 -- Occupied --
-19.128 -19.103 -10.229 -10.229 -10.204 -10.204 -10.179 -10.179
-10.179 -10.179 -10.151 -10.151 -10.151 -10.151  -1.060  -1.031
 -0.809  -0.780  -0.761  -0.757  -0.734  -0.730  -0.622  -0.596
 -0.585  -0.582  -0.557  -0.554  -0.537  -0.509  -0.491  -0.479
 -0.459  -0.448  -0.430  -0.417  -0.403  -0.400  -0.391  -0.377
 -0.374  -0.370  -0.356  -0.353  -0.349  -0.344  -0.336  -0.331
 -0.322  -0.316  -0.303  -0.290  -0.276  -0.247

          Ground-State Mulliken Net Atomic Charges

     Atom                 Charge (a.u.)
  ----------------------------------------
      1 C                    -0.241878
      2 C                    -0.248262
      3 C                    -0.182781
      4 C                    -0.242632
      5 C                    -0.246843
      6 C                    -0.184551
      7 O                    -0.160576
      8 H                     0.180074
      9 H                     0.066672
     10 H                     0.180635
     11 H                     0.068114
     12 H                     0.217808
     13 H                     0.217151
     14 H                     0.068356
     15 H                     0.180528
     16 H                     0.180256
     17 H                     0.066434
     18 C                    -0.476535
     19 C                    -0.479855
     20 C                     0.139954
     21 C                    -0.477094
     22 C                    -0.479717
     23 C                     0.142131
     24 O                     0.106959
     25 H                     0.161628
     26 H                     0.137034
     27 H                     0.161539
     28 H                     0.137111
     29 H                     0.205765
     30 H                     0.205420
     31 H                     0.137055
     32 H                     0.161491
     33 H                     0.161521
     34 H                     0.137088
  ----------------------------------------
  Sum of atomic charges =     0.000000

                    Cartesian Multipole Moments
 -----------------------------------------------------------------
    Charge (ESU x 10^10)
                 0.0000
    Dipole Moment (Debye)
         X       4.4634      Y       0.0033      Z       0.0017
       Tot       4.4634
    Quadrupole Moments (Debye-Ang)
        XX     -95.8693     XY       0.0035     YY     -87.5350
        XZ      -0.0081     YZ       0.0056     ZZ     -83.0371

 Total job time:  153.07s(wall), 608.96s(cpu)
        *  Thank you very much for using Q-Chem.  Have a nice day.  *
