 Q-Chem 5.0, Q-Chem, Inc., Pleasanton, CA (2017)
 Q-Chem 5.0.1 for Intel X86 EM64T Linux

User input:
--------------------------------------------------------------
$molecule
0  1
C        +0.22270000        +1.04488000        +0.58595000
C        +0.62626000        -0.41353000        +0.99871000
C        +1.33008000        +1.39974000        -0.43491000
C        +2.63070000        +1.71700000        +0.32855000
C        +3.04336000        +0.29351000        +0.80300000
C        +1.94423000        -0.59299000        +0.15262000
O        +1.62840000        +0.13663000        -1.04376000
H        +3.37234000        +2.13782000        -0.35195000
H        +2.48236000        +2.42488000        +1.14651000
H        +4.02182000        +0.00994000        +0.41161000
H        +3.07359000        +0.18738000        +1.88928000
H        +1.03270000        +2.19943000        -1.08064000
C        +2.35450000        -2.01267000        -0.16812000
H        +3.25743000        -2.00195000        -0.74215000
H        +1.57951000        -2.48932000        -0.73123000
H        +2.51687000        -2.55129000        +0.74206000
H        -0.74673000        +1.06811000        +0.13365000
H        +0.15552000        +1.72617000        +1.40828000
H        +0.81693000        -0.48905000        +2.04887000
H        -0.12524000        -1.15356000        +0.81843000
@C        +3.33235000        +2.57761000        +3.12973000
@C        +3.73591000        +1.11920000        +3.54249000
@C        +4.43973000        +2.93247000        +2.10887000
@C        +5.74035000        +3.24973000        +2.87233000
@C        +6.15301000        +1.82624000        +3.34678000
@C        +5.05388000        +0.93974000        +2.69640000
@O        +4.73805000        +1.66936000        +1.50002000
@H        +6.48199000        +3.67055000        +2.19183000
@H        +5.59201000        +3.95761000        +3.69029000
@H        +7.13147000        +1.54267000        +2.95539000
@H        +6.18324000        +1.72011000        +4.43306000
@H        +4.14235000        +3.73216000        +1.46314000
@C        +5.46415000        -0.47994000        +2.37566000
@H        +6.36708000        -0.46922000        +1.80163000
@H        +4.68916000        -0.95659000        +1.81255000
@H        +5.62652000        -1.01856000        +3.28584000
@H        +2.36292000        +2.60084000        +2.67743000
@H        +3.26517000        +3.25890000        +3.95206000
@H        +3.92658000        +1.04368000        +4.59265000
@H        +2.98441000        +0.37917000        +3.36221000
$end

$rem
JOBTYPE                   SP
METHOD                    B3LYP
DFT_D                     d3_op
BASIS                     6-311++G(d,p)
SYMMETRY                  False
THRESH                    12
SCF_CONVERGENCE           8
MAX_SUB_FILE_NUM          128
MEM_STATIC                400
MEM_TOTAL                 4000
$end
--------------------------------------------------------------

             Standard Nuclear Orientation (Angstroms)
    I     Atom           X                Y                Z
 ----------------------------------------------------------------
    1      C       0.2227000000     1.0448800000     0.5859500000
    2      C       0.6262600000    -0.4135300000     0.9987100000
    3      C       1.3300800000     1.3997400000    -0.4349100000
    4      C       2.6307000000     1.7170000000     0.3285500000
    5      C       3.0433600000     0.2935100000     0.8030000000
    6      C       1.9442300000    -0.5929900000     0.1526200000
    7      O       1.6284000000     0.1366300000    -1.0437600000
    8      H       3.3723400000     2.1378200000    -0.3519500000
    9      H       2.4823600000     2.4248800000     1.1465100000
   10      H       4.0218200000     0.0099400000     0.4116100000
   11      H       3.0735900000     0.1873800000     1.8892800000
   12      H       1.0327000000     2.1994300000    -1.0806400000
   13      C       2.3545000000    -2.0126700000    -0.1681200000
   14      H       3.2574300000    -2.0019500000    -0.7421500000
   15      H       1.5795100000    -2.4893200000    -0.7312300000
   16      H       2.5168700000    -2.5512900000     0.7420600000
   17      H      -0.7467300000     1.0681100000     0.1336500000
   18      H       0.1555200000     1.7261700000     1.4082800000
   19      H       0.8169300000    -0.4890500000     2.0488700000
   20      H      -0.1252400000    -1.1535600000     0.8184300000
   21      GH      3.3323500000     2.5776100000     3.1297300000
   22      GH      3.7359100000     1.1192000000     3.5424900000
   23      GH      4.4397300000     2.9324700000     2.1088700000
   24      GH      5.7403500000     3.2497300000     2.8723300000
   25      GH      6.1530100000     1.8262400000     3.3467800000
   26      GH      5.0538800000     0.9397400000     2.6964000000
   27      GH      4.7380500000     1.6693600000     1.5000200000
   28      GH      6.4819900000     3.6705500000     2.1918300000
   29      GH      5.5920100000     3.9576100000     3.6902900000
   30      GH      7.1314700000     1.5426700000     2.9553900000
   31      GH      6.1832400000     1.7201100000     4.4330600000
   32      GH      4.1423500000     3.7321600000     1.4631400000
   33      GH      5.4641500000    -0.4799400000     2.3756600000
   34      GH      6.3670800000    -0.4692200000     1.8016300000
   35      GH      4.6891600000    -0.9565900000     1.8125500000
   36      GH      5.6265200000    -1.0185600000     3.2858400000
   37      GH      2.3629200000     2.6008400000     2.6774300000
   38      GH      3.2651700000     3.2589000000     3.9520600000
   39      GH      3.9265800000     1.0436800000     4.5926500000
   40      GH      2.9844100000     0.3791700000     3.3622100000
 ----------------------------------------------------------------

   13    -349.2965279783      2.63E-09 Convergence criterion met
 Total energy in the final basis set = -349.29652798

                    Orbital Energies (a.u.)
 --------------------------------------------------------------

 Alpha MOs
 -- Occupied --
-19.119 -10.225 -10.216 -10.166 -10.166 -10.163 -10.162 -10.154
 -1.049  -0.798  -0.775  -0.748  -0.684  -0.615  -0.575  -0.556
 -0.503  -0.482  -0.464  -0.440  -0.418  -0.405  -0.392  -0.377
 -0.360  -0.348  -0.344  -0.336  -0.316  -0.301  -0.262

          Ground-State Mulliken Net Atomic Charges

     Atom                 Charge (a.u.)
  ----------------------------------------
      1 C                    -0.537564
      2 C                    -0.121083
      3 C                    -0.004060
      4 C                    -0.227618
      5 C                    -0.255525
      6 C                    -0.209277
      7 O                    -0.014490
      8 H                     0.192644
      9 H                     0.080159
     10 H                     0.217735
     11 H                     0.000988
     12 H                     0.244194
     13 C                    -0.536627
     14 H                     0.147545
     15 H                     0.166985
     16 H                     0.156253
     17 H                     0.178575
     18 H                     0.119376
     19 H                     0.131886
     20 H                     0.176501
     21 GH                   -0.016186
     22 GH                    0.029056
     23 GH                   -0.026067
     24 GH                   -0.006764
     25 GH                   -0.007304
     26 GH                    0.060007
     27 GH                    0.048993
     28 GH                   -0.001220
     29 GH                    0.001030
     30 GH                    0.000204
     31 GH                   -0.000251
     32 GH                    0.004766
     33 GH                   -0.043781
     34 GH                    0.000540
     35 GH                    0.033183
     36 GH                   -0.001288
     37 GH                    0.008777
     38 GH                   -0.001961
     39 GH                    0.001422
     40 GH                    0.010246
  ----------------------------------------
  Sum of atomic charges =     0.000000

                    Cartesian Multipole Moments
 -----------------------------------------------------------------
    Charge (ESU x 10^10)
                 0.0000
    Dipole Moment (Debye)
         X      -0.0044      Y       0.4038      Z       1.6134
       Tot       1.6632
    Quadrupole Moments (Debye-Ang)
        XX     -49.7853     XY      -0.0656     YY     -47.6220
        XZ       2.5707     YZ      -0.6655     ZZ     -52.6346

 Total job time:  272.44s(wall), 1080.77s(cpu)
        *  Thank you very much for using Q-Chem.  Have a nice day.  *
