 Q-Chem 5.0, Q-Chem, Inc., Pleasanton, CA (2017)
 Q-Chem 5.0.1 for Intel X86 EM64T Linux

User input:
--------------------------------------------------------------
$molecule
0  1
--
0  1
C        +0.22270000        +1.04488000        +0.58595000
C        +0.62626000        -0.41353000        +0.99871000
C        +1.33008000        +1.39974000        -0.43491000
C        +2.63070000        +1.71700000        +0.32855000
C        +3.04336000        +0.29351000        +0.80300000
C        +1.94423000        -0.59299000        +0.15262000
O        +1.62840000        +0.13663000        -1.04376000
H        +3.37234000        +2.13782000        -0.35195000
H        +2.48236000        +2.42488000        +1.14651000
H        +4.02182000        +0.00994000        +0.41161000
H        +3.07359000        +0.18738000        +1.88928000
H        +1.03270000        +2.19943000        -1.08064000
C        +2.35450000        -2.01267000        -0.16812000
H        +3.25743000        -2.00195000        -0.74215000
H        +1.57951000        -2.48932000        -0.73123000
H        +2.51687000        -2.55129000        +0.74206000
H        -0.74673000        +1.06811000        +0.13365000
H        +0.15552000        +1.72617000        +1.40828000
H        +0.81693000        -0.48905000        +2.04887000
H        -0.12524000        -1.15356000        +0.81843000
--
0  1
C        +4.27248000        +3.04099000        +3.89878000
C        +4.67604000        +1.58258000        +4.31154000
C        +5.37986000        +3.39585000        +2.87792000
C        +6.68048000        +3.71311000        +3.64138000
C        +7.09314000        +2.28962000        +4.11583000
C        +5.99401000        +1.40312000        +3.46545000
O        +5.67818000        +2.13274000        +2.26907000
H        +7.42212000        +4.13393000        +2.96088000
H        +6.53214000        +4.42099000        +4.45934000
H        +8.07160000        +2.00605000        +3.72444000
H        +7.12337000        +2.18349000        +5.20211000
H        +5.08248000        +4.19554000        +2.23219000
C        +6.40428000        -0.01656000        +3.14471000
H        +7.30721000        -0.00584000        +2.57068000
H        +5.62929000        -0.49321000        +2.58160000
H        +6.56665000        -0.55518000        +4.05489000
H        +3.30305000        +3.06422000        +3.44648000
H        +4.20530000        +3.72228000        +4.72111000
H        +4.86671000        +1.50706000        +5.36170000
H        +3.92454000        +0.84255000        +4.13126000
$end

$rem
JOBTYPE                   SP
METHOD                    B3LYP
DFT_D                     d3_op
BASIS                     6-311++G(d,p)
SYMMETRY                  False
THRESH                    12
SCF_CONVERGENCE           8
MAX_SUB_FILE_NUM          128
MEM_STATIC                400
MEM_TOTAL                 4000
$end
--------------------------------------------------------------

             Standard Nuclear Orientation (Angstroms)
    I     Atom           X                Y                Z
 ----------------------------------------------------------------
    1      C       3.3362162354    -1.5068160516     0.8120953755
    2      C       3.3631259694    -0.0174246950     1.3031966609
    3      C       2.9712109244    -1.3378790124    -0.6820942454
    4      C       1.4676161152    -1.0196681415    -0.7964706191
    5      C       1.4395942025     0.4436908264    -0.2677834132
    6      C       2.9488130128     0.7259645000    -0.0237684401
    7      O       3.5798664882    -0.0864203865    -1.0263757136
    8      H       1.1515644642    -1.0697574547    -1.8394481005
    9      H       0.8424085865    -1.7049359047    -0.2205530465
   10      H       1.0550421216     1.1333523192    -1.0210886442
   11      H       0.8419794947     0.5691898446     0.6373620589
   12      H       3.2498472608    -2.1956553758    -1.2578439270
   13      C       3.3719976264     2.1722542089    -0.1496564211
   14      H       3.0340406437     2.5624742848    -1.0868977531
   15      H       4.4388650208     2.2373216621    -0.1000803783
   16      H       2.9425270444     2.7403486652     0.6489216037
   17      H       4.2917812812    -1.9736640843     0.9298145553
   18      H       2.6593936248    -2.1315597481     1.3566156349
   19      H       2.6571669512     0.1528653497     2.0890194846
   20      H       4.2961062754     0.2991340128     1.7206123559
   21      C      -2.2602708354    -1.3999928350     0.9792391975
   22      C      -2.2333611013     0.0893985215     1.4703404828
   23      C      -2.6252761463    -1.2310557959    -0.5149504235
   24      C      -4.1288709555    -0.9128449250    -0.6293267972
   25      C      -4.1568928682     0.5505140429    -0.1006395913
   26      C      -2.6476740579     0.8327877166     0.1433753818
   27      O      -2.0166205825     0.0204028300    -0.8592318917
   28      H      -4.4449226065    -0.9629342382    -1.6723042785
   29      H      -4.7540784842    -1.5981126882    -0.0534092246
   30      H      -4.5414449491     1.2401755357    -0.8539448222
   31      H      -4.7545075760     0.6760130611     0.8045058809
   32      H      -2.3466398099    -2.0888321593    -1.0907001051
   33      C      -2.2244894443     2.2790774254     0.0174874009
   34      H      -2.5624464270     2.6692975013    -0.9197539311
   35      H      -1.1576220499     2.3441448786     0.0670634436
   36      H      -2.6539600263     2.8471718817     0.8160654256
   37      H      -1.3047057895    -1.8668408678     1.0969583772
   38      H      -2.9370934459    -2.0247365316     1.5237594568
   39      H      -2.9393201195     0.2596885662     2.2561633065
   40      H      -1.3003807953     0.4059572293     1.8877561779
 ----------------------------------------------------------------

   13    -698.5959377167      5.65E-09 Convergence criterion met
 Total energy in the final basis set = -698.59593772

                    Orbital Energies (a.u.)
 --------------------------------------------------------------

 Alpha MOs
 -- Occupied --
-19.122 -19.113 -10.228 -10.219 -10.219 -10.210 -10.169 -10.168
-10.167 -10.166 -10.159 -10.158 -10.158 -10.158 -10.157 -10.150
 -1.052  -1.044  -0.801  -0.792  -0.778  -0.770  -0.752  -0.742
 -0.687  -0.679  -0.618  -0.609  -0.578  -0.569  -0.560  -0.550
 -0.506  -0.498  -0.486  -0.476  -0.468  -0.458  -0.444  -0.435
 -0.421  -0.413  -0.409  -0.398  -0.396  -0.387  -0.380  -0.373
 -0.364  -0.354  -0.351  -0.347  -0.343  -0.339  -0.338  -0.330
 -0.319  -0.310  -0.304  -0.295  -0.266  -0.256

          Ground-State Mulliken Net Atomic Charges

     Atom                 Charge (a.u.)
  ----------------------------------------
      1 C                    -0.664504
      2 C                    -0.231768
      3 C                     0.365228
      4 C                    -0.547513
      5 C                    -0.108955
      6 C                    -0.056466
      7 O                    -0.066681
      8 H                     0.192762
      9 H                     0.062959
     10 H                     0.174525
     11 H                     0.005286
     12 H                     0.250931
     13 C                    -0.466278
     14 H                     0.147564
     15 H                     0.159288
     16 H                     0.140478
     17 H                     0.170772
     18 H                     0.115133
     19 H                     0.132316
     20 H                     0.168387
     21 C                    -0.401568
     22 C                    -0.342392
     23 C                     0.182367
     24 C                    -0.675713
     25 C                    -0.424825
     26 C                     0.213305
     27 O                    -0.016481
     28 H                     0.165379
     29 H                     0.127687
     30 H                     0.154320
     31 H                     0.140364
     32 H                     0.234461
     33 C                    -0.347452
     34 H                     0.157247
     35 H                     0.147377
     36 H                     0.138270
     37 H                     0.128236
     38 H                     0.156916
     39 H                     0.153819
     40 H                     0.165219
  ----------------------------------------
  Sum of atomic charges =    -0.000000

                    Cartesian Multipole Moments
 -----------------------------------------------------------------
    Charge (ESU x 10^10)
                -0.0000
    Dipole Moment (Debye)
         X      -2.4527      Y      -0.6300      Z       2.2657
       Tot       3.3979
    Quadrupole Moments (Debye-Ang)
        XX    -104.0414     XY      -0.1484     YY     -95.3602
        XZ       3.3387     YZ       1.5774     ZZ    -103.1440

 Total job time:  214.24s(wall), 850.89s(cpu)
        *  Thank you very much for using Q-Chem.  Have a nice day.  *
