 Q-Chem 5.0, Q-Chem, Inc., Pleasanton, CA (2017)
 Q-Chem 5.0.1 for Intel X86 EM64T Linux

User input:
--------------------------------------------------------------
$molecule
0  1
C        +4.27248000        +3.04099000        +3.89878000
C        +4.67604000        +1.58258000        +4.31154000
C        +5.37986000        +3.39585000        +2.87792000
C        +6.68048000        +3.71311000        +3.64138000
C        +7.09314000        +2.28962000        +4.11583000
C        +5.99401000        +1.40312000        +3.46545000
O        +5.67818000        +2.13274000        +2.26907000
H        +7.42212000        +4.13393000        +2.96088000
H        +6.53214000        +4.42099000        +4.45934000
H        +8.07160000        +2.00605000        +3.72444000
H        +7.12337000        +2.18349000        +5.20211000
H        +5.08248000        +4.19554000        +2.23219000
C        +6.40428000        -0.01656000        +3.14471000
H        +7.30721000        -0.00584000        +2.57068000
H        +5.62929000        -0.49321000        +2.58160000
H        +6.56665000        -0.55518000        +4.05489000
H        +3.30305000        +3.06422000        +3.44648000
H        +4.20530000        +3.72228000        +4.72111000
H        +4.86671000        +1.50706000        +5.36170000
H        +3.92454000        +0.84255000        +4.13126000
@C        +0.22270000        +1.04488000        +0.58595000
@C        +0.62626000        -0.41353000        +0.99871000
@C        +1.33008000        +1.39974000        -0.43491000
@C        +2.63070000        +1.71700000        +0.32855000
@C        +3.04336000        +0.29351000        +0.80300000
@C        +1.94423000        -0.59299000        +0.15262000
@O        +1.62840000        +0.13663000        -1.04376000
@H        +3.37234000        +2.13782000        -0.35195000
@H        +2.48236000        +2.42488000        +1.14651000
@H        +4.02182000        +0.00994000        +0.41161000
@H        +3.07359000        +0.18738000        +1.88928000
@H        +1.03270000        +2.19943000        -1.08064000
@C        +2.35450000        -2.01267000        -0.16812000
@H        +3.25743000        -2.00195000        -0.74215000
@H        +1.57951000        -2.48932000        -0.73123000
@H        +2.51687000        -2.55129000        +0.74206000
@H        -0.74673000        +1.06811000        +0.13365000
@H        +0.15552000        +1.72617000        +1.40828000
@H        +0.81693000        -0.48905000        +2.04887000
@H        -0.12524000        -1.15356000        +0.81843000
$end

$rem
JOBTYPE                   SP
METHOD                    B3LYP
DFT_D                     d3_op
BASIS                     6-311++G(d,p)
SYMMETRY                  False
THRESH                    12
SCF_CONVERGENCE           8
MAX_SUB_FILE_NUM          128
MEM_STATIC                400
MEM_TOTAL                 4000
$end
--------------------------------------------------------------

             Standard Nuclear Orientation (Angstroms)
    I     Atom           X                Y                Z
 ----------------------------------------------------------------
    1      C       4.2724800000     3.0409900000     3.8987800000
    2      C       4.6760400000     1.5825800000     4.3115400000
    3      C       5.3798600000     3.3958500000     2.8779200000
    4      C       6.6804800000     3.7131100000     3.6413800000
    5      C       7.0931400000     2.2896200000     4.1158300000
    6      C       5.9940100000     1.4031200000     3.4654500000
    7      O       5.6781800000     2.1327400000     2.2690700000
    8      H       7.4221200000     4.1339300000     2.9608800000
    9      H       6.5321400000     4.4209900000     4.4593400000
   10      H       8.0716000000     2.0060500000     3.7244400000
   11      H       7.1233700000     2.1834900000     5.2021100000
   12      H       5.0824800000     4.1955400000     2.2321900000
   13      C       6.4042800000    -0.0165600000     3.1447100000
   14      H       7.3072100000    -0.0058400000     2.5706800000
   15      H       5.6292900000    -0.4932100000     2.5816000000
   16      H       6.5666500000    -0.5551800000     4.0548900000
   17      H       3.3030500000     3.0642200000     3.4464800000
   18      H       4.2053000000     3.7222800000     4.7211100000
   19      H       4.8667100000     1.5070600000     5.3617000000
   20      H       3.9245400000     0.8425500000     4.1312600000
   21      GH      0.2227000000     1.0448800000     0.5859500000
   22      GH      0.6262600000    -0.4135300000     0.9987100000
   23      GH      1.3300800000     1.3997400000    -0.4349100000
   24      GH      2.6307000000     1.7170000000     0.3285500000
   25      GH      3.0433600000     0.2935100000     0.8030000000
   26      GH      1.9442300000    -0.5929900000     0.1526200000
   27      GH      1.6284000000     0.1366300000    -1.0437600000
   28      GH      3.3723400000     2.1378200000    -0.3519500000
   29      GH      2.4823600000     2.4248800000     1.1465100000
   30      GH      4.0218200000     0.0099400000     0.4116100000
   31      GH      3.0735900000     0.1873800000     1.8892800000
   32      GH      1.0327000000     2.1994300000    -1.0806400000
   33      GH      2.3545000000    -2.0126700000    -0.1681200000
   34      GH      3.2574300000    -2.0019500000    -0.7421500000
   35      GH      1.5795100000    -2.4893200000    -0.7312300000
   36      GH      2.5168700000    -2.5512900000     0.7420600000
   37      GH     -0.7467300000     1.0681100000     0.1336500000
   38      GH      0.1555200000     1.7261700000     1.4082800000
   39      GH      0.8169300000    -0.4890500000     2.0488700000
   40      GH     -0.1252400000    -1.1535600000     0.8184300000
 ----------------------------------------------------------------

   13    -349.2963191867      2.61E-09 Convergence criterion met
 Total energy in the final basis set = -349.29631919

                    Orbital Energies (a.u.)
 --------------------------------------------------------------

 Alpha MOs
 -- Occupied --
-19.119 -10.225 -10.216 -10.166 -10.166 -10.163 -10.162 -10.154
 -1.049  -0.798  -0.775  -0.748  -0.684  -0.615  -0.575  -0.556
 -0.503  -0.482  -0.465  -0.440  -0.418  -0.405  -0.392  -0.377
 -0.360  -0.348  -0.344  -0.336  -0.316  -0.301  -0.262

          Ground-State Mulliken Net Atomic Charges

     Atom                 Charge (a.u.)
  ----------------------------------------
      1 C                    -0.407208
      2 C                    -0.365988
      3 C                     0.206359
      4 C                    -0.679996
      5 C                    -0.417178
      6 C                     0.261367
      7 O                    -0.034409
      8 H                     0.164541
      9 H                     0.127402
     10 H                     0.153172
     11 H                     0.139675
     12 H                     0.231891
     13 C                    -0.367301
     14 H                     0.154610
     15 H                     0.144154
     16 H                     0.138639
     17 H                     0.123434
     18 H                     0.157169
     19 H                     0.152680
     20 H                     0.163985
     21 GH                   -0.004650
     22 GH                    0.005138
     23 GH                   -0.018410
     24 GH                    0.026585
     25 GH                   -0.009082
     26 GH                   -0.028185
     27 GH                    0.000174
     28 GH                    0.002053
     29 GH                   -0.007424
     30 GH                    0.006199
     31 GH                   -0.020625
     32 GH                   -0.000300
     33 GH                   -0.002430
     34 GH                   -0.000398
     35 GH                   -0.000026
     36 GH                    0.001193
     37 GH                   -0.000207
     38 GH                    0.001573
     39 GH                    0.001800
     40 GH                    0.000027
  ----------------------------------------
  Sum of atomic charges =    -0.000000

                    Cartesian Multipole Moments
 -----------------------------------------------------------------
    Charge (ESU x 10^10)
                -0.0000
    Dipole Moment (Debye)
         X      -0.0075      Y       0.4037      Z       1.6143
       Tot       1.6640
    Quadrupole Moments (Debye-Ang)
        XX     -49.8507     XY       1.5448     YY     -46.0069
        XZ       9.0512     YZ       3.8843     ZZ     -41.9577

 Total job time:  221.46s(wall), 879.43s(cpu)
        *  Thank you very much for using Q-Chem.  Have a nice day.  *
