 Q-Chem 5.0, Q-Chem, Inc., Pleasanton, CA (2017)
 Q-Chem 5.0.1 for Intel X86 EM64T Linux

User input:
--------------------------------------------------------------
$molecule
0  1
C        +0.22122000        +2.27455000        +4.70206000
C        +0.66569000        +0.84384000        +5.12677000
C        +1.34517000        +2.65052000        +3.71212000
C        +2.64488000        +2.96065000        +4.48559000
C        +3.08352000        +1.52959000        +4.91416000
C        +1.96220000        +0.65403000        +4.29645000
O        +1.64625000        +1.39011000        +3.08817000
H        +3.38336000        +3.41982000        +3.82589000
H        +2.47888000        +3.63578000        +5.32810000
H        +4.04867000        +1.26308000        +4.47881000
H        +3.15488000        +1.40469000        +5.99697000
H        +1.07144000        +3.37731000        +2.94891000
C        +2.33997000        -0.77157000        +3.96731000
H        +3.21530000        -0.79597000        +3.31356000
H        +1.51590000        -1.28204000        +3.46307000
H        +2.57823000        -1.32125000        +4.88233000
H        -0.74456000        +2.25360000        +4.19410000
H        +0.15050000        +2.97392000        +5.53783000
H        +0.84516000        +0.74767000        +6.19987000
H        -0.07553000        +0.09461000        +4.84009000
@C        +0.20553000        +1.04146000        +0.58269000
@C        +0.65000000        -0.38925000        +1.00740000
@C        +1.32948000        +1.41743000        -0.40725000
@C        +2.62919000        +1.72756000        +0.36622000
@C        +3.06783000        +0.29650000        +0.79479000
@C        +1.94651000        -0.57906000        +0.17708000
@O        +1.63056000        +0.15702000        -1.03120000
@H        +3.36767000        +2.18673000        -0.29348000
@H        +2.46319000        +2.40269000        +1.20873000
@H        +4.03298000        +0.02999000        +0.35944000
@H        +3.13919000        +0.17160000        +1.87760000
@H        +1.05575000        +2.14422000        -1.17046000
@C        +2.32428000        -2.00466000        -0.15206000
@H        +3.19961000        -2.02906000        -0.80581000
@H        +1.50021000        -2.51513000        -0.65630000
@H        +2.56254000        -2.55434000        +0.76296000
@H        -0.76025000        +1.02051000        +0.07473000
@H        +0.13481000        +1.74083000        +1.41846000
@H        +0.82947000        -0.48542000        +2.08050000
@H        -0.09122000        -1.13848000        +0.72072000
$end

$rem
JOBTYPE                   SP
METHOD                    B3LYP
DFT_D                     d3_op
BASIS                     6-311++G(d,p)
SYMMETRY                  False
THRESH                    12
SCF_CONVERGENCE           8
MAX_SUB_FILE_NUM          128
MEM_STATIC                400
MEM_TOTAL                 4000
$end
--------------------------------------------------------------

             Standard Nuclear Orientation (Angstroms)
    I     Atom           X                Y                Z
 ----------------------------------------------------------------
    1      C       0.2212200000     2.2745500000     4.7020600000
    2      C       0.6656900000     0.8438400000     5.1267700000
    3      C       1.3451700000     2.6505200000     3.7121200000
    4      C       2.6448800000     2.9606500000     4.4855900000
    5      C       3.0835200000     1.5295900000     4.9141600000
    6      C       1.9622000000     0.6540300000     4.2964500000
    7      O       1.6462500000     1.3901100000     3.0881700000
    8      H       3.3833600000     3.4198200000     3.8258900000
    9      H       2.4788800000     3.6357800000     5.3281000000
   10      H       4.0486700000     1.2630800000     4.4788100000
   11      H       3.1548800000     1.4046900000     5.9969700000
   12      H       1.0714400000     3.3773100000     2.9489100000
   13      C       2.3399700000    -0.7715700000     3.9673100000
   14      H       3.2153000000    -0.7959700000     3.3135600000
   15      H       1.5159000000    -1.2820400000     3.4630700000
   16      H       2.5782300000    -1.3212500000     4.8823300000
   17      H      -0.7445600000     2.2536000000     4.1941000000
   18      H       0.1505000000     2.9739200000     5.5378300000
   19      H       0.8451600000     0.7476700000     6.1998700000
   20      H      -0.0755300000     0.0946100000     4.8400900000
   21      GH      0.2055300000     1.0414600000     0.5826900000
   22      GH      0.6500000000    -0.3892500000     1.0074000000
   23      GH      1.3294800000     1.4174300000    -0.4072500000
   24      GH      2.6291900000     1.7275600000     0.3662200000
   25      GH      3.0678300000     0.2965000000     0.7947900000
   26      GH      1.9465100000    -0.5790600000     0.1770800000
   27      GH      1.6305600000     0.1570200000    -1.0312000000
   28      GH      3.3676700000     2.1867300000    -0.2934800000
   29      GH      2.4631900000     2.4026900000     1.2087300000
   30      GH      4.0329800000     0.0299900000     0.3594400000
   31      GH      3.1391900000     0.1716000000     1.8776000000
   32      GH      1.0557500000     2.1442200000    -1.1704600000
   33      GH      2.3242800000    -2.0046600000    -0.1520600000
   34      GH      3.1996100000    -2.0290600000    -0.8058100000
   35      GH      1.5002100000    -2.5151300000    -0.6563000000
   36      GH      2.5625400000    -2.5543400000     0.7629600000
   37      GH     -0.7602500000     1.0205100000     0.0747300000
   38      GH      0.1348100000     1.7408300000     1.4184600000
   39      GH      0.8294700000    -0.4854200000     2.0805000000
   40      GH     -0.0912200000    -1.1384800000     0.7207200000
 ----------------------------------------------------------------

   13    -349.3038927682      2.93E-09 Convergence criterion met
 Total energy in the final basis set = -349.30389277

                    Orbital Energies (a.u.)
 --------------------------------------------------------------

 Alpha MOs
 -- Occupied --
-19.115 -10.224 -10.217 -10.168 -10.168 -10.168 -10.167 -10.161
 -1.045  -0.799  -0.773  -0.750  -0.679  -0.613  -0.573  -0.554
 -0.498  -0.481  -0.467  -0.434  -0.414  -0.405  -0.391  -0.371
 -0.362  -0.346  -0.344  -0.339  -0.319  -0.302  -0.262

          Ground-State Mulliken Net Atomic Charges

     Atom                 Charge (a.u.)
  ----------------------------------------
      1 C                    -0.603224
      2 C                    -0.319182
      3 C                     0.381360
      4 C                    -0.610058
      5 C                    -0.311451
      6 C                    -0.036765
      7 O                     0.144337
      8 H                     0.150901
      9 H                     0.142321
     10 H                     0.163417
     11 H                     0.145498
     12 H                     0.225184
     13 C                    -0.436446
     14 H                     0.155783
     15 H                     0.156391
     16 H                     0.175612
     17 H                     0.150785
     18 H                     0.141652
     19 H                     0.145697
     20 H                     0.163825
     21 GH                   -0.040695
     22 GH                   -0.019846
     23 GH                    0.012532
     24 GH                   -0.038651
     25 GH                   -0.021358
     26 GH                    0.096368
     27 GH                   -0.006088
     28 GH                   -0.001299
     29 GH                   -0.058802
     30 GH                   -0.003993
     31 GH                   -0.013627
     32 GH                    0.000635
     33 GH                    0.048956
     34 GH                    0.000120
     35 GH                    0.000112
     36 GH                   -0.000711
     37 GH                   -0.001250
     38 GH                   -0.059968
     39 GH                   -0.014071
     40 GH                   -0.004000
  ----------------------------------------
  Sum of atomic charges =    -0.000000

                    Cartesian Multipole Moments
 -----------------------------------------------------------------
    Charge (ESU x 10^10)
                -0.0000
    Dipole Moment (Debye)
         X       0.0420      Y       0.3641      Z       1.5926
       Tot       1.6342
    Quadrupole Moments (Debye-Ang)
        XX     -49.7799     XY       0.0943     YY     -47.2250
        XZ       2.9498     YZ       2.9057     ZZ     -39.4392

 Total job time:  248.91s(wall), 988.09s(cpu)
        *  Thank you very much for using Q-Chem.  Have a nice day.  *
