 Q-Chem 5.0, Q-Chem, Inc., Pleasanton, CA (2017)
 Q-Chem 5.0.1 for Intel X86 EM64T Linux

User input:
--------------------------------------------------------------
$molecule
0  1
--
0  1
C        +0.20553000        +1.04146000        +0.58269000
C        +0.65000000        -0.38925000        +1.00740000
C        +1.32948000        +1.41743000        -0.40725000
C        +2.62919000        +1.72756000        +0.36622000
C        +3.06783000        +0.29650000        +0.79479000
C        +1.94651000        -0.57906000        +0.17708000
O        +1.63056000        +0.15702000        -1.03120000
H        +3.36767000        +2.18673000        -0.29348000
H        +2.46319000        +2.40269000        +1.20873000
H        +4.03298000        +0.02999000        +0.35944000
H        +3.13919000        +0.17160000        +1.87760000
H        +1.05575000        +2.14422000        -1.17046000
C        +2.32428000        -2.00466000        -0.15206000
H        +3.19961000        -2.02906000        -0.80581000
H        +1.50021000        -2.51513000        -0.65630000
H        +2.56254000        -2.55434000        +0.76296000
H        -0.76025000        +1.02051000        +0.07473000
H        +0.13481000        +1.74083000        +1.41846000
H        +0.82947000        -0.48542000        +2.08050000
H        -0.09122000        -1.13848000        +0.72072000
--
0  1
C        +0.22122000        +2.27455000        +4.70206000
C        +0.66569000        +0.84384000        +5.12677000
C        +1.34517000        +2.65052000        +3.71212000
C        +2.64488000        +2.96065000        +4.48559000
C        +3.08352000        +1.52959000        +4.91416000
C        +1.96220000        +0.65403000        +4.29645000
O        +1.64625000        +1.39011000        +3.08817000
H        +3.38336000        +3.41982000        +3.82589000
H        +2.47888000        +3.63578000        +5.32810000
H        +4.04867000        +1.26308000        +4.47881000
H        +3.15488000        +1.40469000        +5.99697000
H        +1.07144000        +3.37731000        +2.94891000
C        +2.33997000        -0.77157000        +3.96731000
H        +3.21530000        -0.79597000        +3.31356000
H        +1.51590000        -1.28204000        +3.46307000
H        +2.57823000        -1.32125000        +4.88233000
H        -0.74456000        +2.25360000        +4.19410000
H        +0.15050000        +2.97392000        +5.53783000
H        +0.84516000        +0.74767000        +6.19987000
H        -0.07553000        +0.09461000        +4.84009000
$end

$rem
JOBTYPE                   SP
METHOD                    B3LYP
DFT_D                     d3_op
BASIS                     6-311++G(d,p)
SYMMETRY                  False
THRESH                    12
SCF_CONVERGENCE           8
MAX_SUB_FILE_NUM          128
MEM_STATIC                400
MEM_TOTAL                 4000
$end
--------------------------------------------------------------

             Standard Nuclear Orientation (Angstroms)
    I     Atom           X                Y                Z
 ----------------------------------------------------------------
    1      C       1.4237227321     1.2482255168    -1.2627786306
    2      C       1.5641792660    -0.3026243243    -1.2628200059
    3      C       2.2305340664     1.6170871637     0.0011813385
    4      C       1.4257455965     1.2459573828     1.2654047152
    5      C       1.5626146062    -0.3049263181     1.2593517242
    6      C       2.4342130716    -0.5431556209    -0.0012403646
    7      O       3.2803400894     0.6339795877    -0.0005348055
    8      H       1.8865276732     1.6802812885     2.1544696803
    9      H       0.3907071133     1.5918960091     1.2184854009
   10      H       2.0863622108    -0.6607662311     2.1488111826
   11      H       0.6032616215    -0.8240212501     1.2014547647
   12      H       2.6671678377     2.6145798987     0.0018986251
   13      C       3.2722692000    -1.8005489006     0.0004144218
   14      H       3.9081727965    -1.8373242281     0.8883678117
   15      H       3.9107032026    -1.8393634184    -0.8854887450
   16      H       2.6286362198    -2.6848077667     0.0010266277
   17      H       1.8826696992     1.6863861807    -2.1507967534
   18      H       0.3881219318     1.5910115477    -1.2112041454
   19      H       0.6056554568    -0.8234677178    -1.2084506551
   20      H       2.0898555360    -0.6552396632    -2.1529126896
   21      C      -2.8591880178     0.8652871056    -1.2627290129
   22      C      -2.7187314839    -0.6855627355    -1.2627703882
   23      C      -2.0523766835     1.2341487525     0.0012309561
   24      C      -2.8571651534     0.8630189716     1.2654543329
   25      C      -2.7202961437    -0.6878647293     1.2594013419
   26      C      -1.8486976783    -0.9260940321    -0.0011907470
   27      O      -1.0025706605     0.2510411765    -0.0004851879
   28      H      -2.3963830768     1.2973428773     2.1545192980
   29      H      -3.8922036366     1.2089575979     1.2185350186
   30      H      -2.1965485392    -1.0437046423     2.1488608003
   31      H      -3.6796491284    -1.2069596613     1.2015043823
   32      H      -1.6157429123     2.2316414875     0.0019482428
   33      C      -1.0106415499    -2.1834873118     0.0004640395
   34      H      -0.3747379534    -2.2202626393     0.8884174294
   35      H      -0.3722075474    -2.2223018296    -0.8854391273
   36      H      -1.6542745301    -3.0677461779     0.0010762454
   37      H      -2.4002410507     1.3034477695    -2.1507471358
   38      H      -3.8947888182     1.2080731365    -1.2111545277
   39      H      -3.6772552931    -1.2064061290    -1.2084010374
   40      H      -2.1930552140    -1.0381780744    -2.1528630719
 ----------------------------------------------------------------

   13    -698.5971927266      6.56E-09 Convergence criterion met
 Total energy in the final basis set = -698.59719273

                    Orbital Energies (a.u.)
 --------------------------------------------------------------

 Alpha MOs
 -- Occupied --
-19.124 -19.101 -10.234 -10.227 -10.210 -10.202 -10.177 -10.177
-10.176 -10.176 -10.170 -10.152 -10.149 -10.149 -10.148 -10.148
 -1.058  -1.030  -0.810  -0.787  -0.780  -0.759  -0.759  -0.733
 -0.690  -0.666  -0.622  -0.597  -0.585  -0.567  -0.556  -0.538
 -0.510  -0.496  -0.485  -0.478  -0.464  -0.457  -0.439  -0.427
 -0.421  -0.414  -0.401  -0.401  -0.389  -0.382  -0.377  -0.371
 -0.359  -0.358  -0.354  -0.349  -0.339  -0.333  -0.328  -0.326
 -0.316  -0.311  -0.301  -0.286  -0.274  -0.245

          Ground-State Mulliken Net Atomic Charges

     Atom                 Charge (a.u.)
  ----------------------------------------
      1 C                    -0.350353
      2 C                     0.005673
      3 C                    -0.141816
      4 C                    -0.352131
      5 C                     0.008388
      6 C                    -0.273831
      7 O                    -0.067593
      8 H                     0.177931
      9 H                     0.079086
     10 H                     0.202615
     11 H                     0.010503
     12 H                     0.225436
     13 C                    -0.546945
     14 H                     0.148931
     15 H                     0.148767
     16 H                     0.139250
     17 H                     0.178128
     18 H                     0.077912
     19 H                     0.011259
     20 H                     0.202611
     21 C                    -0.598420
     22 C                    -0.321421
     23 C                     0.266065
     24 C                    -0.601101
     25 C                    -0.317313
     26 C                    -0.029188
     27 O                     0.152948
     28 H                     0.155394
     29 H                     0.147893
     30 H                     0.166655
     31 H                     0.149869
     32 H                     0.228225
     33 C                    -0.444709
     34 H                     0.184809
     35 H                     0.184686
     36 H                     0.171795
     37 H                     0.155874
     38 H                     0.147545
     39 H                     0.149792
     40 H                     0.166781
  ----------------------------------------
  Sum of atomic charges =    -0.000000

                    Cartesian Multipole Moments
 -----------------------------------------------------------------
    Charge (ESU x 10^10)
                -0.0000
    Dipole Moment (Debye)
         X      -4.2757      Y      -0.6511      Z       0.0046
       Tot       4.3250
    Quadrupole Moments (Debye-Ang)
        XX    -107.5915     XY      -2.2818     YY     -96.9566
        XZ      -0.0025     YZ       0.0051     ZZ    -101.0455

 Total job time:  269.14s(wall), 1061.30s(cpu)
        *  Thank you very much for using Q-Chem.  Have a nice day.  *
