 Q-Chem 5.0, Q-Chem, Inc., Pleasanton, CA (2017)
 Q-Chem 5.0.1 for Intel X86 EM64T Linux

User input:
--------------------------------------------------------------
$molecule
0  1
--
0  1
C        +0.22270000        +1.04488000        +0.58595000
C        +0.62626000        -0.41353000        +0.99871000
C        +1.33008000        +1.39974000        -0.43491000
C        +2.63070000        +1.71700000        +0.32855000
C        +3.04336000        +0.29351000        +0.80300000
C        +1.94423000        -0.59299000        +0.15262000
O        +1.62840000        +0.13663000        -1.04376000
H        +3.37234000        +2.13782000        -0.35195000
H        +2.48236000        +2.42488000        +1.14651000
H        +4.02182000        +0.00994000        +0.41161000
H        +3.07359000        +0.18738000        +1.88928000
H        +1.03270000        +2.19943000        -1.08064000
C        +2.35450000        -2.01267000        -0.16812000
H        +3.25743000        -2.00195000        -0.74215000
H        +1.57951000        -2.48932000        -0.73123000
H        +2.51687000        -2.55129000        +0.74206000
H        -0.74673000        +1.06811000        +0.13365000
H        +0.15552000        +1.72617000        +1.40828000
H        +0.81693000        -0.48905000        +2.04887000
H        -0.12524000        -1.15356000        +0.81843000
--
0  1
C        +3.33235000        +2.57761000        +3.12973000
C        +3.73591000        +1.11920000        +3.54249000
C        +4.43973000        +2.93247000        +2.10887000
C        +5.74035000        +3.24973000        +2.87233000
C        +6.15301000        +1.82624000        +3.34678000
C        +5.05388000        +0.93974000        +2.69640000
O        +4.73805000        +1.66936000        +1.50002000
H        +6.48199000        +3.67055000        +2.19183000
H        +5.59201000        +3.95761000        +3.69029000
H        +7.13147000        +1.54267000        +2.95539000
H        +6.18324000        +1.72011000        +4.43306000
H        +4.14235000        +3.73216000        +1.46314000
C        +5.46415000        -0.47994000        +2.37566000
H        +6.36708000        -0.46922000        +1.80163000
H        +4.68916000        -0.95659000        +1.81255000
H        +5.62652000        -1.01856000        +3.28584000
H        +2.36292000        +2.60084000        +2.67743000
H        +3.26517000        +3.25890000        +3.95206000
H        +3.92658000        +1.04368000        +4.59265000
H        +2.98441000        +0.37917000        +3.36221000
$end

$rem
JOBTYPE                   SP
METHOD                    B3LYP
DFT_D                     d3_op
BASIS                     6-311++G(d,p)
SYMMETRY                  False
THRESH                    12
SCF_CONVERGENCE           8
MAX_SUB_FILE_NUM          128
MEM_STATIC                400
MEM_TOTAL                 4000
$end
--------------------------------------------------------------

             Standard Nuclear Orientation (Angstroms)
    I     Atom           X                Y                Z
 ----------------------------------------------------------------
    1      C       2.6788392933    -1.5400415248     0.7711679715
    2      C       2.7394656111    -0.0531792711     1.2669061154
    3      C       2.2862361214    -1.3595463097    -0.7146501366
    4      C       0.7858857354    -1.0170918631    -0.7971797366
    5      C       0.7919489830     0.4444668078    -0.2628349539
    6      C       2.3101274225     0.7018251207    -0.0486759568
    7      O       2.9076203174    -0.1165711724    -1.0668354658
    8      H       0.4479137547    -1.0581193683    -1.8336599805
    9      H       0.1616906121    -1.6945871397    -0.2110585803
   10      H       0.4031814738     1.1430547301    -1.0056786704
   11      H       0.2149560390     0.5759163652     0.6547607221
   12      H       2.5393943018    -2.2193946141    -1.2990113456
   13      C       2.7536518260     2.1416997153    -0.1780366074
   14      H       2.4029492407     2.5408603574    -1.1067919157
   15      H       3.8222085045     2.1896489463    -0.1500171373
   16      H       2.3496296168     2.7134326180     0.6311547767
   17      H       3.6290428523    -2.0224361611     0.8676980662
   18      H       2.0033716150    -2.1560806139     1.3271671637
   19      H       2.0524496100     0.1252359628     2.0675754375
   20      H       3.6856735759     0.2469246882     1.6663127132
   21      C      -1.6131076000    -1.3903861197     0.9874922393
   22      C      -1.5524812822     0.0964761340     1.4832303832
   23      C      -2.0057107719    -1.2098909046    -0.4983258688
   24      C      -3.5060611579    -0.8674364580    -0.5808554687
   25      C      -3.4999979103     0.5941222129    -0.0465106860
   26      C      -1.9818194708     0.8514805258     0.1676483110
   27      O      -1.3843265759     0.0330842327    -0.8505111979
   28      H      -3.8440331385    -0.9084639631    -1.6173357127
   29      H      -4.1302562812    -1.5449317346     0.0052656876
   30      H      -3.8887654195     1.2927101353    -0.7893544025
   31      H      -4.0769908543     0.7255717703     0.8710849900
   32      H      -1.7525525915    -2.0697392089    -1.0826870778
   33      C      -1.5382950673     2.2913551205     0.0382876604
   34      H      -1.8889976525     2.6905157625    -0.8904676479
   35      H      -0.4697383887     2.3393043514     0.0663071305
   36      H      -1.9423172764     2.8630880231     0.8474790446
   37      H      -0.6629040410    -1.8727807560     1.0840223341
   38      H      -2.2885752783    -2.0064252088     1.5434914316
   39      H      -2.2394972833     0.2748913679     2.2838997054
   40      H      -0.6062733174     0.3965800933     1.8826369810
 ----------------------------------------------------------------

   13    -698.5326451139      7.60E-09 Convergence criterion met
 Total energy in the final basis set = -698.53264511

                    Orbital Energies (a.u.)
 --------------------------------------------------------------

 Alpha MOs
 -- Occupied --
-19.122 -19.104 -10.234 -10.224 -10.207 -10.200 -10.173 -10.173
-10.172 -10.171 -10.158 -10.154 -10.153 -10.145 -10.143 -10.139
 -1.062  -1.034  -0.809  -0.789  -0.786  -0.763  -0.760  -0.733
 -0.692  -0.673  -0.630  -0.604  -0.584  -0.573  -0.560  -0.546
 -0.514  -0.501  -0.492  -0.484  -0.459  -0.450  -0.443  -0.430
 -0.425  -0.417  -0.416  -0.399  -0.392  -0.385  -0.379  -0.374
 -0.364  -0.355  -0.354  -0.347  -0.340  -0.334  -0.326  -0.322
 -0.317  -0.304  -0.300  -0.284  -0.267  -0.237

          Ground-State Mulliken Net Atomic Charges

     Atom                 Charge (a.u.)
  ----------------------------------------
      1 C                    -0.518483
      2 C                    -0.119492
      3 C                    -0.063712
      4 C                    -0.065965
      5 C                    -0.146143
      6 C                    -0.325776
      7 O                    -0.020999
      8 H                     0.204508
      9 H                     0.048591
     10 H                     0.219400
     11 H                    -0.171594
     12 H                     0.231924
     13 C                    -0.569098
     14 H                     0.148319
     15 H                     0.164221
     16 H                     0.150979
     17 H                     0.173508
     18 H                     0.110610
     19 H                     0.108934
     20 H                     0.171502
     21 C                    -0.415807
     22 C                    -0.437967
     23 C                     0.195029
     24 C                    -0.672844
     25 C                    -0.462858
     26 C                     0.382909
     27 O                     0.131700
     28 H                     0.161395
     29 H                     0.131345
     30 H                     0.161444
     31 H                     0.133179
     32 H                     0.240515
     33 C                    -0.466892
     34 H                     0.161962
     35 H                     0.129695
     36 H                     0.148151
     37 H                     0.125945
     38 H                     0.188225
     39 H                     0.178899
     40 H                     0.254743
  ----------------------------------------
  Sum of atomic charges =     0.000000

                    Cartesian Multipole Moments
 -----------------------------------------------------------------
    Charge (ESU x 10^10)
                 0.0000
    Dipole Moment (Debye)
         X      -3.1719      Y      -0.5889      Z       2.2532
       Tot       3.9351
    Quadrupole Moments (Debye-Ang)
        XX    -105.1683     XY       0.2247     YY     -95.8990
        XZ       3.5224     YZ       1.4306     ZZ    -103.3776

 Total job time:  298.32s(wall), 1185.06s(cpu)
        *  Thank you very much for using Q-Chem.  Have a nice day.  *
