 Q-Chem 5.0, Q-Chem, Inc., Pleasanton, CA (2017)
 Q-Chem 5.0.1 for Intel X86 EM64T Linux

User input:
--------------------------------------------------------------
$molecule
0  1
C        +0.22270000        +1.04488000        +0.58595000
C        +0.62626000        -0.41353000        +0.99871000
C        +1.33008000        +1.39974000        -0.43491000
C        +2.63070000        +1.71700000        +0.32855000
C        +3.04336000        +0.29351000        +0.80300000
C        +1.94423000        -0.59299000        +0.15262000
O        +1.62840000        +0.13663000        -1.04376000
H        +3.37234000        +2.13782000        -0.35195000
H        +2.48236000        +2.42488000        +1.14651000
H        +4.02182000        +0.00994000        +0.41161000
H        +3.07359000        +0.18738000        +1.88928000
C        +0.90028000        +2.39077000        -1.49430000
C        +2.35450000        -2.01267000        -0.16812000
H        +3.26311000        -2.00678000        -0.77366000
H        +2.54990000        -2.57059000        +0.75079000
H        +1.57335000        -2.52896000        -0.72872000
H        +1.71845000        +2.58186000        -2.15686000
H        +0.59919000        +3.30478000        -1.02650000
H        +0.07925000        +1.98653000        -2.04874000
H        +0.81693000        -0.48905000        +2.04887000
H        -0.12524000        -1.15356000        +0.81843000
H        -0.74673000        +1.06811000        +0.13365000
H        +0.15552000        +1.72617000        +1.40828000
@C        +3.45016000        +2.76995000        +2.84375000
@C        +3.85372000        +1.31154000        +3.25651000
@C        +4.55754000        +3.12481000        +1.82289000
@C        +5.85816000        +3.44207000        +2.58635000
@C        +6.27082000        +2.01858000        +3.06080000
@C        +5.17169000        +1.13208000        +2.41042000
@O        +4.85586000        +1.86170000        +1.21404000
@H        +6.59980000        +3.86289000        +1.90585000
@H        +5.70982000        +4.14995000        +3.40431000
@H        +7.24928000        +1.73501000        +2.66941000
@H        +6.30105000        +1.91245000        +4.14708000
@C        +4.12774000        +4.11584000        +0.76350000
@C        +5.58196000        -0.28760000        +2.08968000
@H        +6.49057000        -0.28171000        +1.48414000
@H        +5.77736000        -0.84552000        +3.00859000
@H        +4.80081000        -0.80389000        +1.52908000
@H        +4.94591000        +4.30693000        +0.10094000
@H        +3.82665000        +5.02985000        +1.23130000
@H        +3.30671000        +3.71160000        +0.20906000
@H        +4.04439000        +1.23602000        +4.30667000
@H        +3.10222000        +0.57151000        +3.07623000
@H        +2.48073000        +2.79318000        +2.39145000
@H        +3.38298000        +3.45124000        +3.66608000
$end

$rem
JOBTYPE                   SP
METHOD                    B3LYP
DFT_D                     d3_op
BASIS                     6-311++G(d,p)
SYMMETRY                  False
THRESH                    12
SCF_CONVERGENCE           8
MAX_SUB_FILE_NUM          128
MEM_STATIC                400
MEM_TOTAL                 4000
$end
--------------------------------------------------------------

             Standard Nuclear Orientation (Angstroms)
    I     Atom           X                Y                Z
 ----------------------------------------------------------------
    1      C       0.2227000000     1.0448800000     0.5859500000
    2      C       0.6262600000    -0.4135300000     0.9987100000
    3      C       1.3300800000     1.3997400000    -0.4349100000
    4      C       2.6307000000     1.7170000000     0.3285500000
    5      C       3.0433600000     0.2935100000     0.8030000000
    6      C       1.9442300000    -0.5929900000     0.1526200000
    7      O       1.6284000000     0.1366300000    -1.0437600000
    8      H       3.3723400000     2.1378200000    -0.3519500000
    9      H       2.4823600000     2.4248800000     1.1465100000
   10      H       4.0218200000     0.0099400000     0.4116100000
   11      H       3.0735900000     0.1873800000     1.8892800000
   12      C       0.9002800000     2.3907700000    -1.4943000000
   13      C       2.3545000000    -2.0126700000    -0.1681200000
   14      H       3.2631100000    -2.0067800000    -0.7736600000
   15      H       2.5499000000    -2.5705900000     0.7507900000
   16      H       1.5733500000    -2.5289600000    -0.7287200000
   17      H       1.7184500000     2.5818600000    -2.1568600000
   18      H       0.5991900000     3.3047800000    -1.0265000000
   19      H       0.0792500000     1.9865300000    -2.0487400000
   20      H       0.8169300000    -0.4890500000     2.0488700000
   21      H      -0.1252400000    -1.1535600000     0.8184300000
   22      H      -0.7467300000     1.0681100000     0.1336500000
   23      H       0.1555200000     1.7261700000     1.4082800000
   24      GH      3.4501600000     2.7699500000     2.8437500000
   25      GH      3.8537200000     1.3115400000     3.2565100000
   26      GH      4.5575400000     3.1248100000     1.8228900000
   27      GH      5.8581600000     3.4420700000     2.5863500000
   28      GH      6.2708200000     2.0185800000     3.0608000000
   29      GH      5.1716900000     1.1320800000     2.4104200000
   30      GH      4.8558600000     1.8617000000     1.2140400000
   31      GH      6.5998000000     3.8628900000     1.9058500000
   32      GH      5.7098200000     4.1499500000     3.4043100000
   33      GH      7.2492800000     1.7350100000     2.6694100000
   34      GH      6.3010500000     1.9124500000     4.1470800000
   35      GH      4.1277400000     4.1158400000     0.7635000000
   36      GH      5.5819600000    -0.2876000000     2.0896800000
   37      GH      6.4905700000    -0.2817100000     1.4841400000
   38      GH      5.7773600000    -0.8455200000     3.0085900000
   39      GH      4.8008100000    -0.8038900000     1.5290800000
   40      GH      4.9459100000     4.3069300000     0.1009400000
   41      GH      3.8266500000     5.0298500000     1.2313000000
   42      GH      3.3067100000     3.7116000000     0.2090600000
   43      GH      4.0443900000     1.2360200000     4.3066700000
   44      GH      3.1022200000     0.5715100000     3.0762300000
   45      GH      2.4807300000     2.7931800000     2.3914500000
   46      GH      3.3829800000     3.4512400000     3.6660800000
 ----------------------------------------------------------------

   12    -388.6335377451      7.01E-09 Convergence criterion met
 Total energy in the final basis set = -388.63353775

                    Orbital Energies (a.u.)
 --------------------------------------------------------------

 Alpha MOs
 -- Occupied --
-19.115 -10.224 -10.221 -10.166 -10.166 -10.162 -10.161 -10.160
-10.151  -1.049  -0.799  -0.789  -0.748  -0.717  -0.652  -0.616
 -0.562  -0.555  -0.486  -0.474  -0.464  -0.444  -0.420  -0.410
 -0.406  -0.402  -0.384  -0.360  -0.346  -0.343  -0.340  -0.333
 -0.316  -0.299  -0.261

          Ground-State Mulliken Net Atomic Charges

     Atom                 Charge (a.u.)
  ----------------------------------------
      1 C                    -0.393846
      2 C                    -0.391455
      3 C                    -0.247533
      4 C                    -0.353235
      5 C                    -0.267778
      6 C                    -0.256938
      7 O                     0.088784
      8 H                     0.213120
      9 H                     0.092016
     10 H                     0.200586
     11 H                     0.098491
     12 C                    -0.193468
     13 C                    -0.273576
     14 H                     0.150507
     15 H                     0.159497
     16 H                     0.168957
     17 H                     0.142010
     18 H                     0.155488
     19 H                     0.167096
     20 H                     0.132615
     21 H                     0.177143
     22 H                     0.162098
     23 H                     0.140788
     24 GH                    0.053499
     25 GH                    0.042693
     26 GH                   -0.039734
     27 GH                   -0.019875
     28 GH                   -0.004776
     29 GH                   -0.022111
     30 GH                    0.048903
     31 GH                   -0.000594
     32 GH                   -0.000000
     33 GH                    0.000042
     34 GH                   -0.000028
     35 GH                   -0.004643
     36 GH                   -0.032019
     37 GH                    0.001033
     38 GH                   -0.001339
     39 GH                    0.043458
     40 GH                   -0.000319
     41 GH                   -0.000906
     42 GH                    0.056374
     43 GH                    0.001443
     44 GH                    0.001537
     45 GH                    0.004938
     46 GH                    0.001056
  ----------------------------------------
  Sum of atomic charges =     0.000000

                    Cartesian Multipole Moments
 -----------------------------------------------------------------
    Charge (ESU x 10^10)
                 0.0000
    Dipole Moment (Debye)
         X      -0.0292      Y       0.4296      Z       1.5030
       Tot       1.5635
    Quadrupole Moments (Debye-Ang)
        XX     -56.4556     XY       0.1556     YY     -54.7975
        XZ       2.4099     YZ      -0.4803     ZZ     -59.0902

 Total job time:  364.11s(wall), 1442.12s(cpu)
        *  Thank you very much for using Q-Chem.  Have a nice day.  *
