 Q-Chem 5.0, Q-Chem, Inc., Pleasanton, CA (2017)
 Q-Chem 5.0.1 for Intel X86 EM64T Linux

User input:
--------------------------------------------------------------
$molecule
0  1
--
0  1
C        +0.22270000        +1.04488000        +0.58595000
C        +0.62626000        -0.41353000        +0.99871000
C        +1.33008000        +1.39974000        -0.43491000
C        +2.63070000        +1.71700000        +0.32855000
C        +3.04336000        +0.29351000        +0.80300000
C        +1.94423000        -0.59299000        +0.15262000
O        +1.62840000        +0.13663000        -1.04376000
H        +3.37234000        +2.13782000        -0.35195000
H        +2.48236000        +2.42488000        +1.14651000
H        +4.02182000        +0.00994000        +0.41161000
H        +3.07359000        +0.18738000        +1.88928000
C        +0.90028000        +2.39077000        -1.49430000
C        +2.35450000        -2.01267000        -0.16812000
H        +3.26311000        -2.00678000        -0.77366000
H        +2.54990000        -2.57059000        +0.75079000
H        +1.57335000        -2.52896000        -0.72872000
H        +1.71845000        +2.58186000        -2.15686000
H        +0.59919000        +3.30478000        -1.02650000
H        +0.07925000        +1.98653000        -2.04874000
H        +0.81693000        -0.48905000        +2.04887000
H        -0.12524000        -1.15356000        +0.81843000
H        -0.74673000        +1.06811000        +0.13365000
H        +0.15552000        +1.72617000        +1.40828000
--
0  1
C        +4.42590000        +3.29148000        +3.52634000
C        +4.82946000        +1.83307000        +3.93910000
C        +5.53328000        +3.64634000        +2.50548000
C        +6.83390000        +3.96360000        +3.26894000
C        +7.24656000        +2.54011000        +3.74339000
C        +6.14743000        +1.65361000        +3.09301000
O        +5.83160000        +2.38323000        +1.89663000
H        +7.57554000        +4.38442000        +2.58844000
H        +6.68556000        +4.67148000        +4.08690000
H        +8.22502000        +2.25654000        +3.35200000
H        +7.27679000        +2.43398000        +4.82967000
C        +5.10348000        +4.63737000        +1.44609000
C        +6.55770000        +0.23393000        +2.77227000
H        +7.46631000        +0.23982000        +2.16673000
H        +6.75310000        -0.32399000        +3.69118000
H        +5.77655000        -0.28236000        +2.21167000
H        +5.92165000        +4.82846000        +0.78353000
H        +4.80239000        +5.55138000        +1.91389000
H        +4.28245000        +4.23313000        +0.89165000
H        +5.02013000        +1.75755000        +4.98926000
H        +4.07796000        +1.09304000        +3.75882000
H        +3.45647000        +3.31471000        +3.07404000
H        +4.35872000        +3.97277000        +4.34867000
$end

$rem
JOBTYPE                   SP
METHOD                    B3LYP
DFT_D                     d3_op
BASIS                     6-311++G(d,p)
SYMMETRY                  False
THRESH                    12
SCF_CONVERGENCE           8
MAX_SUB_FILE_NUM          128
MEM_STATIC                400
MEM_TOTAL                 4000
$end
--------------------------------------------------------------

             Standard Nuclear Orientation (Angstroms)
    I     Atom           X                Y                Z
 ----------------------------------------------------------------
    1      C       3.3063411720    -0.8062156856     1.3164108631
    2      C       3.3720357553     0.7607162284     1.3409020447
    3      C       2.8509116925    -1.0783961880    -0.1371616280
    4      C       1.3449812314    -0.7726272962    -0.2547043643
    5      C       1.3580164302     0.7818750530    -0.1835187757
    6      C       2.8810044798     1.0877470903    -0.1209660076
    7      O       3.4443781241     0.0002805392    -0.8715961926
    8      H       0.9649626208    -1.1215943734    -1.2159574250
    9      H       0.7525284192    -1.2416988428     0.5334129881
   10      H       0.9317380332     1.2266578086    -1.0843167981
   11      H       0.8180593215     1.1837882759     0.6761868427
   12      C       3.3253846334    -2.4016967866    -0.6965600790
   13      C       3.3039372425     2.4215105087    -0.6944552794
   14      H       2.9249666021     2.5223447685    -1.7135230993
   15      H       2.9059826074     3.2404169257    -0.0904057260
   16      H       4.3914401677     2.5080541210    -0.7239618469
   17      H       2.9701433366    -2.5127920541    -1.6997374079
   18      H       2.9464960812    -3.2002624460    -0.0935321685
   19      H       4.3950565420    -2.4278757954    -0.6920192085
   20      H       2.7168451890     1.1726657255     2.0797641960
   21      H       4.3307753975     1.1643444628     1.5915014784
   22      H       4.2646440082    -1.2398996014     1.5125826835
   23      H       2.6607851957    -1.2255562067     2.0595843652
   24      C      -2.2932338090    -0.8064532463     1.3853682924
   25      C      -2.2275392257     0.7604786677     1.4098594740
   26      C      -2.7486632886    -1.0786337487    -0.0682041987
   27      C      -4.2545937497    -0.7728648570    -0.1857469350
   28      C      -4.2415585509     0.7816374923    -0.1145613464
   29      C      -2.7185705013     1.0875095296    -0.0520085783
   30      O      -2.1551968570     0.0000429785    -0.8026387634
   31      H      -4.6346123602    -1.1218319342    -1.1469999957
   32      H      -4.8470465619    -1.2419364035     0.6023704173
   33      H      -4.6678369479     1.2264202479    -1.0153593688
   34      H      -4.7815156596     1.1835507152     0.7451442719
   35      C      -2.2741903477    -2.4019343473    -0.6276026498
   36      C      -2.2956377385     2.4212729480    -0.6254978502
   37      H      -2.6746083790     2.5221072078    -1.6445656701
   38      H      -2.6935923737     3.2401793650    -0.0214482967
   39      H      -1.2081348134     2.5078165603    -0.6550044176
   40      H      -2.6294316444    -2.5130296148    -1.6307799787
   41      H      -2.6530788999    -3.2005000067    -0.0245747392
   42      H      -1.2045184391    -2.4281133562    -0.6230617792
   43      H      -2.8827297920     1.1724281648     2.1487216252
   44      H      -1.2687995836     1.1641069021     1.6604589077
   45      H      -1.3349309729    -1.2401371622     1.5815401128
   46      H      -2.9387897853    -1.2257937674     2.1285417945
 ----------------------------------------------------------------

   13    -777.2698144949      4.82E-09 Convergence criterion met
 Total energy in the final basis set = -777.26981449

                    Orbital Energies (a.u.)
 --------------------------------------------------------------

 Alpha MOs
 -- Occupied --
-19.117 -19.110 -10.227 -10.223 -10.220 -10.216 -10.168 -10.167
-10.165 -10.164 -10.162 -10.160 -10.159 -10.159 -10.158 -10.157
-10.153 -10.148  -1.051  -1.045  -0.802  -0.795  -0.791  -0.785
 -0.751  -0.744  -0.720  -0.714  -0.654  -0.648  -0.619  -0.612
 -0.565  -0.559  -0.558  -0.550  -0.489  -0.482  -0.476  -0.470
 -0.467  -0.459  -0.447  -0.440  -0.423  -0.416  -0.413  -0.410
 -0.405  -0.405  -0.403  -0.396  -0.387  -0.379  -0.362  -0.356
 -0.349  -0.346  -0.344  -0.341  -0.340  -0.336  -0.335  -0.329
 -0.318  -0.312  -0.302  -0.294  -0.264  -0.256

          Ground-State Mulliken Net Atomic Charges

     Atom                 Charge (a.u.)
  ----------------------------------------
      1 C                    -0.424271
      2 C                    -0.469694
      3 C                    -0.007913
      4 C                    -0.264987
      5 C                    -0.201855
      6 C                    -0.006164
      7 O                     0.032504
      8 H                     0.187149
      9 H                     0.010736
     10 H                     0.163391
     11 H                     0.024881
     12 C                    -0.316340
     13 C                    -0.323817
     14 H                     0.153879
     15 H                     0.149137
     16 H                     0.155273
     17 H                     0.143401
     18 H                     0.145634
     19 H                     0.153732
     20 H                     0.132477
     21 H                     0.173943
     22 H                     0.162606
     23 H                     0.142964
     24 C                    -0.292103
     25 C                    -0.324639
     26 C                     0.100773
     27 C                    -0.610731
     28 C                    -0.522322
     29 C                     0.104518
     30 O                     0.031962
     31 H                     0.156649
     32 H                     0.138476
     33 H                     0.159336
     34 H                     0.137336
     35 C                    -0.214609
     36 C                    -0.306701
     37 H                     0.157028
     38 H                     0.147067
     39 H                     0.153046
     40 H                     0.152751
     41 H                     0.143940
     42 H                     0.145506
     43 H                     0.160291
     44 H                     0.157771
     45 H                     0.131588
     46 H                     0.176400
  ----------------------------------------
  Sum of atomic charges =    -0.000000

                    Cartesian Multipole Moments
 -----------------------------------------------------------------
    Charge (ESU x 10^10)
                -0.0000
    Dipole Moment (Debye)
         X      -2.0855      Y       0.0183      Z       2.3262
       Tot       3.1243
    Quadrupole Moments (Debye-Ang)
        XX    -116.0864     XY       0.2006     YY    -109.7636
        XZ       2.6109     YZ      -0.2220     ZZ    -116.2713

 Total job time:  311.63s(wall), 1233.09s(cpu)
        *  Thank you very much for using Q-Chem.  Have a nice day.  *
