 Q-Chem 5.0, Q-Chem, Inc., Pleasanton, CA (2017)
 Q-Chem 5.0.1 for Intel X86 EM64T Linux

User input:
--------------------------------------------------------------
$molecule
0  1
--
0  1
C        +0.22270000        +1.04488000        +0.58595000
C        +0.62626000        -0.41353000        +0.99871000
C        +1.33008000        +1.39974000        -0.43491000
C        +2.63070000        +1.71700000        +0.32855000
C        +3.04336000        +0.29351000        +0.80300000
C        +1.94423000        -0.59299000        +0.15262000
O        +1.62840000        +0.13663000        -1.04376000
H        +3.37234000        +2.13782000        -0.35195000
H        +2.48236000        +2.42488000        +1.14651000
H        +4.02182000        +0.00994000        +0.41161000
H        +3.07359000        +0.18738000        +1.88928000
C        +0.90028000        +2.39077000        -1.49430000
C        +2.35450000        -2.01267000        -0.16812000
H        +3.26311000        -2.00678000        -0.77366000
H        +2.54990000        -2.57059000        +0.75079000
H        +1.57335000        -2.52896000        -0.72872000
H        +1.71845000        +2.58186000        -2.15686000
H        +0.59919000        +3.30478000        -1.02650000
H        +0.07925000        +1.98653000        -2.04874000
H        +0.81693000        -0.48905000        +2.04887000
H        -0.12524000        -1.15356000        +0.81843000
H        -0.74673000        +1.06811000        +0.13365000
H        +0.15552000        +1.72617000        +1.40828000
--
0  1
C        +3.45016000        +2.76995000        +2.84375000
C        +3.85372000        +1.31154000        +3.25651000
C        +4.55754000        +3.12481000        +1.82289000
C        +5.85816000        +3.44207000        +2.58635000
C        +6.27082000        +2.01858000        +3.06080000
C        +5.17169000        +1.13208000        +2.41042000
O        +4.85586000        +1.86170000        +1.21404000
H        +6.59980000        +3.86289000        +1.90585000
H        +5.70982000        +4.14995000        +3.40431000
H        +7.24928000        +1.73501000        +2.66941000
H        +6.30105000        +1.91245000        +4.14708000
C        +4.12774000        +4.11584000        +0.76350000
C        +5.58196000        -0.28760000        +2.08968000
H        +6.49057000        -0.28171000        +1.48414000
H        +5.77736000        -0.84552000        +3.00859000
H        +4.80081000        -0.80389000        +1.52908000
H        +4.94591000        +4.30693000        +0.10094000
H        +3.82665000        +5.02985000        +1.23130000
H        +3.30671000        +3.71160000        +0.20906000
H        +4.04439000        +1.23602000        +4.30667000
H        +3.10222000        +0.57151000        +3.07623000
H        +2.48073000        +2.79318000        +2.39145000
H        +3.38298000        +3.45124000        +3.66608000
$end

$rem
JOBTYPE                   SP
METHOD                    B3LYP
DFT_D                     d3_op
BASIS                     6-311++G(d,p)
SYMMETRY                  False
THRESH                    12
SCF_CONVERGENCE           8
MAX_SUB_FILE_NUM          128
MEM_STATIC                400
MEM_TOTAL                 4000
$end
--------------------------------------------------------------

             Standard Nuclear Orientation (Angstroms)
    I     Atom           X                Y                Z
 ----------------------------------------------------------------
    1      C       2.6675965882    -0.8061291795     1.3017707363
    2      C       2.7334319549     0.7608055230     1.3256990050
    3      C       2.1998291330    -1.0783320590    -0.1478741940
    4      C       0.6929404913    -0.7726260694    -0.2526020939
    5      C       0.7065161332     0.7818769889    -0.1815331009
    6      C       2.2299684912     1.0878125072    -0.1319395214
    7      O       2.7869812565     0.0003676091    -0.8873330683
    8      H       0.3047726132    -1.1216112232    -1.2105867873
    9      H       0.1072332773    -1.2417203883     0.5405277763
   10      H       0.2725714209     1.2266398866    -1.0786730009
   11      H       0.1738755002     1.1837697911     0.6827341030
   12      C       2.6695810634    -2.4016142489    -0.7112861596
   13      C       2.6479516924     2.4215921554    -0.7090086823
   14      H       2.2603211935     2.5224082450    -1.7248158629
   15      H       2.2551161377     3.2404834517    -0.1015971691
   16      H       3.7351606459     2.5081809214    -0.7477659222
   17      H       2.3058230495    -2.5127266620    -1.7114048673
   18      H       2.2958695027    -3.2001942371    -0.1050551969
   19      H       3.7392539824    -2.4277487648    -0.7158452755
   20      H       2.0845335814     1.1727295216     2.0701074045
   21      H       3.6942520009     1.1644742189     1.5681324026
   22      H       3.6275516545    -1.2397727800     1.4897838906
   23      H       2.0284037180    -1.2254947875     2.0504100399
   24      C      -1.6314743151    -0.8064912301     1.3912952242
   25      C      -1.5656389484     0.7604434724     1.4152234929
   26      C      -2.0992417702    -1.0786941097    -0.0583497061
   27      C      -3.6061304119    -0.7729881201    -0.1630776060
   28      C      -3.5925547700     0.7815149383    -0.0920086130
   29      C      -2.0691024121     1.0874504565    -0.0424150335
   30      O      -1.5120896468     0.0000055585    -0.7978085804
   31      H      -3.9942982901    -1.1219732738    -1.1210622994
   32      H      -4.1918376260    -1.2420824390     0.6300522642
   33      H      -4.0264994824     1.2262778359    -0.9891485130
   34      H      -4.1251954031     1.1834077405     0.7722585909
   35      C      -1.6294898399    -2.4019762995    -0.6217616717
   36      C      -1.6511192109     2.4212301047    -0.6194841944
   37      H      -2.0387497098     2.5220461944    -1.6352913750
   38      H      -2.0439547656     3.2401214010    -0.0120726812
   39      H      -0.5639102574     2.5078188708    -0.6582414343
   40      H      -1.9932478538    -2.5130887126    -1.6218803794
   41      H      -2.0032014005    -3.2005562877    -0.0155307090
   42      H      -0.5598169209    -2.4281108154    -0.6263207876
   43      H      -2.2145373218     1.1723674710     2.1596318924
   44      H      -0.6048189023     1.1641121683     1.6576568905
   45      H      -0.6715192488    -1.2401348306     1.5793083785
   46      H      -2.2706671853    -1.2258568382     2.1399345278
 ----------------------------------------------------------------

   13    -777.1648432377      6.77E-09 Convergence criterion met
 Total energy in the final basis set = -777.16484324

                    Orbital Energies (a.u.)
 --------------------------------------------------------------

 Alpha MOs
 -- Occupied --
-19.119 -19.101 -10.233 -10.229 -10.209 -10.205 -10.173 -10.172
-10.170 -10.169 -10.161 -10.154 -10.153 -10.152 -10.151 -10.143
-10.138 -10.136  -1.062  -1.035  -0.811  -0.802  -0.792  -0.777
 -0.764  -0.737  -0.721  -0.709  -0.661  -0.651  -0.633  -0.602
 -0.575  -0.572  -0.554  -0.544  -0.511  -0.494  -0.479  -0.466
 -0.463  -0.458  -0.446  -0.439  -0.429  -0.426  -0.418  -0.416
 -0.410  -0.400  -0.397  -0.389  -0.378  -0.369  -0.368  -0.358
 -0.354  -0.349  -0.349  -0.343  -0.336  -0.328  -0.324  -0.318
 -0.309  -0.303  -0.285  -0.281  -0.268  -0.239

          Ground-State Mulliken Net Atomic Charges

     Atom                 Charge (a.u.)
  ----------------------------------------
      1 C                    -0.402850
      2 C                    -0.375120
      3 C                    -0.297389
      4 C                    -0.249222
      5 C                    -0.257638
      6 C                    -0.359749
      7 O                     0.083481
      8 H                     0.228275
      9 H                    -0.035421
     10 H                     0.210073
     11 H                     0.028143
     12 C                    -0.215989
     13 C                    -0.286135
     14 H                     0.150984
     15 H                     0.153390
     16 H                     0.166463
     17 H                     0.142222
     18 H                     0.149419
     19 H                     0.164752
     20 H                     0.117431
     21 H                     0.172575
     22 H                     0.157215
     23 H                     0.128419
     24 C                    -0.395554
     25 C                    -0.363326
     26 C                     0.159930
     27 C                    -0.394238
     28 C                    -0.427441
     29 C                     0.212889
     30 O                     0.187886
     31 H                     0.158293
     32 H                     0.139192
     33 H                     0.163223
     34 H                     0.134534
     35 C                    -0.415825
     36 C                    -0.419653
     37 H                     0.157434
     38 H                     0.152933
     39 H                     0.158946
     40 H                     0.156256
     41 H                     0.150602
     42 H                     0.153813
     43 H                     0.192871
     44 H                     0.178022
     45 H                     0.190373
     46 H                     0.195509
  ----------------------------------------
  Sum of atomic charges =    -0.000000

                    Cartesian Multipole Moments
 -----------------------------------------------------------------
    Charge (ESU x 10^10)
                -0.0000
    Dipole Moment (Debye)
         X      -2.8114      Y       0.0427      Z       2.3271
       Tot       3.6498
    Quadrupole Moments (Debye-Ang)
        XX    -117.5961     XY       0.1441     YY    -110.5956
        XZ       2.7154     YZ      -0.2259     ZZ    -116.3412

 Total job time:  391.91s(wall), 1552.82s(cpu)
        *  Thank you very much for using Q-Chem.  Have a nice day.  *
