 Q-Chem 5.0, Q-Chem, Inc., Pleasanton, CA (2017)
 Q-Chem 5.0.1 for Intel X86 EM64T Linux

User input:
--------------------------------------------------------------
$molecule
0  1
--
0  1
C        +0.20186000        +1.01419000        +0.57588000
C        +0.65458000        -0.40740000        +1.00877000
C        +1.31047000        +1.40432000        -0.43622000
C        +2.61036000        +1.71622000        +0.34904000
C        +3.06420000        +0.29616000        +0.78527000
C        +1.94960000        -0.59295000        +0.17632000
O        +1.62620000        +0.12693000        -1.03574000
H        +3.34518000        +2.18171000        -0.31153000
H        +2.43386000        +2.39558000        +1.18603000
H        +4.02983000        +0.03650000        +0.34656000
H        +3.14253000        +0.17627000        +1.86830000
C        +0.91819000        +2.41036000        -1.49368000
C        +2.33867000        -2.01935000        -0.13734000
H        +3.21332000        -2.04461000        -0.79203000
H        +2.58239000        -2.55643000        +0.78377000
H        +1.51806000        -2.54232000        -0.63447000
H        +1.73500000        +2.55908000        -2.20400000
H        +0.68341000        +3.37378000        -1.03196000
H        +0.03753000        +2.06800000        -2.04235000
H        +0.83643000        -0.49892000        +2.08202000
H        -0.08220000        -1.16297000        +0.72684000
H        -0.76801000        +0.98583000        +0.07445000
H        +0.13288000        +1.72189000        +1.40479000
--
0  1
C        +0.21781000        +2.27648000        +4.68640000
C        +0.67053000        +0.85489000        +5.11929000
C        +1.32642000        +2.66661000        +3.67430000
C        +2.62631000        +2.97851000        +4.45956000
C        +3.08015000        +1.55845000        +4.89579000
C        +1.96555000        +0.66934000        +4.28684000
O        +1.64215000        +1.38922000        +3.07478000
H        +3.36113000        +3.44400000        +3.79899000
H        +2.44981000        +3.65787000        +5.29655000
H        +4.04578000        +1.29879000        +4.45708000
H        +3.15848000        +1.43856000        +5.97882000
C        +0.93414000        +3.67265000        +2.61684000
C        +2.35462000        -0.75706000        +3.97318000
H        +3.22927000        -0.78232000        +3.31849000
H        +2.59834000        -1.29414000        +4.89429000
H        +1.53401000        -1.28003000        +3.47605000
H        +1.75095000        +3.82137000        +1.90652000
H        +0.69936000        +4.63607000        +3.07856000
H        +0.05348000        +3.33029000        +2.06817000
H        +0.85238000        +0.76337000        +6.19254000
H        -0.06625000        +0.09932000        +4.83736000
H        -0.75206000        +2.24812000        +4.18497000
H        +0.14883000        +2.98418000        +5.51531000
$end

$rem
JOBTYPE                   SP
METHOD                    B3LYP
DFT_D                     d3_op
BASIS                     6-311++G(d,p)
SYMMETRY                  False
THRESH                    12
SCF_CONVERGENCE           8
MAX_SUB_FILE_NUM          128
MEM_STATIC                400
MEM_TOTAL                 4000
$end
--------------------------------------------------------------

             Standard Nuclear Orientation (Angstroms)
    I     Atom           X                Y                Z
 ----------------------------------------------------------------
    1      C       1.4101317907    -0.7769598093     1.2591301769
    2      C       1.4118214563     0.7765069023     1.2614965497
    3      C       2.2591000715    -1.0919312632    -0.0000798136
    4      C       1.4121111994    -0.7768709861    -1.2598320758
    5      C       1.4101548332     0.7764585259    -1.2586650896
    6      C       2.2573051489     1.0927371436     0.0006895202
    7      O       3.2059230408     0.0009366619     0.0008358419
    8      H       1.9042882104    -1.1719515463    -2.1512731777
    9      H       0.4132620763    -1.2157551358    -1.2058352972
   10      H       1.9021964053     1.1740542006    -2.1486897226
   11      H       0.4097122190     1.2117999730    -1.2033877704
   12      C       2.9762023526    -2.4223394900    -0.0000944387
   13      C       2.9743152647     2.4232509790    -0.0014195629
   14      H       3.6043731420     2.5194926485    -0.8891325224
   15      H       2.2504833449     3.2432293107    -0.0023599031
   16      H       3.6060412767     2.5221108329     0.8846874312
   17      H       3.6085967944    -2.5176715643    -0.8860062755
   18      H       2.2529515785    -3.2429393912    -0.0031314215
   19      H       3.6044175141    -2.5206194732     0.8884425216
   20      H       0.4120221678     1.2134932719     1.2090066379
   21      H       1.9057748673     1.1727627105     2.1515564805
   22      H       1.9013684169    -1.1752718342     2.1495897545
   23      H       0.4102949550    -1.2125248017     1.2016953621
   24      C      -2.8898687807    -0.7773259381     1.2588673075
   25      C      -2.8881791151     0.7761407735     1.2612336803
   26      C      -2.0409004999    -1.0922973921    -0.0003426830
   27      C      -2.8878893720    -0.7772371150    -1.2600949452
   28      C      -2.8898457381     0.7760923971    -1.2589279590
   29      C      -2.0426954225     1.0923710148     0.0004266508
   30      O      -1.0940775306     0.0005705331     0.0005729724
   31      H      -2.3957123610    -1.1723176752    -2.1515360471
   32      H      -3.8867384951    -1.2161212646    -1.2060981666
   33      H      -2.3978041661     1.1736880718    -2.1489525920
   34      H      -3.8902883524     1.2114338441    -1.2036506398
   35      C      -1.3237982188    -2.4227056189    -0.0003573081
   36      C      -1.3256853067     2.4228848501    -0.0016824324
   37      H      -0.6956274294     2.5191265197    -0.8893953919
   38      H      -2.0495172264     3.2428631819    -0.0026227725
   39      H      -0.6939592947     2.5217447041     0.8844245617
   40      H      -0.6914037770    -2.5180376931    -0.8862691449
   41      H      -2.0470489929    -3.2433055200    -0.0033942909
   42      H      -0.6955830572    -2.5209856021     0.8881796521
   43      H      -3.8879784036     1.2131271430     1.2087437685
   44      H      -2.3942257040     1.1723965817     2.1512936110
   45      H      -2.3986321545    -1.1756379631     2.1493268850
   46      H      -3.8897056163    -1.2128909306     1.2014324926
 ----------------------------------------------------------------

   13    -777.2609062846      6.20E-09 Convergence criterion met
 Total energy in the final basis set = -777.26090628

                    Orbital Energies (a.u.)
 --------------------------------------------------------------

 Alpha MOs
 -- Occupied --
-19.121 -19.099 -10.233 -10.233 -10.208 -10.208 -10.175 -10.175
-10.174 -10.174 -10.168 -10.168 -10.150 -10.150 -10.146 -10.146
-10.146 -10.146  -1.056  -1.028  -0.809  -0.800  -0.783  -0.775
 -0.758  -0.732  -0.728  -0.705  -0.662  -0.637  -0.622  -0.598
 -0.569  -0.567  -0.544  -0.537  -0.500  -0.486  -0.478  -0.466
 -0.461  -0.456  -0.453  -0.436  -0.427  -0.421  -0.412  -0.409
 -0.403  -0.395  -0.394  -0.394  -0.385  -0.370  -0.366  -0.355
 -0.353  -0.353  -0.347  -0.344  -0.332  -0.325  -0.324  -0.318
 -0.313  -0.305  -0.299  -0.282  -0.272  -0.243

          Ground-State Mulliken Net Atomic Charges

     Atom                 Charge (a.u.)
  ----------------------------------------
      1 C                    -0.062158
      2 C                    -0.066889
      3 C                    -0.702003
      4 C                    -0.067024
      5 C                    -0.062470
      6 C                    -0.700961
      7 O                     0.051655
      8 H                     0.200030
      9 H                     0.037489
     10 H                     0.200339
     11 H                     0.035264
     12 C                    -0.174173
     13 C                    -0.172765
     14 H                     0.145687
     15 H                     0.145580
     16 H                     0.145510
     17 H                     0.145771
     18 H                     0.145572
     19 H                     0.145470
     20 H                     0.037516
     21 H                     0.200087
     22 H                     0.200151
     23 H                     0.035185
     24 C                    -0.439803
     25 C                    -0.444626
     26 C                     0.005061
     27 C                    -0.442788
     28 C                    -0.441524
     29 C                     0.008758
     30 O                     0.214711
     31 H                     0.160328
     32 H                     0.153298
     33 H                     0.160156
     34 H                     0.153358
     35 C                    -0.340905
     36 C                    -0.341102
     37 H                     0.189682
     38 H                     0.173550
     39 H                     0.189017
     40 H                     0.189367
     41 H                     0.173681
     42 H                     0.189905
     43 H                     0.153216
     44 H                     0.160397
     45 H                     0.160077
     46 H                     0.153319
  ----------------------------------------
  Sum of atomic charges =    -0.000000

                    Cartesian Multipole Moments
 -----------------------------------------------------------------
    Charge (ESU x 10^10)
                -0.0000
    Dipole Moment (Debye)
         X      -4.2105      Y      -0.0022      Z      -0.0053
       Tot       4.2105
    Quadrupole Moments (Debye-Ang)
        XX    -120.3940     XY       0.0038     YY    -110.0392
        XZ       0.0001     YZ       0.0026     ZZ    -114.5238

 Total job time:  399.85s(wall), 1582.72s(cpu)
        *  Thank you very much for using Q-Chem.  Have a nice day.  *
