 Q-Chem 5.0, Q-Chem, Inc., Pleasanton, CA (2017)
 Q-Chem 5.0.1 for Intel X86 EM64T Linux

User input:
--------------------------------------------------------------
$molecule
0  1
C        +0.21781000        +2.27648000        +4.68640000
C        +0.67053000        +0.85489000        +5.11929000
C        +1.32642000        +2.66661000        +3.67430000
C        +2.62631000        +2.97851000        +4.45956000
C        +3.08015000        +1.55845000        +4.89579000
C        +1.96555000        +0.66934000        +4.28684000
O        +1.64215000        +1.38922000        +3.07478000
H        +3.36113000        +3.44400000        +3.79899000
H        +2.44981000        +3.65787000        +5.29655000
H        +4.04578000        +1.29879000        +4.45708000
H        +3.15848000        +1.43856000        +5.97882000
C        +0.93414000        +3.67265000        +2.61684000
C        +2.35462000        -0.75706000        +3.97318000
H        +3.22927000        -0.78232000        +3.31849000
H        +2.59834000        -1.29414000        +4.89429000
H        +1.53401000        -1.28003000        +3.47605000
H        +1.75095000        +3.82137000        +1.90652000
H        +0.69936000        +4.63607000        +3.07856000
H        +0.05348000        +3.33029000        +2.06817000
H        +0.85238000        +0.76337000        +6.19254000
H        -0.06625000        +0.09932000        +4.83736000
H        -0.75206000        +2.24812000        +4.18497000
H        +0.14883000        +2.98418000        +5.51531000
@C        +0.20186000        +1.01419000        +0.57588000
@C        +0.65458000        -0.40740000        +1.00877000
@C        +1.31047000        +1.40432000        -0.43622000
@C        +2.61036000        +1.71622000        +0.34904000
@C        +3.06420000        +0.29616000        +0.78527000
@C        +1.94960000        -0.59295000        +0.17632000
@O        +1.62620000        +0.12693000        -1.03574000
@H        +3.34518000        +2.18171000        -0.31153000
@H        +2.43386000        +2.39558000        +1.18603000
@H        +4.02983000        +0.03650000        +0.34656000
@H        +3.14253000        +0.17627000        +1.86830000
@C        +0.91819000        +2.41036000        -1.49368000
@C        +2.33867000        -2.01935000        -0.13734000
@H        +3.21332000        -2.04461000        -0.79203000
@H        +2.58239000        -2.55643000        +0.78377000
@H        +1.51806000        -2.54232000        -0.63447000
@H        +1.73500000        +2.55908000        -2.20400000
@H        +0.68341000        +3.37378000        -1.03196000
@H        +0.03753000        +2.06800000        -2.04235000
@H        +0.83643000        -0.49892000        +2.08202000
@H        -0.08220000        -1.16297000        +0.72684000
@H        -0.76801000        +0.98583000        +0.07445000
@H        +0.13288000        +1.72189000        +1.40479000
$end

$rem
JOBTYPE                   SP
METHOD                    B3LYP
DFT_D                     d3_op
BASIS                     6-311++G(d,p)
SYMMETRY                  False
THRESH                    12
SCF_CONVERGENCE           8
MAX_SUB_FILE_NUM          128
MEM_STATIC                400
MEM_TOTAL                 4000
$end
--------------------------------------------------------------

             Standard Nuclear Orientation (Angstroms)
    I     Atom           X                Y                Z
 ----------------------------------------------------------------
    1      C       0.2178100000     2.2764800000     4.6864000000
    2      C       0.6705300000     0.8548900000     5.1192900000
    3      C       1.3264200000     2.6666100000     3.6743000000
    4      C       2.6263100000     2.9785100000     4.4595600000
    5      C       3.0801500000     1.5584500000     4.8957900000
    6      C       1.9655500000     0.6693400000     4.2868400000
    7      O       1.6421500000     1.3892200000     3.0747800000
    8      H       3.3611300000     3.4440000000     3.7989900000
    9      H       2.4498100000     3.6578700000     5.2965500000
   10      H       4.0457800000     1.2987900000     4.4570800000
   11      H       3.1584800000     1.4385600000     5.9788200000
   12      C       0.9341400000     3.6726500000     2.6168400000
   13      C       2.3546200000    -0.7570600000     3.9731800000
   14      H       3.2292700000    -0.7823200000     3.3184900000
   15      H       2.5983400000    -1.2941400000     4.8942900000
   16      H       1.5340100000    -1.2800300000     3.4760500000
   17      H       1.7509500000     3.8213700000     1.9065200000
   18      H       0.6993600000     4.6360700000     3.0785600000
   19      H       0.0534800000     3.3302900000     2.0681700000
   20      H       0.8523800000     0.7633700000     6.1925400000
   21      H      -0.0662500000     0.0993200000     4.8373600000
   22      H      -0.7520600000     2.2481200000     4.1849700000
   23      H       0.1488300000     2.9841800000     5.5153100000
   24      GH      0.2018600000     1.0141900000     0.5758800000
   25      GH      0.6545800000    -0.4074000000     1.0087700000
   26      GH      1.3104700000     1.4043200000    -0.4362200000
   27      GH      2.6103600000     1.7162200000     0.3490400000
   28      GH      3.0642000000     0.2961600000     0.7852700000
   29      GH      1.9496000000    -0.5929500000     0.1763200000
   30      GH      1.6262000000     0.1269300000    -1.0357400000
   31      GH      3.3451800000     2.1817100000    -0.3115300000
   32      GH      2.4338600000     2.3955800000     1.1860300000
   33      GH      4.0298300000     0.0365000000     0.3465600000
   34      GH      3.1425300000     0.1762700000     1.8683000000
   35      GH      0.9181900000     2.4103600000    -1.4936800000
   36      GH      2.3386700000    -2.0193500000    -0.1373400000
   37      GH      3.2133200000    -2.0446100000    -0.7920300000
   38      GH      2.5823900000    -2.5564300000     0.7837700000
   39      GH      1.5180600000    -2.5423200000    -0.6344700000
   40      GH      1.7350000000     2.5590800000    -2.2040000000
   41      GH      0.6834100000     3.3737800000    -1.0319600000
   42      GH      0.0375300000     2.0680000000    -2.0423500000
   43      GH      0.8364300000    -0.4989200000     2.0820200000
   44      GH     -0.0822000000    -1.1629700000     0.7268400000
   45      GH     -0.7680100000     0.9858300000     0.0744500000
   46      GH      0.1328800000     1.7218900000     1.4047900000
 ----------------------------------------------------------------

   12    -388.6390813231      3.21E-09 Convergence criterion met
 Total energy in the final basis set = -388.63908132

                    Orbital Energies (a.u.)
 --------------------------------------------------------------

 Alpha MOs
 -- Occupied --
-19.113 -10.223 -10.223 -10.166 -10.166 -10.166 -10.166 -10.160
-10.160  -1.043  -0.799  -0.788  -0.749  -0.716  -0.650  -0.613
 -0.557  -0.553  -0.484  -0.475  -0.466  -0.440  -0.417  -0.408
 -0.404  -0.402  -0.383  -0.359  -0.344  -0.343  -0.341  -0.335
 -0.317  -0.298  -0.260

          Ground-State Mulliken Net Atomic Charges

     Atom                 Charge (a.u.)
  ----------------------------------------
      1 C                    -0.437225
      2 C                    -0.443909
      3 C                    -0.019569
      4 C                    -0.441377
      5 C                    -0.438056
      6 C                    -0.015837
      7 O                     0.208520
      8 H                     0.156129
      9 H                     0.149411
     10 H                     0.155364
     11 H                     0.149281
     12 C                    -0.262224
     13 C                    -0.263916
     14 H                     0.162335
     15 H                     0.178302
     16 H                     0.162266
     17 H                     0.161915
     18 H                     0.178461
     19 H                     0.162072
     20 H                     0.149358
     21 H                     0.156137
     22 H                     0.155115
     23 H                     0.149375
     24 GH                   -0.006411
     25 GH                   -0.006191
     26 GH                   -0.003105
     27 GH                   -0.006603
     28 GH                   -0.004940
     29 GH                   -0.005024
     30 GH                   -0.003832
     31 GH                   -0.001337
     32 GH                   -0.021068
     33 GH                   -0.001238
     34 GH                   -0.022075
     35 GH                    0.007951
     36 GH                    0.007932
     37 GH                   -0.000054
     38 GH                   -0.000257
     39 GH                   -0.000053
     40 GH                   -0.000052
     41 GH                   -0.000271
     42 GH                   -0.000058
     43 GH                   -0.021772
     44 GH                   -0.001295
     45 GH                   -0.001227
     46 GH                   -0.020947
  ----------------------------------------
  Sum of atomic charges =     0.000000

                    Cartesian Multipole Moments
 -----------------------------------------------------------------
    Charge (ESU x 10^10)
                -0.0000
    Dipole Moment (Debye)
         X       0.0089      Y       0.4517      Z       1.4644
       Tot       1.5326
    Quadrupole Moments (Debye-Ang)
        XX     -56.6165     XY       0.2055     YY     -53.7879
        XZ       2.6033     YZ       3.0775     ZZ     -47.0854

 Total job time:  359.66s(wall), 1423.38s(cpu)
        *  Thank you very much for using Q-Chem.  Have a nice day.  *
