 Q-Chem 5.0, Q-Chem, Inc., Pleasanton, CA (2017)
 Q-Chem 5.0.1 for Intel X86 EM64T Linux

User input:
--------------------------------------------------------------
$molecule
0  1
C        +0.22270000        +1.04488000        +0.58595000
C        +0.62626000        -0.41353000        +0.99871000
C        +1.33008000        +1.39974000        -0.43491000
C        +2.63070000        +1.71700000        +0.32855000
C        +3.04336000        +0.29351000        +0.80300000
C        +1.94423000        -0.59299000        +0.15262000
O        +1.62840000        +0.13663000        -1.04376000
H        +3.37234000        +2.13782000        -0.35195000
H        +2.48236000        +2.42488000        +1.14651000
H        +4.02182000        +0.00994000        +0.41161000
H        +3.07359000        +0.18738000        +1.88928000
C        +0.90028000        +2.39077000        -1.49430000
C        +2.35450000        -2.01267000        -0.16812000
H        +3.26311000        -2.00678000        -0.77366000
H        +2.54990000        -2.57059000        +0.75079000
H        +1.57335000        -2.52896000        -0.72872000
H        +1.71845000        +2.58186000        -2.15686000
H        +0.59919000        +3.30478000        -1.02650000
H        +0.07925000        +1.98653000        -2.04874000
H        +0.81693000        -0.48905000        +2.04887000
H        -0.12524000        -1.15356000        +0.81843000
H        -0.74673000        +1.06811000        +0.13365000
H        +0.15552000        +1.72617000        +1.40828000
@C        +4.42590000        +3.29148000        +3.52634000
@C        +4.82946000        +1.83307000        +3.93910000
@C        +5.53328000        +3.64634000        +2.50548000
@C        +6.83390000        +3.96360000        +3.26894000
@C        +7.24656000        +2.54011000        +3.74339000
@C        +6.14743000        +1.65361000        +3.09301000
@O        +5.83160000        +2.38323000        +1.89663000
@H        +7.57554000        +4.38442000        +2.58844000
@H        +6.68556000        +4.67148000        +4.08690000
@H        +8.22502000        +2.25654000        +3.35200000
@H        +7.27679000        +2.43398000        +4.82967000
@C        +5.10348000        +4.63737000        +1.44609000
@C        +6.55770000        +0.23393000        +2.77227000
@H        +7.46631000        +0.23982000        +2.16673000
@H        +6.75310000        -0.32399000        +3.69118000
@H        +5.77655000        -0.28236000        +2.21167000
@H        +5.92165000        +4.82846000        +0.78353000
@H        +4.80239000        +5.55138000        +1.91389000
@H        +4.28245000        +4.23313000        +0.89165000
@H        +5.02013000        +1.75755000        +4.98926000
@H        +4.07796000        +1.09304000        +3.75882000
@H        +3.45647000        +3.31471000        +3.07404000
@H        +4.35872000        +3.97277000        +4.34867000
$end

$rem
JOBTYPE                   SP
METHOD                    B3LYP
DFT_D                     d3_op
BASIS                     6-311++G(d,p)
SYMMETRY                  False
THRESH                    12
SCF_CONVERGENCE           8
MAX_SUB_FILE_NUM          128
MEM_STATIC                400
MEM_TOTAL                 4000
$end
--------------------------------------------------------------

             Standard Nuclear Orientation (Angstroms)
    I     Atom           X                Y                Z
 ----------------------------------------------------------------
    1      C       0.2227000000     1.0448800000     0.5859500000
    2      C       0.6262600000    -0.4135300000     0.9987100000
    3      C       1.3300800000     1.3997400000    -0.4349100000
    4      C       2.6307000000     1.7170000000     0.3285500000
    5      C       3.0433600000     0.2935100000     0.8030000000
    6      C       1.9442300000    -0.5929900000     0.1526200000
    7      O       1.6284000000     0.1366300000    -1.0437600000
    8      H       3.3723400000     2.1378200000    -0.3519500000
    9      H       2.4823600000     2.4248800000     1.1465100000
   10      H       4.0218200000     0.0099400000     0.4116100000
   11      H       3.0735900000     0.1873800000     1.8892800000
   12      C       0.9002800000     2.3907700000    -1.4943000000
   13      C       2.3545000000    -2.0126700000    -0.1681200000
   14      H       3.2631100000    -2.0067800000    -0.7736600000
   15      H       2.5499000000    -2.5705900000     0.7507900000
   16      H       1.5733500000    -2.5289600000    -0.7287200000
   17      H       1.7184500000     2.5818600000    -2.1568600000
   18      H       0.5991900000     3.3047800000    -1.0265000000
   19      H       0.0792500000     1.9865300000    -2.0487400000
   20      H       0.8169300000    -0.4890500000     2.0488700000
   21      H      -0.1252400000    -1.1535600000     0.8184300000
   22      H      -0.7467300000     1.0681100000     0.1336500000
   23      H       0.1555200000     1.7261700000     1.4082800000
   24      GH      4.4259000000     3.2914800000     3.5263400000
   25      GH      4.8294600000     1.8330700000     3.9391000000
   26      GH      5.5332800000     3.6463400000     2.5054800000
   27      GH      6.8339000000     3.9636000000     3.2689400000
   28      GH      7.2465600000     2.5401100000     3.7433900000
   29      GH      6.1474300000     1.6536100000     3.0930100000
   30      GH      5.8316000000     2.3832300000     1.8966300000
   31      GH      7.5755400000     4.3844200000     2.5884400000
   32      GH      6.6855600000     4.6714800000     4.0869000000
   33      GH      8.2250200000     2.2565400000     3.3520000000
   34      GH      7.2767900000     2.4339800000     4.8296700000
   35      GH      5.1034800000     4.6373700000     1.4460900000
   36      GH      6.5577000000     0.2339300000     2.7722700000
   37      GH      7.4663100000     0.2398200000     2.1667300000
   38      GH      6.7531000000    -0.3239900000     3.6911800000
   39      GH      5.7765500000    -0.2823600000     2.2116700000
   40      GH      5.9216500000     4.8284600000     0.7835300000
   41      GH      4.8023900000     5.5513800000     1.9138900000
   42      GH      4.2824500000     4.2331300000     0.8916500000
   43      GH      5.0201300000     1.7575500000     4.9892600000
   44      GH      4.0779600000     1.0930400000     3.7588200000
   45      GH      3.4564700000     3.3147100000     3.0740400000
   46      GH      4.3587200000     3.9727700000     4.3486700000
 ----------------------------------------------------------------

   12    -388.6331049471      6.95E-09 Convergence criterion met
 Total energy in the final basis set = -388.63310495

                    Orbital Energies (a.u.)
 --------------------------------------------------------------

 Alpha MOs
 -- Occupied --
-19.115 -10.224 -10.221 -10.166 -10.165 -10.162 -10.161 -10.160
-10.151  -1.049  -0.799  -0.789  -0.749  -0.717  -0.652  -0.616
 -0.562  -0.556  -0.486  -0.474  -0.464  -0.444  -0.420  -0.410
 -0.407  -0.402  -0.384  -0.360  -0.346  -0.343  -0.340  -0.333
 -0.316  -0.299  -0.261

          Ground-State Mulliken Net Atomic Charges

     Atom                 Charge (a.u.)
  ----------------------------------------
      1 C                    -0.418905
      2 C                    -0.463333
      3 C                    -0.002183
      4 C                    -0.277274
      5 C                    -0.213999
      6 C                     0.011635
      7 O                     0.034569
      8 H                     0.178985
      9 H                     0.049828
     10 H                     0.163675
     11 H                     0.053083
     12 C                    -0.325553
     13 C                    -0.339790
     14 H                     0.151491
     15 H                     0.150991
     16 H                     0.156502
     17 H                     0.141212
     18 H                     0.147310
     19 H                     0.154873
     20 H                     0.134984
     21 H                     0.175604
     22 H                     0.164068
     23 H                     0.144369
     24 GH                    0.008001
     25 GH                    0.009195
     26 GH                   -0.007118
     27 GH                    0.000400
     28 GH                   -0.005697
     29 GH                   -0.007648
     30 GH                    0.003657
     31 GH                   -0.000221
     32 GH                    0.000010
     33 GH                   -0.000218
     34 GH                    0.000028
     35 GH                   -0.012102
     36 GH                   -0.006747
     37 GH                    0.001294
     38 GH                   -0.000815
     39 GH                    0.008052
     40 GH                    0.001467
     41 GH                   -0.000969
     42 GH                    0.008807
     43 GH                   -0.001537
     44 GH                    0.017507
     45 GH                    0.013423
     46 GH                   -0.000912
  ----------------------------------------
  Sum of atomic charges =     0.000000

                    Cartesian Multipole Moments
 -----------------------------------------------------------------
    Charge (ESU x 10^10)
                 0.0000
    Dipole Moment (Debye)
         X      -0.0313      Y       0.4301      Z       1.5064
       Tot       1.5669
    Quadrupole Moments (Debye-Ang)
        XX     -56.4617     XY       0.1483     YY     -54.7978
        XZ       2.4001     YZ      -0.4899     ZZ     -59.1058

 Total job time:  274.15s(wall), 1083.13s(cpu)
        *  Thank you very much for using Q-Chem.  Have a nice day.  *
