 Q-Chem 5.0, Q-Chem, Inc., Pleasanton, CA (2017)
 Q-Chem 5.0.1 for Intel X86 EM64T Linux

User input:
--------------------------------------------------------------
$molecule
0  1
--
0  1
C        -0.54444000        -0.68370000        -0.06689000
C        -0.55709000        +0.71878000        +0.05493000
C        -1.74320000        -1.41616000        -0.12552000
C        -2.93952000        -0.70056000        -0.05285000
C        -2.95313000        +0.68255000        +0.06934000
C        -1.77161000        +1.42404000        +0.12810000
H        -3.90354000        +1.20325000        +0.11710000
H        -3.87892000        -1.24211000        -0.08988000
C        -1.83960000        +2.92746000        +0.24839000
H        -1.24214000        +3.42352000        -0.52065000
H        -1.45503000        +3.26427000        +1.21284000
H        -2.87211000        +3.26623000        +0.14638000
H        -1.73878000        -2.44393000        -0.21875000
H        +0.35825000        -1.18166000        -0.11386000
H        +0.33551000        +1.23549000        +0.09097000
--
0  1
C        -0.51485000        -1.05862000        +4.21663000
C        -0.52750000        +0.34386000        +4.33845000
C        -1.71361000        -1.79108000        +4.15800000
C        -2.90993000        -1.07548000        +4.23067000
C        -2.92354000        +0.30763000        +4.35286000
C        -1.74202000        +1.04912000        +4.41162000
H        -3.87395000        +0.82833000        +4.40062000
H        -3.84933000        -1.61703000        +4.19364000
C        -1.81001000        +2.55254000        +4.53191000
H        -1.21255000        +3.04860000        +3.76287000
H        -1.42544000        +2.88935000        +5.49636000
H        -2.84252000        +2.89131000        +4.42990000
H        -1.70919000        -2.81885000        +4.06477000
H        +0.38784000        -1.55658000        +4.16966000
H        +0.36510000        +0.86057000        +4.37449000
$end

$rem
JOBTYPE                   SP
METHOD                    B3LYP
DFT_D                     d3_op
BASIS                     6-311++G(d,p)
SYMMETRY                  False
THRESH                    12
SCF_CONVERGENCE           8
MAX_SUB_FILE_NUM          128
MEM_STATIC                400
MEM_TOTAL                 4000
$end
--------------------------------------------------------------

             Standard Nuclear Orientation (Angstroms)
    I     Atom           X                Y                Z
 ----------------------------------------------------------------
    1      C       2.1453606410    -1.2324382344     1.1901859506
    2      C       2.1487933704     0.1750891110     1.2185632961
    3      C       2.1470307427    -1.9319864799    -0.0294820899
    4      C       2.1466377568    -1.1782230470    -1.2043805384
    5      C       2.1479867070     0.2100804412    -1.1775383083
    6      C       2.1471105201     0.9191326024     0.0251644534
    7      H       2.1533572910     0.7604213271    -2.1123028464
    8      H       2.1419506749    -1.6933306804    -2.1592429058
    9      C       2.1614278579     2.4286311602     0.0012241420
   10      H       2.9673223971     2.8366133814     0.6164809954
   11      H       1.2280710820     2.8386595587     0.3913788611
   12      H       2.3003729081     2.7868940508    -1.0203384001
   13      H       2.1484908002    -2.9636665192    -0.0551083825
   14      H       2.1415586942    -1.7586790956     2.0779222176
   15      H       2.1525857521     0.6667407972     2.1259149937
   16      C      -2.1546311660    -1.2250528800     1.1899009119
   17      C      -2.1511984366     0.1824744653     1.2182782575
   18      C      -2.1529610643    -1.9246011255    -0.0297671286
   19      C      -2.1533540501    -1.1708376927    -1.2046655770
   20      C      -2.1520051000     0.2174657955    -1.1778233469
   21      C      -2.1528812869     0.9265179568     0.0248794148
   22      H      -2.1466345160     0.7678066815    -2.1125878851
   23      H      -2.1580411321    -1.6859453260    -2.1595279444
   24      C      -2.1385639491     2.4360165145     0.0009391033
   25      H      -1.3326694099     2.8439987358     0.6161959567
   26      H      -3.0719207250     2.8460449130     0.3910938224
   27      H      -1.9996188989     2.7942794052    -1.0206234387
   28      H      -2.1515010068    -2.9562811649    -0.0553934211
   29      H      -2.1584331128    -1.7512937413     2.0776371789
   30      H      -2.1474060549     0.6741261515     2.1256299550
 ----------------------------------------------------------------

   13    -543.2896487199      5.78E-09 Convergence criterion met
 Total energy in the final basis set = -543.28964872

                    Orbital Energies (a.u.)
 --------------------------------------------------------------

 Alpha MOs
 -- Occupied --
-10.181 -10.181 -10.169 -10.169 -10.168 -10.168 -10.168 -10.168
-10.167 -10.166 -10.165 -10.165 -10.165 -10.165  -0.854  -0.853
 -0.773  -0.772  -0.743  -0.743  -0.689  -0.688  -0.607  -0.607
 -0.587  -0.586  -0.518  -0.517  -0.462  -0.461  -0.459  -0.458
 -0.427  -0.419  -0.419  -0.417  -0.415  -0.414  -0.388  -0.387
 -0.358  -0.349  -0.347  -0.346  -0.339  -0.338  -0.254  -0.247
 -0.245  -0.239

          Ground-State Mulliken Net Atomic Charges

     Atom                 Charge (a.u.)
  ----------------------------------------
      1 C                    -0.187780
      2 C                    -0.304153
      3 C                    -0.230215
      4 C                    -0.296895
      5 C                    -0.260311
      6 C                     0.728090
      7 H                     0.153185
      8 H                     0.163225
      9 C                    -0.683233
     10 H                     0.147577
     11 H                     0.157057
     12 H                     0.142006
     13 H                     0.145994
     14 H                     0.157406
     15 H                     0.164629
     16 C                    -0.249154
     17 C                    -0.169883
     18 C                    -0.271057
     19 C                    -0.249328
     20 C                    -0.266558
     21 C                     0.647698
     22 H                     0.150720
     23 H                     0.170648
     24 C                    -0.666471
     25 H                     0.139255
     26 H                     0.157236
     27 H                     0.137614
     28 H                     0.143197
     29 H                     0.159558
     30 H                     0.169942
  ----------------------------------------
  Sum of atomic charges =     0.000000

                    Cartesian Multipole Moments
 -----------------------------------------------------------------
    Charge (ESU x 10^10)
                 0.0000
    Dipole Moment (Debye)
         X      -0.0100      Y       0.6027      Z       0.1191
       Tot       0.6144
    Quadrupole Moments (Debye-Ang)
        XX     -94.1282     XY       0.0486     YY     -77.4540
        XZ      -0.0313     YZ       0.0276     ZZ     -78.5721

 Total job time:  97.78s(wall), 389.73s(cpu)
        *  Thank you very much for using Q-Chem.  Have a nice day.  *
