 Q-Chem 5.0, Q-Chem, Inc., Pleasanton, CA (2017)
 Q-Chem 5.0.1 for Intel X86 EM64T Linux

User input:
--------------------------------------------------------------
$molecule
0  1
C        -0.54444000        -0.68370000        -0.06689000
C        -0.55709000        +0.71878000        +0.05493000
C        -1.74320000        -1.41616000        -0.12552000
C        -2.93952000        -0.70056000        -0.05285000
C        -2.95313000        +0.68255000        +0.06934000
C        -1.77161000        +1.42404000        +0.12810000
H        -3.90354000        +1.20325000        +0.11710000
H        -3.87892000        -1.24211000        -0.08988000
C        -1.83960000        +2.92746000        +0.24839000
H        -1.24214000        +3.42352000        -0.52065000
H        -1.45503000        +3.26427000        +1.21284000
H        -2.87211000        +3.26623000        +0.14638000
H        -1.73878000        -2.44393000        -0.21875000
H        +0.35825000        -1.18166000        -0.11386000
H        +0.33551000        +1.23549000        +0.09097000
@C        -0.51485000        -1.05862000        +4.21663000
@C        -0.52750000        +0.34386000        +4.33845000
@C        -1.71361000        -1.79108000        +4.15800000
@C        -2.90993000        -1.07548000        +4.23067000
@C        -2.92354000        +0.30763000        +4.35286000
@C        -1.74202000        +1.04912000        +4.41162000
@H        -3.87395000        +0.82833000        +4.40062000
@H        -3.84933000        -1.61703000        +4.19364000
@C        -1.81001000        +2.55254000        +4.53191000
@H        -1.21255000        +3.04860000        +3.76287000
@H        -1.42544000        +2.88935000        +5.49636000
@H        -2.84252000        +2.89131000        +4.42990000
@H        -1.70919000        -2.81885000        +4.06477000
@H        +0.38784000        -1.55658000        +4.16966000
@H        +0.36510000        +0.86057000        +4.37449000
$end

$rem
JOBTYPE                   SP
METHOD                    B3LYP
DFT_D                     d3_op
BASIS                     6-311++G(d,p)
SYMMETRY                  False
THRESH                    12
SCF_CONVERGENCE           8
MAX_SUB_FILE_NUM          128
MEM_STATIC                400
MEM_TOTAL                 4000
$end
--------------------------------------------------------------

             Standard Nuclear Orientation (Angstroms)
    I     Atom           X                Y                Z
 ----------------------------------------------------------------
    1      C      -0.5444400000    -0.6837000000    -0.0668900000
    2      C      -0.5570900000     0.7187800000     0.0549300000
    3      C      -1.7432000000    -1.4161600000    -0.1255200000
    4      C      -2.9395200000    -0.7005600000    -0.0528500000
    5      C      -2.9531300000     0.6825500000     0.0693400000
    6      C      -1.7716100000     1.4240400000     0.1281000000
    7      H      -3.9035400000     1.2032500000     0.1171000000
    8      H      -3.8789200000    -1.2421100000    -0.0898800000
    9      C      -1.8396000000     2.9274600000     0.2483900000
   10      H      -1.2421400000     3.4235200000    -0.5206500000
   11      H      -1.4550300000     3.2642700000     1.2128400000
   12      H      -2.8721100000     3.2662300000     0.1463800000
   13      H      -1.7387800000    -2.4439300000    -0.2187500000
   14      H       0.3582500000    -1.1816600000    -0.1138600000
   15      H       0.3355100000     1.2354900000     0.0909700000
   16      GH     -0.5148500000    -1.0586200000     4.2166300000
   17      GH     -0.5275000000     0.3438600000     4.3384500000
   18      GH     -1.7136100000    -1.7910800000     4.1580000000
   19      GH     -2.9099300000    -1.0754800000     4.2306700000
   20      GH     -2.9235400000     0.3076300000     4.3528600000
   21      GH     -1.7420200000     1.0491200000     4.4116200000
   22      GH     -3.8739500000     0.8283300000     4.4006200000
   23      GH     -3.8493300000    -1.6170300000     4.1936400000
   24      GH     -1.8100100000     2.5525400000     4.5319100000
   25      GH     -1.2125500000     3.0486000000     3.7628700000
   26      GH     -1.4254400000     2.8893500000     5.4963600000
   27      GH     -2.8425200000     2.8913100000     4.4299000000
   28      GH     -1.7091900000    -2.8188500000     4.0647700000
   29      GH      0.3878400000    -1.5565800000     4.1696600000
   30      GH      0.3651000000     0.8605700000     4.3744900000
 ----------------------------------------------------------------

   13    -271.6439659883      1.55E-09 Convergence criterion met
 Total energy in the final basis set = -271.64396599

                    Orbital Energies (a.u.)
 --------------------------------------------------------------

 Alpha MOs
 -- Occupied --
-10.185 -10.174 -10.172 -10.171 -10.170 -10.169 -10.169  -0.858
 -0.776  -0.748  -0.691  -0.611  -0.591  -0.521  -0.465  -0.462
 -0.424  -0.423  -0.418  -0.390  -0.358  -0.350  -0.342  -0.255
 -0.248

          Ground-State Mulliken Net Atomic Charges

     Atom                 Charge (a.u.)
  ----------------------------------------
      1 C                    -0.195532
      2 C                    -0.256763
      3 C                    -0.250356
      4 C                    -0.275834
      5 C                    -0.265322
      6 C                     0.689509
      7 H                     0.156186
      8 H                     0.167817
      9 C                    -0.703666
     10 H                     0.148797
     11 H                     0.167759
     12 H                     0.141554
     13 H                     0.147671
     14 H                     0.160080
     15 H                     0.170926
     16 GH                   -0.019615
     17 GH                    0.029478
     18 GH                    0.012037
     19 GH                   -0.003206
     20 GH                   -0.029475
     21 GH                   -0.014191
     22 GH                    0.000145
     23 GH                    0.003218
     24 GH                    0.014837
     25 GH                   -0.004443
     26 GH                   -0.000591
     27 GH                    0.001644
     28 GH                    0.002072
     29 GH                    0.002227
     30 GH                    0.003038
  ----------------------------------------
  Sum of atomic charges =     0.000000

                    Cartesian Multipole Moments
 -----------------------------------------------------------------
    Charge (ESU x 10^10)
                 0.0000
    Dipole Moment (Debye)
         X       0.0609      Y       0.3886      Z       0.0309
       Tot       0.3946
    Quadrupole Moments (Debye-Ang)
        XX     -39.3815     XY      -0.6323     YY     -38.0977
        XZ      -0.0874     YZ       0.7235     ZZ     -46.3972

 Total job time:  91.84s(wall), 366.16s(cpu)
        *  Thank you very much for using Q-Chem.  Have a nice day.  *
