 Q-Chem 5.0, Q-Chem, Inc., Pleasanton, CA (2017)
 Q-Chem 5.0.1 for Intel X86 EM64T Linux

User input:
--------------------------------------------------------------
$molecule
0  1
C        -0.58182000        -1.03738000        +4.23406000
C        -0.61216000        +0.34969000        +4.35504000
C        -1.77263000        -1.76199000        +4.16257000
C        -2.98947000        -1.08647000        +4.21387000
C        -3.01407000        +0.30339000        +4.33494000
C        -1.82943000        +1.04199000        +4.40563000
H        -3.96716000        +0.82102000        +4.37403000
H        -3.92132000        -1.63884000        +4.15913000
C        -1.85408000        +2.54668000        +4.53110000
H        -1.32971000        +3.02070000        +3.69557000
H        -1.36268000        +2.87537000        +5.45205000
H        -2.87739000        +2.92709000        +4.54310000
H        -1.75063000        -2.84182000        +4.06741000
H        +0.37042000        -1.55505000        +4.19520000
H        +0.31973000        +0.90398000        +4.41009000
@C        -0.55335000        -0.66344000        -0.04955000
@C        -0.58369000        +0.72363000        +0.07143000
@C        -1.74416000        -1.38805000        -0.12104000
@C        -2.96100000        -0.71253000        -0.06974000
@C        -2.98560000        +0.67733000        +0.05133000
@C        -1.80096000        +1.41593000        +0.12202000
@H        -3.93869000        +1.19496000        +0.09042000
@H        -3.89285000        -1.26490000        -0.12448000
@C        -1.82561000        +2.92062000        +0.24749000
@H        -1.30124000        +3.39464000        -0.58804000
@H        -1.33421000        +3.24931000        +1.16844000
@H        -2.84892000        +3.30103000        +0.25949000
@H        -1.72216000        -2.46788000        -0.21620000
@H        +0.39889000        -1.18111000        -0.08841000
@H        +0.34820000        +1.27792000        +0.12648000
$end

$rem
JOBTYPE                   SP
METHOD                    B3LYP
DFT_D                     d3_op
BASIS                     6-311++G(d,p)
SYMMETRY                  False
THRESH                    12
SCF_CONVERGENCE           8
MAX_SUB_FILE_NUM          128
MEM_STATIC                400
MEM_TOTAL                 4000
$end
--------------------------------------------------------------

             Standard Nuclear Orientation (Angstroms)
    I     Atom           X                Y                Z
 ----------------------------------------------------------------
    1      C      -0.5818200000    -1.0373800000     4.2340600000
    2      C      -0.6121600000     0.3496900000     4.3550400000
    3      C      -1.7726300000    -1.7619900000     4.1625700000
    4      C      -2.9894700000    -1.0864700000     4.2138700000
    5      C      -3.0140700000     0.3033900000     4.3349400000
    6      C      -1.8294300000     1.0419900000     4.4056300000
    7      H      -3.9671600000     0.8210200000     4.3740300000
    8      H      -3.9213200000    -1.6388400000     4.1591300000
    9      C      -1.8540800000     2.5466800000     4.5311000000
   10      H      -1.3297100000     3.0207000000     3.6955700000
   11      H      -1.3626800000     2.8753700000     5.4520500000
   12      H      -2.8773900000     2.9270900000     4.5431000000
   13      H      -1.7506300000    -2.8418200000     4.0674100000
   14      H       0.3704200000    -1.5550500000     4.1952000000
   15      H       0.3197300000     0.9039800000     4.4100900000
   16      GH     -0.5533500000    -0.6634400000    -0.0495500000
   17      GH     -0.5836900000     0.7236300000     0.0714300000
   18      GH     -1.7441600000    -1.3880500000    -0.1210400000
   19      GH     -2.9610000000    -0.7125300000    -0.0697400000
   20      GH     -2.9856000000     0.6773300000     0.0513300000
   21      GH     -1.8009600000     1.4159300000     0.1220200000
   22      GH     -3.9386900000     1.1949600000     0.0904200000
   23      GH     -3.8928500000    -1.2649000000    -0.1244800000
   24      GH     -1.8256100000     2.9206200000     0.2474900000
   25      GH     -1.3012400000     3.3946400000    -0.5880400000
   26      GH     -1.3342100000     3.2493100000     1.1684400000
   27      GH     -2.8489200000     3.3010300000     0.2594900000
   28      GH     -1.7221600000    -2.4678800000    -0.2162000000
   29      GH      0.3988900000    -1.1811100000    -0.0884100000
   30      GH      0.3482000000     1.2779200000     0.1264800000
 ----------------------------------------------------------------

   13    -271.6507221427      8.88E-10 Convergence criterion met
 Total energy in the final basis set = -271.65072214

                    Orbital Energies (a.u.)
 --------------------------------------------------------------

 Alpha MOs
 -- Occupied --
-10.185 -10.176 -10.175 -10.173 -10.173 -10.173 -10.170  -0.860
 -0.775  -0.748  -0.689  -0.608  -0.587  -0.515  -0.464  -0.457
 -0.424  -0.424  -0.412  -0.389  -0.359  -0.346  -0.343  -0.257
 -0.248

          Ground-State Mulliken Net Atomic Charges

     Atom                 Charge (a.u.)
  ----------------------------------------
      1 C                    -0.215102
      2 C                    -0.195364
      3 C                    -0.289285
      4 C                    -0.259605
      5 C                    -0.240722
      6 C                     0.629387
      7 H                     0.159426
      8 H                     0.173200
      9 C                    -0.715026
     10 H                     0.163810
     11 H                     0.154084
     12 H                     0.139958
     13 H                     0.153366
     14 H                     0.168582
     15 H                     0.180223
     16 GH                   -0.016952
     17 GH                    0.006812
     18 GH                    0.012978
     19 GH                   -0.012774
     20 GH                   -0.010620
     21 GH                   -0.008278
     22 GH                    0.001142
     23 GH                    0.001674
     24 GH                    0.016674
     25 GH                   -0.000453
     26 GH                   -0.005408
     27 GH                    0.002007
     28 GH                    0.002797
     29 GH                    0.002078
     30 GH                    0.001390
  ----------------------------------------
  Sum of atomic charges =    -0.000000

                    Cartesian Multipole Moments
 -----------------------------------------------------------------
    Charge (ESU x 10^10)
                -0.0000
    Dipole Moment (Debye)
         X       0.0351      Y       0.4019      Z       0.0340
       Tot       0.4048
    Quadrupole Moments (Debye-Ang)
        XX     -39.2608     XY      -0.6680     YY     -38.7093
        XZ       0.1485     YZ       2.4162     ZZ     -46.1992

 Total job time:  102.45s(wall), 407.46s(cpu)
        *  Thank you very much for using Q-Chem.  Have a nice day.  *
