 Q-Chem 5.0, Q-Chem, Inc., Pleasanton, CA (2017)
 Q-Chem 5.0.1 for Intel X86 EM64T Linux

User input:
--------------------------------------------------------------
$molecule
0  1
C        -0.69140000        -0.99114000        +4.21959000
C        -0.70405000        +0.41134000        +4.34141000
C        -1.89016000        -1.72360000        +4.16096000
C        -3.08648000        -1.00800000        +4.23363000
C        -3.10009000        +0.37511000        +4.35582000
C        -1.91857000        +1.11660000        +4.41458000
H        -4.05050000        +0.89581000        +4.40358000
H        -4.02588000        -1.54955000        +4.19660000
C        -1.98656000        +2.62002000        +4.53487000
H        -1.38910000        +3.11608000        +3.76583000
H        -1.60199000        +2.95683000        +5.49932000
H        -3.01907000        +2.95879000        +4.43286000
H        -1.88574000        -2.75137000        +4.06773000
H        +0.21129000        -1.48910000        +4.17262000
H        +0.18855000        +0.92805000        +4.37745000
@C        -0.54444000        -0.68370000        -0.06689000
@C        -0.55709000        +0.71878000        +0.05493000
@C        -1.74320000        -1.41616000        -0.12552000
@C        -2.93952000        -0.70056000        -0.05285000
@C        -2.95313000        +0.68255000        +0.06934000
@C        -1.77161000        +1.42404000        +0.12810000
@H        -3.90354000        +1.20325000        +0.11710000
@H        -3.87892000        -1.24211000        -0.08988000
@C        -1.83960000        +2.92746000        +0.24839000
@H        -1.24214000        +3.42352000        -0.52065000
@H        -1.45503000        +3.26427000        +1.21284000
@H        -2.87211000        +3.26623000        +0.14638000
@H        -1.73878000        -2.44393000        -0.21875000
@H        +0.35825000        -1.18166000        -0.11386000
@H        +0.33551000        +1.23549000        +0.09097000
$end

$rem
JOBTYPE                   SP
METHOD                    B3LYP
DFT_D                     d3_op
BASIS                     6-311++G(d,p)
SYMMETRY                  False
THRESH                    12
SCF_CONVERGENCE           8
MAX_SUB_FILE_NUM          128
MEM_STATIC                400
MEM_TOTAL                 4000
$end
--------------------------------------------------------------

             Standard Nuclear Orientation (Angstroms)
    I     Atom           X                Y                Z
 ----------------------------------------------------------------
    1      C      -0.6914000000    -0.9911400000     4.2195900000
    2      C      -0.7040500000     0.4113400000     4.3414100000
    3      C      -1.8901600000    -1.7236000000     4.1609600000
    4      C      -3.0864800000    -1.0080000000     4.2336300000
    5      C      -3.1000900000     0.3751100000     4.3558200000
    6      C      -1.9185700000     1.1166000000     4.4145800000
    7      H      -4.0505000000     0.8958100000     4.4035800000
    8      H      -4.0258800000    -1.5495500000     4.1966000000
    9      C      -1.9865600000     2.6200200000     4.5348700000
   10      H      -1.3891000000     3.1160800000     3.7658300000
   11      H      -1.6019900000     2.9568300000     5.4993200000
   12      H      -3.0190700000     2.9587900000     4.4328600000
   13      H      -1.8857400000    -2.7513700000     4.0677300000
   14      H       0.2112900000    -1.4891000000     4.1726200000
   15      H       0.1885500000     0.9280500000     4.3774500000
   16      GH     -0.5444400000    -0.6837000000    -0.0668900000
   17      GH     -0.5570900000     0.7187800000     0.0549300000
   18      GH     -1.7432000000    -1.4161600000    -0.1255200000
   19      GH     -2.9395200000    -0.7005600000    -0.0528500000
   20      GH     -2.9531300000     0.6825500000     0.0693400000
   21      GH     -1.7716100000     1.4240400000     0.1281000000
   22      GH     -3.9035400000     1.2032500000     0.1171000000
   23      GH     -3.8789200000    -1.2421100000    -0.0898800000
   24      GH     -1.8396000000     2.9274600000     0.2483900000
   25      GH     -1.2421400000     3.4235200000    -0.5206500000
   26      GH     -1.4550300000     3.2642700000     1.2128400000
   27      GH     -2.8721100000     3.2662300000     0.1463800000
   28      GH     -1.7387800000    -2.4439300000    -0.2187500000
   29      GH      0.3582500000    -1.1816600000    -0.1138600000
   30      GH      0.3355100000     1.2354900000     0.0909700000
 ----------------------------------------------------------------

   12    -271.6439606104      9.89E-09 Convergence criterion met
 Total energy in the final basis set = -271.64396061

                    Orbital Energies (a.u.)
 --------------------------------------------------------------

 Alpha MOs
 -- Occupied --
-10.185 -10.174 -10.172 -10.171 -10.170 -10.169 -10.169  -0.858
 -0.776  -0.748  -0.691  -0.611  -0.591  -0.521  -0.465  -0.462
 -0.424  -0.423  -0.418  -0.390  -0.358  -0.350  -0.342  -0.255
 -0.248

          Ground-State Mulliken Net Atomic Charges

     Atom                 Charge (a.u.)
  ----------------------------------------
      1 C                    -0.223953
      2 C                    -0.206863
      3 C                    -0.282929
      4 C                    -0.262111
      5 C                    -0.244929
      6 C                     0.651835
      7 H                     0.155641
      8 H                     0.172899
      9 C                    -0.687529
     10 H                     0.157372
     11 H                     0.158949
     12 H                     0.139559
     13 H                     0.145810
     14 H                     0.161632
     15 H                     0.171796
     16 GH                   -0.022217
     17 GH                   -0.009693
     18 GH                    0.012719
     19 GH                   -0.008587
     20 GH                   -0.002417
     21 GH                    0.000320
     22 GH                    0.002127
     23 GH                    0.001693
     24 GH                    0.016377
     25 GH                   -0.000210
     26 GH                   -0.002844
     27 GH                    0.002035
     28 GH                    0.003143
     29 GH                    0.000783
     30 GH                   -0.000407
  ----------------------------------------
  Sum of atomic charges =     0.000000

                    Cartesian Multipole Moments
 -----------------------------------------------------------------
    Charge (ESU x 10^10)
                 0.0000
    Dipole Moment (Debye)
         X       0.0627      Y       0.3877      Z       0.0385
       Tot       0.3947
    Quadrupole Moments (Debye-Ang)
        XX     -39.4058     XY      -0.7079     YY     -38.3368
        XZ       0.1701     YZ       2.3716     ZZ     -46.0690

 Total job time:  87.23s(wall), 347.04s(cpu)
        *  Thank you very much for using Q-Chem.  Have a nice day.  *
