 Q-Chem 5.0, Q-Chem, Inc., Pleasanton, CA (2017)
 Q-Chem 5.0.1 for Intel X86 EM64T Linux

User input:
--------------------------------------------------------------
$molecule
0  1
--
0  1
C        -0.55335000        -0.66344000        -0.04955000
C        -0.58369000        +0.72363000        +0.07143000
C        -1.74416000        -1.38805000        -0.12104000
C        -2.96100000        -0.71253000        -0.06974000
C        -2.98560000        +0.67733000        +0.05133000
C        -1.80096000        +1.41593000        +0.12202000
H        -3.93869000        +1.19496000        +0.09042000
H        -3.89285000        -1.26490000        -0.12448000
C        -1.82561000        +2.92062000        +0.24749000
H        -1.30124000        +3.39464000        -0.58804000
H        -1.33421000        +3.24931000        +1.16844000
H        -2.84892000        +3.30103000        +0.25949000
H        -1.72216000        -2.46788000        -0.21620000
H        +0.39889000        -1.18111000        -0.08841000
H        +0.34820000        +1.27792000        +0.12648000
--
0  1
C        -0.58182000        -1.03738000        +4.23406000
C        -0.61216000        +0.34969000        +4.35504000
C        -1.77263000        -1.76199000        +4.16257000
C        -2.98947000        -1.08647000        +4.21387000
C        -3.01407000        +0.30339000        +4.33494000
C        -1.82943000        +1.04199000        +4.40563000
H        -3.96716000        +0.82102000        +4.37403000
H        -3.92132000        -1.63884000        +4.15913000
C        -1.85408000        +2.54668000        +4.53110000
H        -1.32971000        +3.02070000        +3.69557000
H        -1.36268000        +2.87537000        +5.45205000
H        -2.87739000        +2.92709000        +4.54310000
H        -1.75063000        -2.84182000        +4.06741000
H        +0.37042000        -1.55505000        +4.19520000
H        +0.31973000        +0.90398000        +4.41009000
$end

$rem
JOBTYPE                   SP
METHOD                    B3LYP
DFT_D                     d3_op
BASIS                     6-311++G(d,p)
SYMMETRY                  False
THRESH                    12
SCF_CONVERGENCE           8
MAX_SUB_FILE_NUM          128
MEM_STATIC                400
MEM_TOTAL                 4000
$end
--------------------------------------------------------------

             Standard Nuclear Orientation (Angstroms)
    I     Atom           X                Y                Z
 ----------------------------------------------------------------
    1      C       2.1464267599    -1.1987158476     1.2062273877
    2      C       2.1485321235     0.1939366833     1.2003659374
    3      C       2.1456393420    -1.9057527952     0.0027752436
    4      C       2.1463391082    -1.2070461612    -1.2019932386
    5      C       2.1486396376     0.1882920152    -1.2020677191
    6      C       2.1514219102     0.9092997953    -0.0045540425
    7      H       2.1492585324     0.7240332165    -2.1459058278
    8      H       2.1458224486    -1.7456179400    -2.1434780655
    9      C       2.1595062194     2.4193903683    -0.0026980405
   10      H       3.0371576116     2.8083888247     0.5228278607
   11      H       1.2745295746     2.8195209951     0.5016548105
   12      H       2.1744967369     2.8173101814    -1.0192875500
   13      H       2.1449632180    -2.9899867082     0.0057111178
   14      H       2.1455696356    -1.7344616022     2.1492168351
   15      H       2.1489102622     0.7344473491     2.1419257899
   16      C      -2.1535627851    -1.1919181942     1.2061874621
   17      C      -2.1514574215     0.2007343367     1.2003260119
   18      C      -2.1543502030    -1.8989551418     0.0027353181
   19      C      -2.1536504367    -1.2002485078    -1.2020331642
   20      C      -2.1513499074     0.1950896686    -1.2021076447
   21      C      -2.1485676347     0.9160974487    -0.0045939680
   22      H      -2.1507310126     0.7308308699    -2.1459457533
   23      H      -2.1541670963    -1.7388202866    -2.1435179910
   24      C      -2.1404833256     2.4261880217    -0.0027379660
   25      H      -1.2628319334     2.8151864781     0.5227879351
   26      H      -3.0254599704     2.8263186485     0.5016148849
   27      H      -2.1254928081     2.8241078348    -1.0193274756
   28      H      -2.1550263270    -2.9831890548     0.0056711922
   29      H      -2.1544199094    -1.7276639488     2.1491769095
   30      H      -2.1510792828     0.7412450025     2.1418858644
 ----------------------------------------------------------------

   13    -543.3032234476      6.10E-09 Convergence criterion met
 Total energy in the final basis set = -543.30322345

                    Orbital Energies (a.u.)
 --------------------------------------------------------------

 Alpha MOs
 -- Occupied --
-10.181 -10.181 -10.171 -10.171 -10.171 -10.171 -10.169 -10.169
-10.169 -10.169 -10.169 -10.169 -10.168 -10.168  -0.856  -0.855
 -0.772  -0.771  -0.744  -0.743  -0.686  -0.685  -0.605  -0.604
 -0.584  -0.583  -0.512  -0.511  -0.461  -0.460  -0.454  -0.453
 -0.428  -0.420  -0.419  -0.417  -0.409  -0.408  -0.388  -0.386
 -0.360  -0.350  -0.343  -0.342  -0.340  -0.339  -0.256  -0.247
 -0.247  -0.239

          Ground-State Mulliken Net Atomic Charges

     Atom                 Charge (a.u.)
  ----------------------------------------
      1 C                    -0.219101
      2 C                    -0.213321
      3 C                    -0.270191
      4 C                    -0.271605
      5 C                    -0.244775
      6 C                     0.649329
      7 H                     0.155488
      8 H                     0.169877
      9 C                    -0.689569
     10 H                     0.151891
     11 H                     0.149376
     12 H                     0.140300
     13 H                     0.151172
     14 H                     0.165802
     15 H                     0.175102
     16 C                    -0.227992
     17 C                    -0.196459
     18 C                    -0.269814
     19 C                    -0.267476
     20 C                    -0.253790
     21 C                     0.651935
     22 H                     0.155300
     23 H                     0.170036
     24 C                    -0.693550
     25 H                     0.146743
     26 H                     0.152630
     27 H                     0.139851
     28 H                     0.151021
     29 H                     0.165687
     30 H                     0.176099
  ----------------------------------------
  Sum of atomic charges =     0.000000

                    Cartesian Multipole Moments
 -----------------------------------------------------------------
    Charge (ESU x 10^10)
                 0.0000
    Dipole Moment (Debye)
         X       0.0077      Y       0.6304      Z       0.0553
       Tot       0.6328
    Quadrupole Moments (Debye-Ang)
        XX     -94.2934     XY       0.0291     YY     -78.0946
        XZ      -0.0023     YZ       0.0667     ZZ     -78.5218

 Total job time:  99.37s(wall), 395.23s(cpu)
        *  Thank you very much for using Q-Chem.  Have a nice day.  *
