 Q-Chem 5.0, Q-Chem, Inc., Pleasanton, CA (2017)
 Q-Chem 5.0.1 for Intel X86 EM64T Linux

User input:
--------------------------------------------------------------
$molecule
0  1
--
0  1
C        -0.54444000        -0.68370000        -0.06689000
C        -0.55709000        +0.71878000        +0.05493000
C        -1.74320000        -1.41616000        -0.12552000
C        -2.93952000        -0.70056000        -0.05285000
C        -2.95313000        +0.68255000        +0.06934000
C        -1.77161000        +1.42404000        +0.12810000
H        -3.90354000        +1.20325000        +0.11710000
H        -3.87892000        -1.24211000        -0.08988000
C        -1.83960000        +2.92746000        +0.24839000
H        -1.24214000        +3.42352000        -0.52065000
H        -1.45503000        +3.26427000        +1.21284000
H        -2.87211000        +3.26623000        +0.14638000
H        -1.73878000        -2.44393000        -0.21875000
H        +0.35825000        -1.18166000        -0.11386000
H        +0.33551000        +1.23549000        +0.09097000
--
0  1
C        -0.73583000        -1.08409000        +5.51550000
C        -0.74848000        +0.31839000        +5.63732000
C        -1.93459000        -1.81655000        +5.45687000
C        -3.13091000        -1.10095000        +5.52954000
C        -3.14452000        +0.28216000        +5.65173000
C        -1.96300000        +1.02365000        +5.71049000
H        -4.09493000        +0.80286000        +5.69949000
H        -4.07031000        -1.64250000        +5.49251000
C        -2.03099000        +2.52707000        +5.83078000
H        -1.43353000        +3.02313000        +5.06174000
H        -1.64642000        +2.86388000        +6.79523000
H        -3.06350000        +2.86584000        +5.72877000
H        -1.93017000        -2.84432000        +5.36364000
H        +0.16686000        -1.58205000        +5.46853000
H        +0.14412000        +0.83510000        +5.67336000
$end

$rem
JOBTYPE                   SP
METHOD                    B3LYP
DFT_D                     d3_op
BASIS                     6-311++G(d,p)
SYMMETRY                  False
THRESH                    12
SCF_CONVERGENCE           8
MAX_SUB_FILE_NUM          128
MEM_STATIC                400
MEM_TOTAL                 4000
$end
--------------------------------------------------------------

             Standard Nuclear Orientation (Angstroms)
    I     Atom           X                Y                Z
 ----------------------------------------------------------------
    1      C       2.8820097409    -1.2080354683     1.1720146537
    2      C       2.8512634855     0.1991753220     1.1996324914
    3      C       2.8441758281    -1.9092522446    -0.0461086133
    4      C       2.7697208107    -1.1576008580    -1.2200006334
    5      C       2.7373067070     0.2303372955    -1.1938107870
    6      C       2.7748987782     0.9410480611     0.0073248057
    7      H       2.6849896651     0.7791566107    -2.1280211285
    8      H       2.7332937478    -1.6741760541    -2.1733857179
    9      C       2.7499982404     2.4503887327    -0.0178688612
   10      H       3.5732876335     2.8795067759     0.5587668792
   11      H       1.8259018091     2.8374053938     0.4154471356
   12      H       2.8318445311     2.8104166853    -1.0449662816
   13      H       2.8704563952    -2.9406077976    -0.0713593013
   14      H       2.9330817983    -1.7327974759     2.0591651815
   15      H       2.8851626745     0.6922042034     2.1056105445
   16      C      -2.7177606510    -1.2451344036     1.2068804278
   17      C      -2.7485069065     0.1620763866     1.2344982655
   18      C      -2.7555945639    -1.9463511799    -0.0112428392
   19      C      -2.8300495813    -1.1946997934    -1.1851348593
   20      C      -2.8624636849     0.1932383602    -1.1589450129
   21      C      -2.8248716138     0.9039491257     0.0421905798
   22      H      -2.9147807269     0.7420576753    -2.0931553544
   23      H      -2.8664766442    -1.7112749895    -2.1385199438
   24      C      -2.8497721516     2.4132897973     0.0169969129
   25      H      -2.0264827585     2.8424078406     0.5936326533
   26      H      -3.7738685829     2.8003064584     0.4503129097
   27      H      -2.7679258609     2.7733177499    -1.0101005075
   28      H      -2.7293139968    -2.9777067330    -0.0364935272
   29      H      -2.6666885937    -1.7698964113     2.0940309556
   30      H      -2.7146077175     0.6551052681     2.1404763186
 ----------------------------------------------------------------

   13    -543.2875194560      5.44E-09 Convergence criterion met
 Total energy in the final basis set = -543.28751946

                    Orbital Energies (a.u.)
 --------------------------------------------------------------

 Alpha MOs
 -- Occupied --
-10.183 -10.183 -10.171 -10.171 -10.169 -10.169 -10.168 -10.168
-10.168 -10.168 -10.167 -10.167 -10.167 -10.166  -0.855  -0.855
 -0.774  -0.773  -0.745  -0.745  -0.689  -0.689  -0.609  -0.608
 -0.588  -0.588  -0.519  -0.519  -0.463  -0.463  -0.460  -0.460
 -0.423  -0.422  -0.421  -0.420  -0.416  -0.416  -0.388  -0.388
 -0.355  -0.354  -0.348  -0.348  -0.340  -0.340  -0.252  -0.251
 -0.245  -0.244

          Ground-State Mulliken Net Atomic Charges

     Atom                 Charge (a.u.)
  ----------------------------------------
      1 C                    -0.030920
      2 C                    -0.426785
      3 C                    -0.335131
      4 C                    -0.070261
      5 C                    -0.705128
      6 C                     0.977144
      7 H                     0.137632
      8 H                     0.168764
      9 C                    -0.629135
     10 H                     0.146154
     11 H                     0.153975
     12 H                     0.146310
     13 H                     0.147667
     14 H                     0.158425
     15 H                     0.160569
     16 C                    -0.093126
     17 C                    -0.368251
     18 C                    -0.304734
     19 C                    -0.144547
     20 C                    -0.600933
     21 C                     0.914912
     22 H                     0.138855
     23 H                     0.169748
     24 C                    -0.630856
     25 H                     0.147776
     26 H                     0.158160
     27 H                     0.146987
     28 H                     0.148006
     29 H                     0.158877
     30 H                     0.159846
  ----------------------------------------
  Sum of atomic charges =    -0.000000

                    Cartesian Multipole Moments
 -----------------------------------------------------------------
    Charge (ESU x 10^10)
                -0.0000
    Dipole Moment (Debye)
         X      -0.0161      Y       0.6803      Z       0.1334
       Tot       0.6934
    Quadrupole Moments (Debye-Ang)
        XX     -93.8160     XY      -0.3418     YY     -77.0782
        XZ       0.6293     YZ       0.0768     ZZ     -78.3979

 Total job time:  83.71s(wall), 332.96s(cpu)
        *  Thank you very much for using Q-Chem.  Have a nice day.  *
