 Q-Chem 5.0, Q-Chem, Inc., Pleasanton, CA (2017)
 Q-Chem 5.0.1 for Intel X86 EM64T Linux

User input:
--------------------------------------------------------------
$molecule
0  1
C        -0.51485000        -1.05862000        +4.21663000
C        -0.52750000        +0.34386000        +4.33845000
C        -1.71361000        -1.79108000        +4.15800000
C        -2.90993000        -1.07548000        +4.23067000
C        -2.92354000        +0.30763000        +4.35286000
C        -1.74202000        +1.04912000        +4.41162000
H        -3.87395000        +0.82833000        +4.40062000
H        -3.84933000        -1.61703000        +4.19364000
C        -1.81001000        +2.55254000        +4.53191000
H        -1.21255000        +3.04860000        +3.76287000
H        -1.42544000        +2.88935000        +5.49636000
H        -2.84252000        +2.89131000        +4.42990000
H        -1.70919000        -2.81885000        +4.06477000
H        +0.38784000        -1.55658000        +4.16966000
H        +0.36510000        +0.86057000        +4.37449000
@C        -0.54444000        -0.68370000        -0.06689000
@C        -0.55709000        +0.71878000        +0.05493000
@C        -1.74320000        -1.41616000        -0.12552000
@C        -2.93952000        -0.70056000        -0.05285000
@C        -2.95313000        +0.68255000        +0.06934000
@C        -1.77161000        +1.42404000        +0.12810000
@H        -3.90354000        +1.20325000        +0.11710000
@H        -3.87892000        -1.24211000        -0.08988000
@C        -1.83960000        +2.92746000        +0.24839000
@H        -1.24214000        +3.42352000        -0.52065000
@H        -1.45503000        +3.26427000        +1.21284000
@H        -2.87211000        +3.26623000        +0.14638000
@H        -1.73878000        -2.44393000        -0.21875000
@H        +0.35825000        -1.18166000        -0.11386000
@H        +0.33551000        +1.23549000        +0.09097000
$end

$rem
JOBTYPE                   SP
METHOD                    B3LYP
DFT_D                     d3_op
BASIS                     6-311++G(d,p)
SYMMETRY                  False
THRESH                    12
SCF_CONVERGENCE           8
MAX_SUB_FILE_NUM          128
MEM_STATIC                400
MEM_TOTAL                 4000
$end
--------------------------------------------------------------

             Standard Nuclear Orientation (Angstroms)
    I     Atom           X                Y                Z
 ----------------------------------------------------------------
    1      C      -0.5148500000    -1.0586200000     4.2166300000
    2      C      -0.5275000000     0.3438600000     4.3384500000
    3      C      -1.7136100000    -1.7910800000     4.1580000000
    4      C      -2.9099300000    -1.0754800000     4.2306700000
    5      C      -2.9235400000     0.3076300000     4.3528600000
    6      C      -1.7420200000     1.0491200000     4.4116200000
    7      H      -3.8739500000     0.8283300000     4.4006200000
    8      H      -3.8493300000    -1.6170300000     4.1936400000
    9      C      -1.8100100000     2.5525400000     4.5319100000
   10      H      -1.2125500000     3.0486000000     3.7628700000
   11      H      -1.4254400000     2.8893500000     5.4963600000
   12      H      -2.8425200000     2.8913100000     4.4299000000
   13      H      -1.7091900000    -2.8188500000     4.0647700000
   14      H       0.3878400000    -1.5565800000     4.1696600000
   15      H       0.3651000000     0.8605700000     4.3744900000
   16      GH     -0.5444400000    -0.6837000000    -0.0668900000
   17      GH     -0.5570900000     0.7187800000     0.0549300000
   18      GH     -1.7432000000    -1.4161600000    -0.1255200000
   19      GH     -2.9395200000    -0.7005600000    -0.0528500000
   20      GH     -2.9531300000     0.6825500000     0.0693400000
   21      GH     -1.7716100000     1.4240400000     0.1281000000
   22      GH     -3.9035400000     1.2032500000     0.1171000000
   23      GH     -3.8789200000    -1.2421100000    -0.0898800000
   24      GH     -1.8396000000     2.9274600000     0.2483900000
   25      GH     -1.2421400000     3.4235200000    -0.5206500000
   26      GH     -1.4550300000     3.2642700000     1.2128400000
   27      GH     -2.8721100000     3.2662300000     0.1463800000
   28      GH     -1.7387800000    -2.4439300000    -0.2187500000
   29      GH      0.3582500000    -1.1816600000    -0.1138600000
   30      GH      0.3355100000     1.2354900000     0.0909700000
 ----------------------------------------------------------------

   12    -271.6439532297      9.88E-09 Convergence criterion met
 Total energy in the final basis set = -271.64395323

                    Orbital Energies (a.u.)
 --------------------------------------------------------------

 Alpha MOs
 -- Occupied --
-10.185 -10.174 -10.172 -10.171 -10.170 -10.169 -10.169  -0.858
 -0.776  -0.748  -0.691  -0.611  -0.591  -0.521  -0.465  -0.462
 -0.424  -0.423  -0.418  -0.390  -0.358  -0.350  -0.342  -0.255
 -0.248

          Ground-State Mulliken Net Atomic Charges

     Atom                 Charge (a.u.)
  ----------------------------------------
      1 C                    -0.232039
      2 C                    -0.200237
      3 C                    -0.287324
      4 C                    -0.253303
      5 C                    -0.235723
      6 C                     0.643085
      7 H                     0.155809
      8 H                     0.172277
      9 C                    -0.688147
     10 H                     0.154167
     11 H                     0.158656
     12 H                     0.138447
     13 H                     0.146052
     14 H                     0.162236
     15 H                     0.172340
     16 GH                   -0.005902
     17 GH                   -0.020582
     18 GH                    0.014941
     19 GH                   -0.021528
     20 GH                    0.001736
     21 GH                   -0.002794
     22 GH                    0.002083
     23 GH                    0.000887
     24 GH                    0.018484
     25 GH                   -0.000234
     26 GH                   -0.000219
     27 GH                    0.001619
     28 GH                    0.003082
     29 GH                    0.002190
     30 GH                   -0.000059
  ----------------------------------------
  Sum of atomic charges =    -0.000000

                    Cartesian Multipole Moments
 -----------------------------------------------------------------
    Charge (ESU x 10^10)
                 0.0000
    Dipole Moment (Debye)
         X       0.0617      Y       0.3883      Z       0.0382
       Tot       0.3950
    Quadrupole Moments (Debye-Ang)
        XX     -39.3786     XY      -0.6424     YY     -38.3909
        XZ       0.1727     YZ       2.3699     ZZ     -46.0719

 Total job time:  85.92s(wall), 342.58s(cpu)
        *  Thank you very much for using Q-Chem.  Have a nice day.  *
