 Q-Chem 5.0, Q-Chem, Inc., Pleasanton, CA (2017)
 Q-Chem 5.0.1 for Intel X86 EM64T Linux

User input:
--------------------------------------------------------------
$molecule
0  1
C        -0.73583000        -1.08409000        +5.51550000
C        -0.74848000        +0.31839000        +5.63732000
C        -1.93459000        -1.81655000        +5.45687000
C        -3.13091000        -1.10095000        +5.52954000
C        -3.14452000        +0.28216000        +5.65173000
C        -1.96300000        +1.02365000        +5.71049000
H        -4.09493000        +0.80286000        +5.69949000
H        -4.07031000        -1.64250000        +5.49251000
C        -2.03099000        +2.52707000        +5.83078000
H        -1.43353000        +3.02313000        +5.06174000
H        -1.64642000        +2.86388000        +6.79523000
H        -3.06350000        +2.86584000        +5.72877000
H        -1.93017000        -2.84432000        +5.36364000
H        +0.16686000        -1.58205000        +5.46853000
H        +0.14412000        +0.83510000        +5.67336000
@C        -0.54444000        -0.68370000        -0.06689000
@C        -0.55709000        +0.71878000        +0.05493000
@C        -1.74320000        -1.41616000        -0.12552000
@C        -2.93952000        -0.70056000        -0.05285000
@C        -2.95313000        +0.68255000        +0.06934000
@C        -1.77161000        +1.42404000        +0.12810000
@H        -3.90354000        +1.20325000        +0.11710000
@H        -3.87892000        -1.24211000        -0.08988000
@C        -1.83960000        +2.92746000        +0.24839000
@H        -1.24214000        +3.42352000        -0.52065000
@H        -1.45503000        +3.26427000        +1.21284000
@H        -2.87211000        +3.26623000        +0.14638000
@H        -1.73878000        -2.44393000        -0.21875000
@H        +0.35825000        -1.18166000        -0.11386000
@H        +0.33551000        +1.23549000        +0.09097000
$end

$rem
JOBTYPE                   SP
METHOD                    B3LYP
DFT_D                     d3_op
BASIS                     6-311++G(d,p)
SYMMETRY                  False
THRESH                    12
SCF_CONVERGENCE           8
MAX_SUB_FILE_NUM          128
MEM_STATIC                400
MEM_TOTAL                 4000
$end
--------------------------------------------------------------

             Standard Nuclear Orientation (Angstroms)
    I     Atom           X                Y                Z
 ----------------------------------------------------------------
    1      C      -0.7358300000    -1.0840900000     5.5155000000
    2      C      -0.7484800000     0.3183900000     5.6373200000
    3      C      -1.9345900000    -1.8165500000     5.4568700000
    4      C      -3.1309100000    -1.1009500000     5.5295400000
    5      C      -3.1445200000     0.2821600000     5.6517300000
    6      C      -1.9630000000     1.0236500000     5.7104900000
    7      H      -4.0949300000     0.8028600000     5.6994900000
    8      H      -4.0703100000    -1.6425000000     5.4925100000
    9      C      -2.0309900000     2.5270700000     5.8307800000
   10      H      -1.4335300000     3.0231300000     5.0617400000
   11      H      -1.6464200000     2.8638800000     6.7952300000
   12      H      -3.0635000000     2.8658400000     5.7287700000
   13      H      -1.9301700000    -2.8443200000     5.3636400000
   14      H       0.1668600000    -1.5820500000     5.4685300000
   15      H       0.1441200000     0.8351000000     5.6733600000
   16      GH     -0.5444400000    -0.6837000000    -0.0668900000
   17      GH     -0.5570900000     0.7187800000     0.0549300000
   18      GH     -1.7432000000    -1.4161600000    -0.1255200000
   19      GH     -2.9395200000    -0.7005600000    -0.0528500000
   20      GH     -2.9531300000     0.6825500000     0.0693400000
   21      GH     -1.7716100000     1.4240400000     0.1281000000
   22      GH     -3.9035400000     1.2032500000     0.1171000000
   23      GH     -3.8789200000    -1.2421100000    -0.0898800000
   24      GH     -1.8396000000     2.9274600000     0.2483900000
   25      GH     -1.2421400000     3.4235200000    -0.5206500000
   26      GH     -1.4550300000     3.2642700000     1.2128400000
   27      GH     -2.8721100000     3.2662300000     0.1463800000
   28      GH     -1.7387800000    -2.4439300000    -0.2187500000
   29      GH      0.3582500000    -1.1816600000    -0.1138600000
   30      GH      0.3355100000     1.2354900000     0.0909700000
 ----------------------------------------------------------------

   12    -271.6436302618      9.59E-09 Convergence criterion met
 Total energy in the final basis set = -271.64363026

                    Orbital Energies (a.u.)
 --------------------------------------------------------------

 Alpha MOs
 -- Occupied --
-10.185 -10.174 -10.172 -10.171 -10.170 -10.169 -10.169  -0.858
 -0.776  -0.747  -0.691  -0.611  -0.591  -0.521  -0.465  -0.462
 -0.424  -0.423  -0.418  -0.390  -0.358  -0.350  -0.342  -0.255
 -0.247

          Ground-State Mulliken Net Atomic Charges

     Atom                 Charge (a.u.)
  ----------------------------------------
      1 C                    -0.093925
      2 C                    -0.371913
      3 C                    -0.314804
      4 C                    -0.139352
      5 C                    -0.591815
      6 C                     0.902242
      7 H                     0.141402
      8 H                     0.172209
      9 C                    -0.628003
     10 H                     0.150596
     11 H                     0.158756
     12 H                     0.147458
     13 H                     0.149228
     14 H                     0.161300
     15 H                     0.162297
     16 GH                   -0.005268
     17 GH                    0.007717
     18 GH                    0.007126
     19 GH                   -0.005017
     20 GH                   -0.008143
     21 GH                   -0.002426
     22 GH                   -0.000985
     23 GH                   -0.000248
     24 GH                    0.002729
     25 GH                   -0.000118
     26 GH                   -0.000906
     27 GH                    0.000380
     28 GH                    0.000620
     29 GH                   -0.000723
     30 GH                   -0.000415
  ----------------------------------------
  Sum of atomic charges =     0.000000

                    Cartesian Multipole Moments
 -----------------------------------------------------------------
    Charge (ESU x 10^10)
                 0.0000
    Dipole Moment (Debye)
         X       0.0621      Y       0.3869      Z       0.0294
       Tot       0.3930
    Quadrupole Moments (Debye-Ang)
        XX     -39.3759     XY      -0.7290     YY     -38.3815
        XZ       0.2615     YZ       2.8778     ZZ     -46.0837

 Total job time:  73.95s(wall), 293.93s(cpu)
        *  Thank you very much for using Q-Chem.  Have a nice day.  *
