 Q-Chem 5.0, Q-Chem, Inc., Pleasanton, CA (2017)
 Q-Chem 5.0.1 for Intel X86 EM64T Linux

User input:
--------------------------------------------------------------
$molecule
0  1
--
0  1
C        -0.54444000        -0.68370000        -0.06689000
C        -0.55709000        +0.71878000        +0.05493000
C        -1.74320000        -1.41616000        -0.12552000
C        -2.93952000        -0.70056000        -0.05285000
C        -2.95313000        +0.68255000        +0.06934000
C        -1.77161000        +1.42404000        +0.12810000
H        -3.90354000        +1.20325000        +0.11710000
H        -3.87892000        -1.24211000        -0.08988000
C        -1.83960000        +2.92746000        +0.24839000
H        -1.24214000        +3.42352000        -0.52065000
H        -1.45503000        +3.26427000        +1.21284000
H        -2.87211000        +3.26623000        +0.14638000
H        -1.73878000        -2.44393000        -0.21875000
H        +0.35825000        -1.18166000        -0.11386000
H        +0.33551000        +1.23549000        +0.09097000
--
0  1
C        -0.50590000        -1.17197000        +5.51165000
C        -0.51855000        +0.23051000        +5.63347000
C        -1.70466000        -1.90443000        +5.45302000
C        -2.90098000        -1.18883000        +5.52569000
C        -2.91459000        +0.19428000        +5.64788000
C        -1.73307000        +0.93577000        +5.70664000
H        -3.86500000        +0.71498000        +5.69564000
H        -3.84038000        -1.73038000        +5.48866000
C        -1.80106000        +2.43919000        +5.82693000
H        -1.20360000        +2.93525000        +5.05789000
H        -1.41649000        +2.77600000        +6.79138000
H        -2.83357000        +2.77796000        +5.72492000
H        -1.70024000        -2.93220000        +5.35979000
H        +0.39679000        -1.66993000        +5.46468000
H        +0.37405000        +0.74722000        +5.66951000
$end

$rem
JOBTYPE                   SP
METHOD                    B3LYP
DFT_D                     d3_op
BASIS                     6-311++G(d,p)
SYMMETRY                  False
THRESH                    12
SCF_CONVERGENCE           8
MAX_SUB_FILE_NUM          128
MEM_STATIC                400
MEM_TOTAL                 4000
$end
--------------------------------------------------------------

             Standard Nuclear Orientation (Angstroms)
    I     Atom           X                Y                Z
 ----------------------------------------------------------------
    1      C       2.7966427496    -1.2307269767     1.1901413875
    2      C       2.7986533140     0.1768031167     1.2185188268
    3      C       2.7989828335    -1.9302730417    -0.0295268023
    4      C       2.7977918798    -1.1765102618    -1.2044251317
    5      C       2.7977380546     0.2117938777    -1.1775827469
    6      C       2.7961817582     0.9208446581     0.0251201411
    7      H       2.8025236690     0.7621400152    -2.1123473711
    8      H       2.7935964030    -1.6916222653    -2.1592874282
    9      C       2.8089722323     2.4303569221     0.0011796052
   10      H       3.6144726842     2.8391536380     0.6164118896
   11      H       1.8752133115     2.8394414308     0.3913629032
   12      H       2.9475237858     2.7887602177    -1.0203871316
   13      H       2.8014851506    -2.9619510748    -0.0551532850
   14      H       2.7933999691    -1.7569715107     2.0778776959
   15      H       2.8019763534     0.6684582858     2.1258704774
   16      C      -2.8033559807    -1.2267725168     1.1899454103
   17      C      -2.8013454164     0.1807575766     1.2183228497
   18      C      -2.8010158968    -1.9263185818    -0.0297227794
   19      C      -2.8022068505    -1.1725558019    -1.2046211089
   20      C      -2.8022606757     0.2157483376    -1.1777787240
   21      C      -2.8038169722     0.9247991180     0.0249241640
   22      H      -2.7974750614     0.7660944751    -2.1125433482
   23      H      -2.8064023274    -1.6876678055    -2.1594834053
   24      C      -2.7910264981     2.4343113820     0.0009836281
   25      H      -1.9855260461     2.8431080978     0.6162159125
   26      H      -3.7247854188     2.8433958907     0.3911669261
   27      H      -2.6524749445     2.7927146776    -1.0205831088
   28      H      -2.7985135798    -2.9579966149    -0.0553492622
   29      H      -2.8065987612    -1.7530170508     2.0776817188
   30      H      -2.7980223769     0.6724127456     2.1256745003
 ----------------------------------------------------------------

   13    -543.2875265261      5.02E-09 Convergence criterion met
 Total energy in the final basis set = -543.28752653

                    Orbital Energies (a.u.)
 --------------------------------------------------------------

 Alpha MOs
 -- Occupied --
-10.183 -10.183 -10.171 -10.171 -10.169 -10.169 -10.168 -10.168
-10.168 -10.168 -10.167 -10.167 -10.167 -10.166  -0.855  -0.855
 -0.773  -0.773  -0.745  -0.745  -0.689  -0.689  -0.608  -0.608
 -0.588  -0.588  -0.519  -0.519  -0.463  -0.463  -0.460  -0.460
 -0.423  -0.422  -0.421  -0.420  -0.416  -0.416  -0.388  -0.388
 -0.355  -0.354  -0.348  -0.348  -0.340  -0.340  -0.252  -0.251
 -0.245  -0.244

          Ground-State Mulliken Net Atomic Charges

     Atom                 Charge (a.u.)
  ----------------------------------------
      1 C                    -0.033779
      2 C                    -0.422851
      3 C                    -0.331241
      4 C                    -0.073116
      5 C                    -0.703572
      6 C                     0.967194
      7 H                     0.138214
      8 H                     0.168666
      9 C                    -0.623145
     10 H                     0.146428
     11 H                     0.154353
     12 H                     0.146187
     13 H                     0.147698
     14 H                     0.158182
     15 H                     0.160314
     16 C                    -0.090584
     17 C                    -0.383925
     18 C                    -0.305694
     19 C                    -0.144575
     20 C                    -0.589028
     21 C                     0.917647
     22 H                     0.139163
     23 H                     0.169195
     24 C                    -0.631008
     25 H                     0.147877
     26 H                     0.158053
     27 H                     0.146350
     28 H                     0.147976
     29 H                     0.159283
     30 H                     0.159739
  ----------------------------------------
  Sum of atomic charges =    -0.000000

                    Cartesian Multipole Moments
 -----------------------------------------------------------------
    Charge (ESU x 10^10)
                -0.0000
    Dipole Moment (Debye)
         X      -0.0042      Y       0.6801      Z       0.1341
       Tot       0.6932
    Quadrupole Moments (Debye-Ang)
        XX     -93.8532     XY       0.0391     YY     -77.0713
        XZ      -0.0302     YZ       0.0639     ZZ     -78.3674

 Total job time:  82.52s(wall), 328.98s(cpu)
        *  Thank you very much for using Q-Chem.  Have a nice day.  *
