 Q-Chem 5.0, Q-Chem, Inc., Pleasanton, CA (2017)
 Q-Chem 5.0.1 for Intel X86 EM64T Linux

User input:
--------------------------------------------------------------
$molecule
0  1
C        -0.54444000        -0.68370000        -0.06689000
C        -0.55709000        +0.71878000        +0.05493000
C        -1.74320000        -1.41616000        -0.12552000
C        -2.93952000        -0.70056000        -0.05285000
C        -2.95313000        +0.68255000        +0.06934000
C        -1.77161000        +1.42404000        +0.12810000
H        -3.90354000        +1.20325000        +0.11710000
H        -3.87892000        -1.24211000        -0.08988000
C        -1.83960000        +2.92746000        +0.24839000
H        -1.24214000        +3.42352000        -0.52065000
H        -1.45503000        +3.26427000        +1.21284000
H        -2.87211000        +3.26623000        +0.14638000
H        -1.73878000        -2.44393000        -0.21875000
H        +0.35825000        -1.18166000        -0.11386000
H        +0.33551000        +1.23549000        +0.09097000
@C        -0.50590000        -1.17197000        +5.51165000
@C        -0.51855000        +0.23051000        +5.63347000
@C        -1.70466000        -1.90443000        +5.45302000
@C        -2.90098000        -1.18883000        +5.52569000
@C        -2.91459000        +0.19428000        +5.64788000
@C        -1.73307000        +0.93577000        +5.70664000
@H        -3.86500000        +0.71498000        +5.69564000
@H        -3.84038000        -1.73038000        +5.48866000
@C        -1.80106000        +2.43919000        +5.82693000
@H        -1.20360000        +2.93525000        +5.05789000
@H        -1.41649000        +2.77600000        +6.79138000
@H        -2.83357000        +2.77796000        +5.72492000
@H        -1.70024000        -2.93220000        +5.35979000
@H        +0.39679000        -1.66993000        +5.46468000
@H        +0.37405000        +0.74722000        +5.66951000
$end

$rem
JOBTYPE                   SP
METHOD                    B3LYP
DFT_D                     d3_op
BASIS                     6-311++G(d,p)
SYMMETRY                  False
THRESH                    12
SCF_CONVERGENCE           8
MAX_SUB_FILE_NUM          128
MEM_STATIC                400
MEM_TOTAL                 4000
$end
--------------------------------------------------------------

             Standard Nuclear Orientation (Angstroms)
    I     Atom           X                Y                Z
 ----------------------------------------------------------------
    1      C      -0.5444400000    -0.6837000000    -0.0668900000
    2      C      -0.5570900000     0.7187800000     0.0549300000
    3      C      -1.7432000000    -1.4161600000    -0.1255200000
    4      C      -2.9395200000    -0.7005600000    -0.0528500000
    5      C      -2.9531300000     0.6825500000     0.0693400000
    6      C      -1.7716100000     1.4240400000     0.1281000000
    7      H      -3.9035400000     1.2032500000     0.1171000000
    8      H      -3.8789200000    -1.2421100000    -0.0898800000
    9      C      -1.8396000000     2.9274600000     0.2483900000
   10      H      -1.2421400000     3.4235200000    -0.5206500000
   11      H      -1.4550300000     3.2642700000     1.2128400000
   12      H      -2.8721100000     3.2662300000     0.1463800000
   13      H      -1.7387800000    -2.4439300000    -0.2187500000
   14      H       0.3582500000    -1.1816600000    -0.1138600000
   15      H       0.3355100000     1.2354900000     0.0909700000
   16      GH     -0.5059000000    -1.1719700000     5.5116500000
   17      GH     -0.5185500000     0.2305100000     5.6334700000
   18      GH     -1.7046600000    -1.9044300000     5.4530200000
   19      GH     -2.9009800000    -1.1888300000     5.5256900000
   20      GH     -2.9145900000     0.1942800000     5.6478800000
   21      GH     -1.7330700000     0.9357700000     5.7066400000
   22      GH     -3.8650000000     0.7149800000     5.6956400000
   23      GH     -3.8403800000    -1.7303800000     5.4886600000
   24      GH     -1.8010600000     2.4391900000     5.8269300000
   25      GH     -1.2036000000     2.9352500000     5.0578900000
   26      GH     -1.4164900000     2.7760000000     6.7913800000
   27      GH     -2.8335700000     2.7779600000     5.7249200000
   28      GH     -1.7002400000    -2.9322000000     5.3597900000
   29      GH      0.3967900000    -1.6699300000     5.4646800000
   30      GH      0.3740500000     0.7472200000     5.6695100000
 ----------------------------------------------------------------

   12    -271.6436202568      9.64E-09 Convergence criterion met
 Total energy in the final basis set = -271.64362026

                    Orbital Energies (a.u.)
 --------------------------------------------------------------

 Alpha MOs
 -- Occupied --
-10.185 -10.174 -10.172 -10.171 -10.170 -10.169 -10.169  -0.858
 -0.776  -0.747  -0.691  -0.611  -0.591  -0.521  -0.465  -0.462
 -0.424  -0.423  -0.418  -0.390  -0.358  -0.350  -0.342  -0.255
 -0.247

          Ground-State Mulliken Net Atomic Charges

     Atom                 Charge (a.u.)
  ----------------------------------------
      1 C                    -0.034255
      2 C                    -0.424103
      3 C                    -0.341523
      4 C                    -0.068500
      5 C                    -0.696490
      6 C                     0.954839
      7 H                     0.140942
      8 H                     0.171109
      9 C                    -0.621211
     10 H                     0.147068
     11 H                     0.158132
     12 H                     0.146409
     13 H                     0.148798
     14 H                     0.160809
     15 H                     0.163056
     16 GH                   -0.002975
     17 GH                    0.008963
     18 GH                    0.007137
     19 GH                   -0.005853
     20 GH                   -0.010572
     21 GH                    0.000359
     22 GH                   -0.000947
     23 GH                   -0.000339
     24 GH                   -0.001189
     25 GH                    0.000037
     26 GH                   -0.000097
     27 GH                    0.000700
     28 GH                    0.000557
     29 GH                   -0.000504
     30 GH                   -0.000359
  ----------------------------------------
  Sum of atomic charges =     0.000000

                    Cartesian Multipole Moments
 -----------------------------------------------------------------
    Charge (ESU x 10^10)
                 0.0000
    Dipole Moment (Debye)
         X       0.0622      Y       0.3870      Z       0.0403
       Tot       0.3940
    Quadrupole Moments (Debye-Ang)
        XX     -39.3536     XY      -0.6300     YY     -38.0717
        XZ      -0.1017     YZ       0.7286     ZZ     -46.4106

 Total job time:  73.73s(wall), 293.76s(cpu)
        *  Thank you very much for using Q-Chem.  Have a nice day.  *
