 Q-Chem 5.0, Q-Chem, Inc., Pleasanton, CA (2017)
 Q-Chem 5.0.1 for Intel X86 EM64T Linux

User input:
--------------------------------------------------------------
$molecule
0  1
--
0  1
C        -0.54444000        -0.68370000        -0.06689000
C        -0.55709000        +0.71878000        +0.05493000
C        -1.74320000        -1.41616000        -0.12552000
C        -2.93952000        -0.70056000        -0.05285000
C        -2.95313000        +0.68255000        +0.06934000
C        -1.77161000        +1.42404000        +0.12810000
H        -3.90354000        +1.20325000        +0.11710000
H        -3.87892000        -1.24211000        -0.08988000
C        -1.83960000        +2.92746000        +0.24839000
H        -1.24214000        +3.42352000        -0.52065000
H        -1.45503000        +3.26427000        +1.21284000
H        -2.87211000        +3.26623000        +0.14638000
H        -1.73878000        -2.44393000        -0.21875000
H        +0.35825000        -1.18166000        -0.11386000
H        +0.33551000        +1.23549000        +0.09097000
--
0  1
C        -0.69140000        -0.99114000        +4.21959000
C        -0.70405000        +0.41134000        +4.34141000
C        -1.89016000        -1.72360000        +4.16096000
C        -3.08648000        -1.00800000        +4.23363000
C        -3.10009000        +0.37511000        +4.35582000
C        -1.91857000        +1.11660000        +4.41458000
H        -4.05050000        +0.89581000        +4.40358000
H        -4.02588000        -1.54955000        +4.19660000
C        -1.98656000        +2.62002000        +4.53487000
H        -1.38910000        +3.11608000        +3.76583000
H        -1.60199000        +2.95683000        +5.49932000
H        -3.01907000        +2.95879000        +4.43286000
H        -1.88574000        -2.75137000        +4.06773000
H        +0.21129000        -1.48910000        +4.17262000
H        +0.18855000        +0.92805000        +4.37745000
$end

$rem
JOBTYPE                   SP
METHOD                    B3LYP
DFT_D                     d3_op
BASIS                     6-311++G(d,p)
SYMMETRY                  False
THRESH                    12
SCF_CONVERGENCE           8
MAX_SUB_FILE_NUM          128
MEM_STATIC                400
MEM_TOTAL                 4000
$end
--------------------------------------------------------------

             Standard Nuclear Orientation (Angstroms)
    I     Atom           X                Y                Z
 ----------------------------------------------------------------
    1      C       2.2499685772    -1.1908602106     1.1637780627
    2      C       2.2060473116     0.2160028632     1.1913007680
    3      C       2.2119635698    -1.8926994347    -0.0539813507
    4      C       2.1238232279    -1.1420718803    -1.2275806802
    5      C       2.0784088064     0.2455032770    -1.2014729531
    6      C       2.1159869832     0.9568296516    -0.0007013938
    7      H       2.0156678878     0.7935757195    -2.1354798324
    8      H       2.0869571979    -1.6592002547    -2.1806489483
    9      C       2.0766480125     2.4658605815    -0.0260414529
   10      H       2.8990490373     2.9028978236     0.5458951696
   11      H       1.1513658429     2.8442115568     0.4123673856
   12      H       2.1493310632     2.8263984539    -1.0536491942
   13      H       2.2478719440    -2.9237658715    -0.0791832088
   14      H       2.3109733354    -1.7148996367     2.0507282744
   15      H       2.2403434065     0.7095505327     2.0969813637
   16      C      -2.0491769686    -1.2600665070     1.2146253824
   17      C      -2.0930982343     0.1467965668     1.2421480876
   18      C      -2.0871819761    -1.9619057311    -0.0031340311
   19      C      -2.1753223179    -1.2112781767    -1.1767333605
   20      C      -2.2207367394     0.1762969806    -1.1506256335
   21      C      -2.1831585627     0.8876233552     0.0501459258
   22      H      -2.2834776580     0.7243694232    -2.0846325128
   23      H      -2.2121883480    -1.7284065510    -2.1298016286
   24      C      -2.2224975334     2.3966542851     0.0248058667
   25      H      -1.4000965086     2.8336915272     0.5967424893
   26      H      -3.1477797029     2.7750052604     0.4632147052
   27      H      -2.1498144826     2.7571921575    -1.0028018745
   28      H      -2.0512736018    -2.9929721679    -0.0283358892
   29      H      -1.9881722105    -1.7841059331     2.1015755941
   30      H      -2.0588021394     0.6403442363     2.1478286833
 ----------------------------------------------------------------

   13    -543.2896535851      9.04E-09 Convergence criterion met
 Total energy in the final basis set = -543.28965359

                    Orbital Energies (a.u.)
 --------------------------------------------------------------

 Alpha MOs
 -- Occupied --
-10.181 -10.181 -10.169 -10.169 -10.168 -10.168 -10.168 -10.168
-10.167 -10.166 -10.165 -10.165 -10.165 -10.165  -0.854  -0.853
 -0.773  -0.772  -0.743  -0.743  -0.689  -0.688  -0.607  -0.607
 -0.587  -0.586  -0.518  -0.517  -0.462  -0.461  -0.459  -0.458
 -0.427  -0.419  -0.419  -0.417  -0.415  -0.414  -0.388  -0.387
 -0.358  -0.349  -0.347  -0.346  -0.339  -0.338  -0.254  -0.247
 -0.245  -0.239

          Ground-State Mulliken Net Atomic Charges

     Atom                 Charge (a.u.)
  ----------------------------------------
      1 C                    -0.216210
      2 C                    -0.270628
      3 C                    -0.244618
      4 C                    -0.264389
      5 C                    -0.267598
      6 C                     0.727255
      7 H                     0.151478
      8 H                     0.164587
      9 C                    -0.696395
     10 H                     0.147177
     11 H                     0.153815
     12 H                     0.142693
     13 H                     0.146061
     14 H                     0.156874
     15 H                     0.164674
     16 C                    -0.219192
     17 C                    -0.196368
     18 C                    -0.259048
     19 C                    -0.280847
     20 C                    -0.272851
     21 C                     0.661927
     22 H                     0.150475
     23 H                     0.170239
     24 C                    -0.661271
     25 H                     0.143490
     26 H                     0.157517
     27 H                     0.138460
     28 H                     0.143125
     29 H                     0.159943
     30 H                     0.169623
  ----------------------------------------
  Sum of atomic charges =     0.000000

                    Cartesian Multipole Moments
 -----------------------------------------------------------------
    Charge (ESU x 10^10)
                 0.0000
    Dipole Moment (Debye)
         X      -0.0245      Y       0.6031      Z       0.1178
       Tot       0.6150
    Quadrupole Moments (Debye-Ang)
        XX     -94.0726     XY      -0.4925     YY     -77.4681
        XZ       0.6941     YZ       0.0474     ZZ     -78.6121

 Total job time:  98.10s(wall), 390.45s(cpu)
        *  Thank you very much for using Q-Chem.  Have a nice day.  *
