 Q-Chem 5.0, Q-Chem, Inc., Pleasanton, CA (2017)
 Q-Chem 5.0.1 for Intel X86 EM64T Linux

User input:
--------------------------------------------------------------
$molecule
0  1
C        -0.54564000        -1.08694000        +4.20466000
C        -0.55961000        +0.29782000        +4.33818000
C        -1.73743000        -1.82128000        +4.14758000
C        -2.93938000        -1.11526000        +4.22399000
C        -2.95354000        +0.27339000        +4.35729000
C        -1.76623000        +1.00549000        +4.41462000
H        -3.90488000        +0.79303000        +4.41604000
H        -3.87974000        -1.65612000        +4.17988000
C        -1.77656000        +2.51072000        +4.52959000
C        -1.71842000        -3.32727000        +4.03370000
H        -0.99270000        -3.66323000        +3.28775000
H        -2.69822000        -3.71738000        +3.74905000
H        -1.44323000        -3.79078000        +4.98735000
H        -1.50116000        +2.97926000        +3.57863000
H        -1.06329000        +2.85853000        +5.28218000
H        -2.76575000        +2.88207000        +4.80622000
H        +0.40491000        -1.60846000        +4.14495000
H        +0.38066000        +0.83897000        +4.38242000
@C        -0.58454000        -0.67556000        -0.07544000
@C        -0.59851000        +0.70920000        +0.05808000
@C        -1.77633000        -1.40990000        -0.13252000
@C        -2.97828000        -0.70388000        -0.05611000
@C        -2.99244000        +0.68477000        +0.07719000
@C        -1.80513000        +1.41687000        +0.13452000
@H        -3.94378000        +1.20441000        +0.13594000
@H        -3.91864000        -1.24474000        -0.10022000
@C        -1.81546000        +2.92210000        +0.24949000
@C        -1.75732000        -2.91589000        -0.24640000
@H        -1.03160000        -3.25185000        -0.99235000
@H        -2.73712000        -3.30600000        -0.53105000
@H        -1.48213000        -3.37940000        +0.70725000
@H        -1.54006000        +3.39064000        -0.70147000
@H        -1.10219000        +3.26991000        +1.00208000
@H        -2.80465000        +3.29345000        +0.52612000
@H        +0.36601000        -1.19708000        -0.13515000
@H        +0.34176000        +1.25035000        +0.10232000
$end

$rem
JOBTYPE                   SP
METHOD                    B3LYP
DFT_D                     d3_op
BASIS                     6-311++G(d,p)
SYMMETRY                  False
THRESH                    12
SCF_CONVERGENCE           8
MAX_SUB_FILE_NUM          128
MEM_STATIC                400
MEM_TOTAL                 4000
$end
--------------------------------------------------------------

             Standard Nuclear Orientation (Angstroms)
    I     Atom           X                Y                Z
 ----------------------------------------------------------------
    1      C      -0.5456400000    -1.0869400000     4.2046600000
    2      C      -0.5596100000     0.2978200000     4.3381800000
    3      C      -1.7374300000    -1.8212800000     4.1475800000
    4      C      -2.9393800000    -1.1152600000     4.2239900000
    5      C      -2.9535400000     0.2733900000     4.3572900000
    6      C      -1.7662300000     1.0054900000     4.4146200000
    7      H      -3.9048800000     0.7930300000     4.4160400000
    8      H      -3.8797400000    -1.6561200000     4.1798800000
    9      C      -1.7765600000     2.5107200000     4.5295900000
   10      C      -1.7184200000    -3.3272700000     4.0337000000
   11      H      -0.9927000000    -3.6632300000     3.2877500000
   12      H      -2.6982200000    -3.7173800000     3.7490500000
   13      H      -1.4432300000    -3.7907800000     4.9873500000
   14      H      -1.5011600000     2.9792600000     3.5786300000
   15      H      -1.0632900000     2.8585300000     5.2821800000
   16      H      -2.7657500000     2.8820700000     4.8062200000
   17      H       0.4049100000    -1.6084600000     4.1449500000
   18      H       0.3806600000     0.8389700000     4.3824200000
   19      GH     -0.5845400000    -0.6755600000    -0.0754400000
   20      GH     -0.5985100000     0.7092000000     0.0580800000
   21      GH     -1.7763300000    -1.4099000000    -0.1325200000
   22      GH     -2.9782800000    -0.7038800000    -0.0561100000
   23      GH     -2.9924400000     0.6847700000     0.0771900000
   24      GH     -1.8051300000     1.4168700000     0.1345200000
   25      GH     -3.9437800000     1.2044100000     0.1359400000
   26      GH     -3.9186400000    -1.2447400000    -0.1002200000
   27      GH     -1.8154600000     2.9221000000     0.2494900000
   28      GH     -1.7573200000    -2.9158900000    -0.2464000000
   29      GH     -1.0316000000    -3.2518500000    -0.9923500000
   30      GH     -2.7371200000    -3.3060000000    -0.5310500000
   31      GH     -1.4821300000    -3.3794000000     0.7072500000
   32      GH     -1.5400600000     3.3906400000    -0.7014700000
   33      GH     -1.1021900000     3.2699100000     1.0020800000
   34      GH     -2.8046500000     3.2934500000     0.5261200000
   35      GH      0.3660100000    -1.1970800000    -0.1351500000
   36      GH      0.3417600000     1.2503500000     0.1023200000
 ----------------------------------------------------------------

   13    -310.9813143424      1.15E-09 Convergence criterion met
 Total energy in the final basis set = -310.98131434

                    Orbital Energies (a.u.)
 --------------------------------------------------------------

 Alpha MOs
 -- Occupied --
-10.180 -10.180 -10.171 -10.170 -10.170 -10.170 -10.167 -10.167
 -0.860  -0.787  -0.744  -0.721  -0.657  -0.609  -0.575  -0.494
 -0.473  -0.453  -0.425  -0.419  -0.417  -0.402  -0.398  -0.375
 -0.347  -0.342  -0.337  -0.254  -0.237

          Ground-State Mulliken Net Atomic Charges

     Atom                 Charge (a.u.)
  ----------------------------------------
      1 C                    -0.334181
      2 C                    -0.375036
      3 C                     0.653038
      4 C                    -0.352405
      5 C                    -0.474076
      6 C                     0.612355
      7 H                     0.167374
      8 H                     0.160178
      9 C                    -0.690958
     10 C                    -0.599039
     11 H                     0.140723
     12 H                     0.137360
     13 H                     0.163106
     14 H                     0.176855
     15 H                     0.142185
     16 H                     0.138084
     17 H                     0.174279
     18 H                     0.177783
     19 GH                   -0.012993
     20 GH                    0.007209
     21 GH                   -0.045781
     22 GH                    0.019633
     23 GH                   -0.006335
     24 GH                   -0.021995
     25 GH                    0.001303
     26 GH                    0.002573
     27 GH                    0.014337
     28 GH                    0.017345
     29 GH                   -0.000394
     30 GH                   -0.000063
     31 GH                    0.006197
     32 GH                   -0.000742
     33 GH                   -0.001872
     34 GH                    0.000790
     35 GH                    0.000979
     36 GH                    0.002185
  ----------------------------------------
  Sum of atomic charges =     0.000000

                    Cartesian Multipole Moments
 -----------------------------------------------------------------
    Charge (ESU x 10^10)
                 0.0000
    Dipole Moment (Debye)
         X       0.0596      Y       0.0004      Z       0.0003
       Tot       0.0596
    Quadrupole Moments (Debye-Ang)
        XX     -46.3050     XY      -0.0301     YY     -44.8150
        XZ       0.1994     YZ       0.6200     ZZ     -52.7476

 Total job time:  172.13s(wall), 683.44s(cpu)
        *  Thank you very much for using Q-Chem.  Have a nice day.  *
