 Q-Chem 5.0, Q-Chem, Inc., Pleasanton, CA (2017)
 Q-Chem 5.0.1 for Intel X86 EM64T Linux

User input:
--------------------------------------------------------------
$molecule
0  1
--
0  1
C        -0.54444000        -0.68370000        -0.06689000
C        -0.55709000        +0.71878000        +0.05493000
C        -1.74320000        -1.41616000        -0.12552000
C        -2.93952000        -0.70056000        -0.05285000
C        -2.95313000        +0.68255000        +0.06934000
C        -1.77161000        +1.42404000        +0.12810000
H        -3.90354000        +1.20325000        +0.11710000
H        -3.87892000        -1.24211000        -0.08988000
C        -1.83960000        +2.92746000        +0.24839000
C        -1.78103000        -2.92226000        -0.24590000
H        -1.39752000        -3.25223000        -1.21323000
H        -2.80572000        -3.28175000        -0.13627000
H        -1.16958000        -3.40777000        +0.51926000
H        -1.24214000        +3.42352000        -0.52065000
H        -1.45503000        +3.26427000        +1.21284000
H        -2.87211000        +3.26623000        +0.14638000
H        +0.35825000        -1.18166000        -0.11386000
H        +0.33551000        +1.23549000        +0.09097000
--
0  1
C        -1.85490000        +0.02662000        +3.96649000
C        -1.86755000        +1.42910000        +4.08831000
C        -3.05366000        -0.70584000        +3.90786000
C        -4.24998000        +0.00976000        +3.98053000
C        -4.26359000        +1.39287000        +4.10272000
C        -3.08207000        +2.13436000        +4.16148000
H        -5.21400000        +1.91357000        +4.15048000
H        -5.18938000        -0.53179000        +3.94350000
C        -3.15006000        +3.63778000        +4.28177000
C        -3.09149000        -2.21194000        +3.78748000
H        -2.70798000        -2.54191000        +2.82015000
H        -4.11618000        -2.57143000        +3.89711000
H        -2.48004000        -2.69745000        +4.55264000
H        -2.55260000        +4.13384000        +3.51273000
H        -2.76549000        +3.97459000        +5.24622000
H        -4.18257000        +3.97655000        +4.17976000
H        -0.95221000        -0.47134000        +3.91952000
H        -0.97495000        +1.94581000        +4.12435000
$end

$rem
JOBTYPE                   SP
METHOD                    B3LYP
DFT_D                     d3_op
BASIS                     6-311++G(d,p)
SYMMETRY                  False
THRESH                    12
SCF_CONVERGENCE           8
MAX_SUB_FILE_NUM          128
MEM_STATIC                400
MEM_TOTAL                 4000
$end
--------------------------------------------------------------

             Standard Nuclear Orientation (Angstroms)
    I     Atom           X                Y                Z
 ----------------------------------------------------------------
    1      C       2.7627723507     0.6182545672     0.9823004991
    2      C       1.8988077411     1.7290595970     0.9419566723
    3      C       2.8512290233    -0.2699690758    -0.1040672301
    4      C       2.0479311697    -0.0100378049    -1.2156850260
    5      C       1.1939528301     1.0841408884    -1.2557210466
    6      C       1.0953379692     1.9754831580    -0.1856585551
    7      H       0.5896582565     1.2554969335    -2.1401156699
    8      H       2.0925765016    -0.6832845195    -2.0653117906
    9      C       0.1610569604     3.1574348321    -0.2829892147
   10      C       3.7555385174    -1.4809537991    -0.1040189084
   11      H       4.8076461636    -1.1898486166    -0.1078560075
   12      H       3.5605951868    -2.0947735462    -0.9851907469
   13      H       3.6027220479    -2.1036999687     0.7813596677
   14      H       0.6710624315     4.0974586750    -0.0578090845
   15      H      -0.6638606020     3.0682279299     0.4262723783
   16      H      -0.2511160262     3.2285348379    -1.2911093818
   17      H       3.3398416970     0.4534356550     1.8218511375
   18      H       1.8545501504     2.3701403062     1.7494711649
   19      C      -1.1752771382    -1.0790613591     1.2999465401
   20      C      -2.0392417478     0.0317436707     1.2596027134
   21      C      -1.0868204657    -1.9672850022     0.2135788109
   22      C      -1.8901183192    -1.7073537313    -0.8980389850
   23      C      -2.7440966588    -0.6131750380    -0.9380750056
   24      C      -2.8427115197     0.2781672317     0.1319874859
   25      H      -3.3483912324    -0.4418189928    -1.8224696289
   26      H      -1.8454729874    -2.3806004459    -1.7476657495
   27      C      -3.7769925285     1.4601189058     0.0346568263
   28      C      -0.1825109716    -3.1782697254     0.2136271326
   29      H       0.8695966747    -2.8871645429     0.2097900335
   30      H      -0.3774543021    -3.7920894726    -0.6675447059
   31      H      -0.3353274410    -3.8010158950     1.0990057087
   32      H      -3.2669870574     2.4001427487     0.2598369565
   33      H      -4.6019100909     1.3709120036     0.7439184193
   34      H      -4.1891655151     1.5312189115    -0.9734633408
   35      H      -0.5982077919    -1.2438802713     2.1394971785
   36      H      -2.0834993385     0.6728243799     2.0671172059
 ----------------------------------------------------------------

   14    -621.9573164665      5.53E-09 Convergence criterion met
 Total energy in the final basis set = -621.95731647

                    Orbital Energies (a.u.)
 --------------------------------------------------------------

 Alpha MOs
 -- Occupied --
-10.177 -10.177 -10.176 -10.176 -10.166 -10.165 -10.165 -10.165
-10.165 -10.164 -10.164 -10.164 -10.164 -10.164 -10.163 -10.163
 -0.856  -0.854  -0.785  -0.784  -0.742  -0.741  -0.719  -0.718
 -0.656  -0.655  -0.609  -0.609  -0.574  -0.573  -0.493  -0.492
 -0.469  -0.469  -0.457  -0.456  -0.427  -0.420  -0.418  -0.417
 -0.416  -0.410  -0.402  -0.401  -0.395  -0.394  -0.374  -0.373
 -0.346  -0.340  -0.339  -0.338  -0.336  -0.335  -0.251  -0.246
 -0.234  -0.232

          Ground-State Mulliken Net Atomic Charges

     Atom                 Charge (a.u.)
  ----------------------------------------
      1 C                    -0.298549
      2 C                    -0.397082
      3 C                     0.421053
      4 C                    -0.358468
      5 C                    -0.310470
      6 C                     0.725224
      7 H                     0.144254
      8 H                     0.152860
      9 C                    -0.663977
     10 C                    -0.651395
     11 H                     0.157766
     12 H                     0.133855
     13 H                     0.155828
     14 H                     0.147596
     15 H                     0.163729
     16 H                     0.136660
     17 H                     0.162174
     18 H                     0.166643
     19 C                    -0.462886
     20 C                    -0.258299
     21 C                     0.657473
     22 C                    -0.321661
     23 C                    -0.530443
     24 C                     0.620362
     25 H                     0.145727
     26 H                     0.163356
     27 C                    -0.605353
     28 C                    -0.674272
     29 H                     0.225212
     30 H                     0.129258
     31 H                     0.149122
     32 H                     0.152981
     33 H                     0.161950
     34 H                     0.138796
     35 H                     0.149838
     36 H                     0.171136
  ----------------------------------------
  Sum of atomic charges =     0.000000

                    Cartesian Multipole Moments
 -----------------------------------------------------------------
    Charge (ESU x 10^10)
                 0.0000
    Dipole Moment (Debye)
         X       0.0798      Y       0.0581      Z       0.1292
       Tot       0.1626
    Quadrupole Moments (Debye-Ang)
        XX     -99.7326     XY      -6.6977     YY     -95.4520
        XZ       3.8247     YZ       2.7758     ZZ     -94.3310

 Total job time:  177.73s(wall), 707.26s(cpu)
        *  Thank you very much for using Q-Chem.  Have a nice day.  *
