 Q-Chem 5.0, Q-Chem, Inc., Pleasanton, CA (2017)
 Q-Chem 5.0.1 for Intel X86 EM64T Linux

User input:
--------------------------------------------------------------
$molecule
0  1
C        -0.54444000        -0.68370000        -0.06689000
C        -0.55709000        +0.71878000        +0.05493000
C        -1.74320000        -1.41616000        -0.12552000
C        -2.93952000        -0.70056000        -0.05285000
C        -2.95313000        +0.68255000        +0.06934000
C        -1.77161000        +1.42404000        +0.12810000
H        -3.90354000        +1.20325000        +0.11710000
H        -3.87892000        -1.24211000        -0.08988000
C        -1.83960000        +2.92746000        +0.24839000
C        -1.78103000        -2.92226000        -0.24590000
H        -1.39752000        -3.25223000        -1.21323000
H        -2.80572000        -3.28175000        -0.13627000
H        -1.16958000        -3.40777000        +0.51926000
H        -1.24214000        +3.42352000        -0.52065000
H        -1.45503000        +3.26427000        +1.21284000
H        -2.87211000        +3.26623000        +0.14638000
H        +0.35825000        -1.18166000        -0.11386000
H        +0.33551000        +1.23549000        +0.09097000
@C        -2.25109000        +0.24137000        +5.18588000
@C        -2.26374000        +1.64385000        +5.30770000
@C        -3.44985000        -0.49109000        +5.12725000
@C        -4.64617000        +0.22451000        +5.19992000
@C        -4.65978000        +1.60762000        +5.32211000
@C        -3.47826000        +2.34911000        +5.38087000
@H        -5.61019000        +2.12832000        +5.36987000
@H        -5.58557000        -0.31704000        +5.16289000
@C        -3.54625000        +3.85253000        +5.50116000
@C        -3.48768000        -1.99719000        +5.00687000
@H        -3.10417000        -2.32716000        +4.03954000
@H        -4.51237000        -2.35668000        +5.11650000
@H        -2.87623000        -2.48270000        +5.77203000
@H        -2.94879000        +4.34859000        +4.73212000
@H        -3.16168000        +4.18934000        +6.46561000
@H        -4.57876000        +4.19130000        +5.39915000
@H        -1.34840000        -0.25659000        +5.13891000
@H        -1.37114000        +2.16056000        +5.34374000
$end

$rem
JOBTYPE                   SP
METHOD                    B3LYP
DFT_D                     d3_op
BASIS                     6-311++G(d,p)
SYMMETRY                  False
THRESH                    12
SCF_CONVERGENCE           8
MAX_SUB_FILE_NUM          128
MEM_STATIC                400
MEM_TOTAL                 4000
$end
--------------------------------------------------------------

             Standard Nuclear Orientation (Angstroms)
    I     Atom           X                Y                Z
 ----------------------------------------------------------------
    1      C      -0.5444400000    -0.6837000000    -0.0668900000
    2      C      -0.5570900000     0.7187800000     0.0549300000
    3      C      -1.7432000000    -1.4161600000    -0.1255200000
    4      C      -2.9395200000    -0.7005600000    -0.0528500000
    5      C      -2.9531300000     0.6825500000     0.0693400000
    6      C      -1.7716100000     1.4240400000     0.1281000000
    7      H      -3.9035400000     1.2032500000     0.1171000000
    8      H      -3.8789200000    -1.2421100000    -0.0898800000
    9      C      -1.8396000000     2.9274600000     0.2483900000
   10      C      -1.7810300000    -2.9222600000    -0.2459000000
   11      H      -1.3975200000    -3.2522300000    -1.2132300000
   12      H      -2.8057200000    -3.2817500000    -0.1362700000
   13      H      -1.1695800000    -3.4077700000     0.5192600000
   14      H      -1.2421400000     3.4235200000    -0.5206500000
   15      H      -1.4550300000     3.2642700000     1.2128400000
   16      H      -2.8721100000     3.2662300000     0.1463800000
   17      H       0.3582500000    -1.1816600000    -0.1138600000
   18      H       0.3355100000     1.2354900000     0.0909700000
   19      GH     -2.2510900000     0.2413700000     5.1858800000
   20      GH     -2.2637400000     1.6438500000     5.3077000000
   21      GH     -3.4498500000    -0.4910900000     5.1272500000
   22      GH     -4.6461700000     0.2245100000     5.1999200000
   23      GH     -4.6597800000     1.6076200000     5.3221100000
   24      GH     -3.4782600000     2.3491100000     5.3808700000
   25      GH     -5.6101900000     2.1283200000     5.3698700000
   26      GH     -5.5855700000    -0.3170400000     5.1628900000
   27      GH     -3.5462500000     3.8525300000     5.5011600000
   28      GH     -3.4876800000    -1.9971900000     5.0068700000
   29      GH     -3.1041700000    -2.3271600000     4.0395400000
   30      GH     -4.5123700000    -2.3566800000     5.1165000000
   31      GH     -2.8762300000    -2.4827000000     5.7720300000
   32      GH     -2.9487900000     4.3485900000     4.7321200000
   33      GH     -3.1616800000     4.1893400000     6.4656100000
   34      GH     -4.5787600000     4.1913000000     5.3991500000
   35      GH     -1.3484000000    -0.2565900000     5.1389100000
   36      GH     -1.3711400000     2.1605600000     5.3437400000
 ----------------------------------------------------------------

   12    -310.9760204798      7.67E-09 Convergence criterion met
 Total energy in the final basis set = -310.97602048

                    Orbital Energies (a.u.)
 --------------------------------------------------------------

 Alpha MOs
 -- Occupied --
-10.180 -10.180 -10.168 -10.168 -10.168 -10.167 -10.167 -10.167
 -0.859  -0.787  -0.745  -0.721  -0.658  -0.612  -0.577  -0.496
 -0.472  -0.460  -0.425  -0.421  -0.417  -0.404  -0.397  -0.376
 -0.345  -0.343  -0.339  -0.252  -0.236

          Ground-State Mulliken Net Atomic Charges

     Atom                 Charge (a.u.)
  ----------------------------------------
      1 C                    -0.154657
      2 C                    -0.315592
      3 C                     0.587378
      4 C                    -0.498446
      5 C                    -0.452161
      6 C                     0.595504
      7 H                     0.153327
      8 H                     0.143129
      9 C                    -0.647874
     10 C                    -0.631763
     11 H                     0.155698
     12 H                     0.147400
     13 H                     0.149823
     14 H                     0.144315
     15 H                     0.167127
     16 H                     0.139406
     17 H                     0.162315
     18 H                     0.168817
     19 GH                   -0.021377
     20 GH                   -0.009347
     21 GH                    0.010004
     22 GH                   -0.001123
     23 GH                   -0.002831
     24 GH                    0.009074
     25 GH                   -0.000491
     26 GH                   -0.001040
     27 GH                    0.003467
     28 GH                    0.006566
     29 GH                   -0.007993
     30 GH                    0.000576
     31 GH                   -0.000274
     32 GH                    0.000153
     33 GH                   -0.000063
     34 GH                    0.000210
     35 GH                    0.000044
     36 GH                    0.000701
  ----------------------------------------
  Sum of atomic charges =     0.000000

                    Cartesian Multipole Moments
 -----------------------------------------------------------------
    Charge (ESU x 10^10)
                 0.0000
    Dipole Moment (Debye)
         X       0.0922      Y       0.0014      Z       0.0016
       Tot       0.0923
    Quadrupole Moments (Debye-Ang)
        XX     -46.2762     XY       0.0014     YY     -44.6919
        XZ      -0.0509     YZ       0.6792     ZZ     -52.7217

 Total job time:  124.19s(wall), 493.91s(cpu)
        *  Thank you very much for using Q-Chem.  Have a nice day.  *
