 Q-Chem 5.0, Q-Chem, Inc., Pleasanton, CA (2017)
 Q-Chem 5.0.1 for Intel X86 EM64T Linux

User input:
--------------------------------------------------------------
$molecule
0  1
C        -0.54444000        -0.68370000        -0.06689000
C        -0.55709000        +0.71878000        +0.05493000
C        -1.74320000        -1.41616000        -0.12552000
C        -2.93952000        -0.70056000        -0.05285000
C        -2.95313000        +0.68255000        +0.06934000
C        -1.77161000        +1.42404000        +0.12810000
H        -3.90354000        +1.20325000        +0.11710000
H        -3.87892000        -1.24211000        -0.08988000
C        -1.83960000        +2.92746000        +0.24839000
C        -1.78103000        -2.92226000        -0.24590000
H        -1.39752000        -3.25223000        -1.21323000
H        -2.80572000        -3.28175000        -0.13627000
H        -1.16958000        -3.40777000        +0.51926000
H        -1.24214000        +3.42352000        -0.52065000
H        -1.45503000        +3.26427000        +1.21284000
H        -2.87211000        +3.26623000        +0.14638000
H        +0.35825000        -1.18166000        -0.11386000
H        +0.33551000        +1.23549000        +0.09097000
@C        -1.85490000        +0.02662000        +3.96649000
@C        -1.86755000        +1.42910000        +4.08831000
@C        -3.05366000        -0.70584000        +3.90786000
@C        -4.24998000        +0.00976000        +3.98053000
@C        -4.26359000        +1.39287000        +4.10272000
@C        -3.08207000        +2.13436000        +4.16148000
@H        -5.21400000        +1.91357000        +4.15048000
@H        -5.18938000        -0.53179000        +3.94350000
@C        -3.15006000        +3.63778000        +4.28177000
@C        -3.09149000        -2.21194000        +3.78748000
@H        -2.70798000        -2.54191000        +2.82015000
@H        -4.11618000        -2.57143000        +3.89711000
@H        -2.48004000        -2.69745000        +4.55264000
@H        -2.55260000        +4.13384000        +3.51273000
@H        -2.76549000        +3.97459000        +5.24622000
@H        -4.18257000        +3.97655000        +4.17976000
@H        -0.95221000        -0.47134000        +3.91952000
@H        -0.97495000        +1.94581000        +4.12435000
$end

$rem
JOBTYPE                   SP
METHOD                    B3LYP
DFT_D                     d3_op
BASIS                     6-311++G(d,p)
SYMMETRY                  False
THRESH                    12
SCF_CONVERGENCE           8
MAX_SUB_FILE_NUM          128
MEM_STATIC                400
MEM_TOTAL                 4000
$end
--------------------------------------------------------------

             Standard Nuclear Orientation (Angstroms)
    I     Atom           X                Y                Z
 ----------------------------------------------------------------
    1      C      -0.5444400000    -0.6837000000    -0.0668900000
    2      C      -0.5570900000     0.7187800000     0.0549300000
    3      C      -1.7432000000    -1.4161600000    -0.1255200000
    4      C      -2.9395200000    -0.7005600000    -0.0528500000
    5      C      -2.9531300000     0.6825500000     0.0693400000
    6      C      -1.7716100000     1.4240400000     0.1281000000
    7      H      -3.9035400000     1.2032500000     0.1171000000
    8      H      -3.8789200000    -1.2421100000    -0.0898800000
    9      C      -1.8396000000     2.9274600000     0.2483900000
   10      C      -1.7810300000    -2.9222600000    -0.2459000000
   11      H      -1.3975200000    -3.2522300000    -1.2132300000
   12      H      -2.8057200000    -3.2817500000    -0.1362700000
   13      H      -1.1695800000    -3.4077700000     0.5192600000
   14      H      -1.2421400000     3.4235200000    -0.5206500000
   15      H      -1.4550300000     3.2642700000     1.2128400000
   16      H      -2.8721100000     3.2662300000     0.1463800000
   17      H       0.3582500000    -1.1816600000    -0.1138600000
   18      H       0.3355100000     1.2354900000     0.0909700000
   19      GH     -1.8549000000     0.0266200000     3.9664900000
   20      GH     -1.8675500000     1.4291000000     4.0883100000
   21      GH     -3.0536600000    -0.7058400000     3.9078600000
   22      GH     -4.2499800000     0.0097600000     3.9805300000
   23      GH     -4.2635900000     1.3928700000     4.1027200000
   24      GH     -3.0820700000     2.1343600000     4.1614800000
   25      GH     -5.2140000000     1.9135700000     4.1504800000
   26      GH     -5.1893800000    -0.5317900000     3.9435000000
   27      GH     -3.1500600000     3.6377800000     4.2817700000
   28      GH     -3.0914900000    -2.2119400000     3.7874800000
   29      GH     -2.7079800000    -2.5419100000     2.8201500000
   30      GH     -4.1161800000    -2.5714300000     3.8971100000
   31      GH     -2.4800400000    -2.6974500000     4.5526400000
   32      GH     -2.5526000000     4.1338400000     3.5127300000
   33      GH     -2.7654900000     3.9745900000     5.2462200000
   34      GH     -4.1825700000     3.9765500000     4.1797600000
   35      GH     -0.9522100000    -0.4713400000     3.9195200000
   36      GH     -0.9749500000     1.9458100000     4.1243500000
 ----------------------------------------------------------------

   13    -310.9760671166      1.33E-09 Convergence criterion met
 Total energy in the final basis set = -310.97606712

                    Orbital Energies (a.u.)
 --------------------------------------------------------------

 Alpha MOs
 -- Occupied --
-10.180 -10.180 -10.168 -10.168 -10.168 -10.167 -10.167 -10.167
 -0.858  -0.787  -0.745  -0.721  -0.658  -0.612  -0.577  -0.496
 -0.472  -0.460  -0.424  -0.421  -0.417  -0.404  -0.397  -0.376
 -0.345  -0.342  -0.339  -0.252  -0.236

          Ground-State Mulliken Net Atomic Charges

     Atom                 Charge (a.u.)
  ----------------------------------------
      1 C                    -0.226684
      2 C                    -0.370069
      3 C                     0.509472
      4 C                    -0.390953
      5 C                    -0.362931
      6 C                     0.601340
      7 H                     0.158483
      8 H                     0.150504
      9 C                    -0.658125
     10 C                    -0.671091
     11 H                     0.158024
     12 H                     0.138952
     13 H                     0.156498
     14 H                     0.151305
     15 H                     0.177343
     16 H                     0.133400
     17 H                     0.168890
     18 H                     0.168753
     19 GH                   -0.114363
     20 GH                   -0.061111
     21 GH                    0.054248
     22 GH                    0.075064
     23 GH                   -0.036359
     24 GH                    0.079463
     25 GH                   -0.005215
     26 GH                    0.004525
     27 GH                    0.013869
     28 GH                   -0.025671
     29 GH                    0.020128
     30 GH                   -0.004114
     31 GH                    0.001037
     32 GH                    0.002358
     33 GH                   -0.000649
     34 GH                    0.000482
     35 GH                   -0.007699
     36 GH                    0.010896
  ----------------------------------------
  Sum of atomic charges =     0.000000

                    Cartesian Multipole Moments
 -----------------------------------------------------------------
    Charge (ESU x 10^10)
                 0.0000
    Dipole Moment (Debye)
         X       0.0866      Y       0.0010      Z       0.0122
       Tot       0.0875
    Quadrupole Moments (Debye-Ang)
        XX     -46.3184     XY      -0.0030     YY     -44.7551
        XZ      -0.0765     YZ       0.6696     ZZ     -52.6629

 Total job time:  156.33s(wall), 622.48s(cpu)
        *  Thank you very much for using Q-Chem.  Have a nice day.  *
