 Q-Chem 5.0, Q-Chem, Inc., Pleasanton, CA (2017)
 Q-Chem 5.0.1 for Intel X86 EM64T Linux

User input:
--------------------------------------------------------------
$molecule
0  1
--
0  1
C        -0.54444000        -0.68370000        -0.06689000
C        -0.55709000        +0.71878000        +0.05493000
C        -1.74320000        -1.41616000        -0.12552000
C        -2.93952000        -0.70056000        -0.05285000
C        -2.95313000        +0.68255000        +0.06934000
C        -1.77161000        +1.42404000        +0.12810000
H        -3.90354000        +1.20325000        +0.11710000
H        -3.87892000        -1.24211000        -0.08988000
C        -1.83960000        +2.92746000        +0.24839000
C        -1.78103000        -2.92226000        -0.24590000
H        -1.39752000        -3.25223000        -1.21323000
H        -2.80572000        -3.28175000        -0.13627000
H        -1.16958000        -3.40777000        +0.51926000
H        -1.24214000        +3.42352000        -0.52065000
H        -1.45503000        +3.26427000        +1.21284000
H        -2.87211000        +3.26623000        +0.14638000
H        +0.35825000        -1.18166000        -0.11386000
H        +0.33551000        +1.23549000        +0.09097000
--
0  1
C        -2.25109000        +0.24137000        +5.18588000
C        -2.26374000        +1.64385000        +5.30770000
C        -3.44985000        -0.49109000        +5.12725000
C        -4.64617000        +0.22451000        +5.19992000
C        -4.65978000        +1.60762000        +5.32211000
C        -3.47826000        +2.34911000        +5.38087000
H        -5.61019000        +2.12832000        +5.36987000
H        -5.58557000        -0.31704000        +5.16289000
C        -3.54625000        +3.85253000        +5.50116000
C        -3.48768000        -1.99719000        +5.00687000
H        -3.10417000        -2.32716000        +4.03954000
H        -4.51237000        -2.35668000        +5.11650000
H        -2.87623000        -2.48270000        +5.77203000
H        -2.94879000        +4.34859000        +4.73212000
H        -3.16168000        +4.18934000        +6.46561000
H        -4.57876000        +4.19130000        +5.39915000
H        -1.34840000        -0.25659000        +5.13891000
H        -1.37114000        +2.16056000        +5.34374000
$end

$rem
JOBTYPE                   SP
METHOD                    B3LYP
DFT_D                     d3_op
BASIS                     6-311++G(d,p)
SYMMETRY                  False
THRESH                    12
SCF_CONVERGENCE           8
MAX_SUB_FILE_NUM          128
MEM_STATIC                400
MEM_TOTAL                 4000
$end
--------------------------------------------------------------

             Standard Nuclear Orientation (Angstroms)
    I     Atom           X                Y                Z
 ----------------------------------------------------------------
    1      C       3.4389267837     0.0349848410     1.0427492523
    2      C       2.8652138440     1.3200498539     1.0051771795
    3      C       3.3477209704    -0.8311486705    -0.0610871967
    4      C       2.6642220088    -0.3695728090    -1.1872855473
    5      C       2.0962458997     0.8969636146    -1.2246690658
    6      C       2.1788385829     1.7688067282    -0.1373247311
    7      H       1.5778305873     1.2214842330    -2.1205600234
    8      H       2.5741578257    -1.0203204344    -2.0507297865
    9      C       1.5555326985     3.1406220643    -0.2320690119
   10      C       3.9380662926    -2.2224561616    -0.0650278698
   11      H       5.0288013990    -2.1901969440    -0.0343078374
   12      H       3.6304885966    -2.7579419122    -0.9649680706
   13      H       3.6141718131    -2.8050803574     0.8014029127
   14      H       2.2669377765     3.9284350396     0.0281424939
   15      H       0.7113255264     3.2389795068     0.4528681586
   16      H       1.2036910281     3.3240325221    -1.2488364858
   17      H       3.9338609326    -0.2759834723     1.8932540876
   18      H       2.9493278962     1.9401464220     1.8258037317
   19      C      -2.0782868668    -0.8971893441     1.2694786579
   20      C      -2.6519998065     0.3878756688     1.2319065851
   21      C      -2.1694926802    -1.7633228556     0.1656422090
   22      C      -2.8529916418    -1.3017469941    -0.9605561416
   23      C      -3.4209677508    -0.0352105705    -0.9979396601
   24      C      -3.3383750676     0.8366325431     0.0894046745
   25      H      -3.9393830632     0.2893100478    -1.8938306177
   26      H      -2.9430558248    -1.9524946195    -1.8240003809
   27      C      -3.9616809520     2.2084478792    -0.0053396063
   28      C      -1.5791473579    -3.1546303468     0.1617015358
   29      H      -0.4884122515    -3.1223711291     0.1924215683
   30      H      -1.8867250539    -3.6901160973    -0.7382386649
   31      H      -1.9030418374    -3.7372545425     1.0281323183
   32      H      -3.2502758740     2.9962608545     0.2548718996
   33      H      -4.8058881241     2.3068053216     0.6795975642
   34      H      -4.3135226224     2.3918583370    -1.0221070802
   35      H      -1.5833527179    -1.2081576575     2.1199834933
   36      H      -2.5678857543     1.0079722369     2.0525331373
 ----------------------------------------------------------------

   13    -621.9529339558      6.41E-09 Convergence criterion met
 Total energy in the final basis set = -621.95293396

                    Orbital Energies (a.u.)
 --------------------------------------------------------------

 Alpha MOs
 -- Occupied --
-10.178 -10.178 -10.178 -10.177 -10.166 -10.166 -10.166 -10.166
-10.166 -10.165 -10.165 -10.165 -10.165 -10.165 -10.164 -10.164
 -0.856  -0.856  -0.786  -0.785  -0.743  -0.743  -0.719  -0.719
 -0.656  -0.656  -0.610  -0.610  -0.575  -0.575  -0.494  -0.494
 -0.470  -0.470  -0.458  -0.458  -0.423  -0.422  -0.419  -0.418
 -0.415  -0.414  -0.403  -0.402  -0.395  -0.395  -0.374  -0.374
 -0.344  -0.343  -0.341  -0.340  -0.337  -0.337  -0.250  -0.250
 -0.234  -0.234

          Ground-State Mulliken Net Atomic Charges

     Atom                 Charge (a.u.)
  ----------------------------------------
      1 C                    -0.157363
      2 C                    -0.330179
      3 C                     0.576414
      4 C                    -0.497689
      5 C                    -0.437839
      6 C                     0.622393
      7 H                     0.150572
      8 H                     0.140087
      9 C                    -0.662014
     10 C                    -0.629947
     11 H                     0.155816
     12 H                     0.146316
     13 H                     0.148959
     14 H                     0.142607
     15 H                     0.163855
     16 H                     0.139986
     17 H                     0.160674
     18 H                     0.166873
     19 C                    -0.251746
     20 C                    -0.181212
     21 C                     0.654469
     22 C                    -0.571651
     23 C                    -0.537633
     24 C                     0.635805
     25 H                     0.144508
     26 H                     0.150777
     27 C                    -0.622299
     28 C                    -0.646056
     29 H                     0.163393
     30 H                     0.141723
     31 H                     0.145774
     32 H                     0.148452
     33 H                     0.158653
     34 H                     0.145877
     35 H                     0.161190
     36 H                     0.160454
  ----------------------------------------
  Sum of atomic charges =    -0.000000

                    Cartesian Multipole Moments
 -----------------------------------------------------------------
    Charge (ESU x 10^10)
                -0.0000
    Dipole Moment (Debye)
         X       0.0689      Y       0.0348      Z       0.1536
       Tot       0.1719
    Quadrupole Moments (Debye-Ang)
        XX    -102.5018     XY      -5.1932     YY     -91.9918
        XZ       4.1274     YZ       1.7163     ZZ     -93.7973

 Total job time:  140.60s(wall), 559.56s(cpu)
        *  Thank you very much for using Q-Chem.  Have a nice day.  *
