 Q-Chem 5.0, Q-Chem, Inc., Pleasanton, CA (2017)
 Q-Chem 5.0.1 for Intel X86 EM64T Linux

User input:
--------------------------------------------------------------
$molecule
0  1
C        -1.85490000        +0.02662000        +3.96649000
C        -1.86755000        +1.42910000        +4.08831000
C        -3.05366000        -0.70584000        +3.90786000
C        -4.24998000        +0.00976000        +3.98053000
C        -4.26359000        +1.39287000        +4.10272000
C        -3.08207000        +2.13436000        +4.16148000
H        -5.21400000        +1.91357000        +4.15048000
H        -5.18938000        -0.53179000        +3.94350000
C        -3.15006000        +3.63778000        +4.28177000
C        -3.09149000        -2.21194000        +3.78748000
H        -2.70798000        -2.54191000        +2.82015000
H        -4.11618000        -2.57143000        +3.89711000
H        -2.48004000        -2.69745000        +4.55264000
H        -2.55260000        +4.13384000        +3.51273000
H        -2.76549000        +3.97459000        +5.24622000
H        -4.18257000        +3.97655000        +4.17976000
H        -0.95221000        -0.47134000        +3.91952000
H        -0.97495000        +1.94581000        +4.12435000
@C        -0.54444000        -0.68370000        -0.06689000
@C        -0.55709000        +0.71878000        +0.05493000
@C        -1.74320000        -1.41616000        -0.12552000
@C        -2.93952000        -0.70056000        -0.05285000
@C        -2.95313000        +0.68255000        +0.06934000
@C        -1.77161000        +1.42404000        +0.12810000
@H        -3.90354000        +1.20325000        +0.11710000
@H        -3.87892000        -1.24211000        -0.08988000
@C        -1.83960000        +2.92746000        +0.24839000
@C        -1.78103000        -2.92226000        -0.24590000
@H        -1.39752000        -3.25223000        -1.21323000
@H        -2.80572000        -3.28175000        -0.13627000
@H        -1.16958000        -3.40777000        +0.51926000
@H        -1.24214000        +3.42352000        -0.52065000
@H        -1.45503000        +3.26427000        +1.21284000
@H        -2.87211000        +3.26623000        +0.14638000
@H        +0.35825000        -1.18166000        -0.11386000
@H        +0.33551000        +1.23549000        +0.09097000
$end

$rem
JOBTYPE                   SP
METHOD                    B3LYP
DFT_D                     d3_op
BASIS                     6-311++G(d,p)
SYMMETRY                  False
THRESH                    12
SCF_CONVERGENCE           8
MAX_SUB_FILE_NUM          128
MEM_STATIC                400
MEM_TOTAL                 4000
$end
--------------------------------------------------------------

             Standard Nuclear Orientation (Angstroms)
    I     Atom           X                Y                Z
 ----------------------------------------------------------------
    1      C      -1.8549000000     0.0266200000     3.9664900000
    2      C      -1.8675500000     1.4291000000     4.0883100000
    3      C      -3.0536600000    -0.7058400000     3.9078600000
    4      C      -4.2499800000     0.0097600000     3.9805300000
    5      C      -4.2635900000     1.3928700000     4.1027200000
    6      C      -3.0820700000     2.1343600000     4.1614800000
    7      H      -5.2140000000     1.9135700000     4.1504800000
    8      H      -5.1893800000    -0.5317900000     3.9435000000
    9      C      -3.1500600000     3.6377800000     4.2817700000
   10      C      -3.0914900000    -2.2119400000     3.7874800000
   11      H      -2.7079800000    -2.5419100000     2.8201500000
   12      H      -4.1161800000    -2.5714300000     3.8971100000
   13      H      -2.4800400000    -2.6974500000     4.5526400000
   14      H      -2.5526000000     4.1338400000     3.5127300000
   15      H      -2.7654900000     3.9745900000     5.2462200000
   16      H      -4.1825700000     3.9765500000     4.1797600000
   17      H      -0.9522100000    -0.4713400000     3.9195200000
   18      H      -0.9749500000     1.9458100000     4.1243500000
   19      GH     -0.5444400000    -0.6837000000    -0.0668900000
   20      GH     -0.5570900000     0.7187800000     0.0549300000
   21      GH     -1.7432000000    -1.4161600000    -0.1255200000
   22      GH     -2.9395200000    -0.7005600000    -0.0528500000
   23      GH     -2.9531300000     0.6825500000     0.0693400000
   24      GH     -1.7716100000     1.4240400000     0.1281000000
   25      GH     -3.9035400000     1.2032500000     0.1171000000
   26      GH     -3.8789200000    -1.2421100000    -0.0898800000
   27      GH     -1.8396000000     2.9274600000     0.2483900000
   28      GH     -1.7810300000    -2.9222600000    -0.2459000000
   29      GH     -1.3975200000    -3.2522300000    -1.2132300000
   30      GH     -2.8057200000    -3.2817500000    -0.1362700000
   31      GH     -1.1695800000    -3.4077700000     0.5192600000
   32      GH     -1.2421400000     3.4235200000    -0.5206500000
   33      GH     -1.4550300000     3.2642700000     1.2128400000
   34      GH     -2.8721100000     3.2662300000     0.1463800000
   35      GH      0.3582500000    -1.1816600000    -0.1138600000
   36      GH      0.3355100000     1.2354900000     0.0909700000
 ----------------------------------------------------------------

   12    -310.9760992940      8.58E-09 Convergence criterion met
 Total energy in the final basis set = -310.97609929

                    Orbital Energies (a.u.)
 --------------------------------------------------------------

 Alpha MOs
 -- Occupied --
-10.180 -10.180 -10.168 -10.168 -10.168 -10.167 -10.167 -10.167
 -0.858  -0.787  -0.745  -0.721  -0.658  -0.612  -0.577  -0.496
 -0.472  -0.460  -0.424  -0.421  -0.417  -0.404  -0.397  -0.376
 -0.345  -0.342  -0.339  -0.252  -0.236

          Ground-State Mulliken Net Atomic Charges

     Atom                 Charge (a.u.)
  ----------------------------------------
      1 C                    -0.392671
      2 C                    -0.204297
      3 C                     0.593984
      4 C                    -0.387219
      5 C                    -0.490025
      6 C                     0.566892
      7 H                     0.153906
      8 H                     0.162348
      9 C                    -0.633230
     10 C                    -0.634656
     11 H                     0.195209
     12 H                     0.136220
     13 H                     0.150642
     14 H                     0.158539
     15 H                     0.163253
     16 H                     0.138809
     17 H                     0.161307
     18 H                     0.164761
     19 GH                   -0.065738
     20 GH                   -0.018677
     21 GH                   -0.042978
     22 GH                    0.022036
     23 GH                    0.010335
     24 GH                    0.113873
     25 GH                   -0.010190
     26 GH                    0.004702
     27 GH                   -0.015329
     28 GH                    0.001988
     29 GH                   -0.000073
     30 GH                   -0.003841
     31 GH                    0.004346
     32 GH                   -0.001506
     33 GH                   -0.005156
     34 GH                    0.005548
     35 GH                   -0.004267
     36 GH                    0.001157
  ----------------------------------------
  Sum of atomic charges =     0.000000

                    Cartesian Multipole Moments
 -----------------------------------------------------------------
    Charge (ESU x 10^10)
                 0.0000
    Dipole Moment (Debye)
         X       0.0941      Y       0.0030      Z      -0.0122
       Tot       0.0949
    Quadrupole Moments (Debye-Ang)
        XX     -46.5851     XY       0.0564     YY     -44.7551
        XZ       0.3726     YZ       0.6736     ZZ     -52.7645

 Total job time:  148.83s(wall), 592.19s(cpu)
        *  Thank you very much for using Q-Chem.  Have a nice day.  *
