 Q-Chem 5.0, Q-Chem, Inc., Pleasanton, CA (2017)
 Q-Chem 5.0.1 for Intel X86 EM64T Linux

User input:
--------------------------------------------------------------
$molecule
0  1
--
0  1
C        -0.58454000        -0.67556000        -0.07544000
C        -0.59851000        +0.70920000        +0.05808000
C        -1.77633000        -1.40990000        -0.13252000
C        -2.97828000        -0.70388000        -0.05611000
C        -2.99244000        +0.68477000        +0.07719000
C        -1.80513000        +1.41687000        +0.13452000
H        -3.94378000        +1.20441000        +0.13594000
H        -3.91864000        -1.24474000        -0.10022000
C        -1.81546000        +2.92210000        +0.24949000
C        -1.75732000        -2.91589000        -0.24640000
H        -1.03160000        -3.25185000        -0.99235000
H        -2.73712000        -3.30600000        -0.53105000
H        -1.48213000        -3.37940000        +0.70725000
H        -1.54006000        +3.39064000        -0.70147000
H        -1.10219000        +3.26991000        +1.00208000
H        -2.80465000        +3.29345000        +0.52612000
H        +0.36601000        -1.19708000        -0.13515000
H        +0.34176000        +1.25035000        +0.10232000
--
0  1
C        -0.54564000        -1.08694000        +4.20466000
C        -0.55961000        +0.29782000        +4.33818000
C        -1.73743000        -1.82128000        +4.14758000
C        -2.93938000        -1.11526000        +4.22399000
C        -2.95354000        +0.27339000        +4.35729000
C        -1.76623000        +1.00549000        +4.41462000
H        -3.90488000        +0.79303000        +4.41604000
H        -3.87974000        -1.65612000        +4.17988000
C        -1.77656000        +2.51072000        +4.52959000
C        -1.71842000        -3.32727000        +4.03370000
H        -0.99270000        -3.66323000        +3.28775000
H        -2.69822000        -3.71738000        +3.74905000
H        -1.44323000        -3.79078000        +4.98735000
H        -1.50116000        +2.97926000        +3.57863000
H        -1.06329000        +2.85853000        +5.28218000
H        -2.76575000        +2.88207000        +4.80622000
H        +0.40491000        -1.60846000        +4.14495000
H        +0.38066000        +0.83897000        +4.38242000
$end

$rem
JOBTYPE                   SP
METHOD                    B3LYP
DFT_D                     d3_op
BASIS                     6-311++G(d,p)
SYMMETRY                  False
THRESH                    12
SCF_CONVERGENCE           8
MAX_SUB_FILE_NUM          128
MEM_STATIC                400
MEM_TOTAL                 4000
$end
--------------------------------------------------------------

             Standard Nuclear Orientation (Angstroms)
    I     Atom           X                Y                Z
 ----------------------------------------------------------------
    1      C       2.1259184032    -0.7664432368     1.1967454043
    2      C       2.1721966501     0.6240391109     1.1963291131
    3      C       2.0990043104    -1.4907316567    -0.0022369486
    4      C       2.1255314094    -0.7694447843    -1.1972382422
    5      C       2.1725311558     0.6248682812    -1.1978016399
    6      C       2.1989505106     1.3470100526    -0.0033245767
    7      H       2.1901902449     1.1566981633    -2.1440416838
    8      H       2.1083466894    -1.3025780625    -2.1428733486
    9      C       2.2791220326     2.8545222762     0.0013214509
   10      C       2.0175726006    -2.9989387578     0.0017794237
   11      H       2.7071443696    -3.4351690927     0.7299098467
   12      H       2.2587162534    -3.4132523210    -0.9797568643
   13      H       1.0095826661    -3.3381058486     0.2643462820
   14      H       3.2799333864     3.1938290163     0.2893273249
   15      H       1.5710087764     3.2897819923     0.7121253570
   16      H       2.0619640854     3.2677773503    -0.9860915859
   17      H       2.1089762599    -1.3002537299     2.1421834077
   18      H       2.1892906960     1.1574775746     2.1418762415
   19      C      -2.1716717990    -0.6224947111     1.1967299255
   20      C      -2.1253935521     0.7679876366     1.1963136343
   21      C      -2.1985858918    -1.3467831309    -0.0022524274
   22      C      -2.1720587928    -0.6254962585    -1.1972537210
   23      C      -2.1250590464     0.7688168069    -1.1978171187
   24      C      -2.0986396916     1.4909585783    -0.0033400554
   25      H      -2.1073999573     1.3006466890    -2.1440571626
   26      H      -2.1892435128    -1.1586295368    -2.1428888273
   27      C      -2.0184681696     2.9984708019     0.0013059721
   28      C      -2.2800176016    -2.8549902321     0.0017639449
   29      H      -1.5904458326    -3.2912205670     0.7298943679
   30      H      -2.0388739488    -3.2693037953    -0.9797723431
   31      H      -3.2880075361    -3.1941573228     0.2643308032
   32      H      -1.0176568158     3.3377775420     0.2893118461
   33      H      -2.7265814258     3.4337305180     0.7121098782
   34      H      -2.2356261168     3.4117258760    -0.9861070646
   35      H      -2.1886139423    -1.1563052042     2.1421679289
   36      H      -2.1082995062     1.3014261003     2.1418607627
 ----------------------------------------------------------------

   13    -621.9655272091      7.97E-09 Convergence criterion met
 Total energy in the final basis set = -621.96552721

                    Orbital Energies (a.u.)
 --------------------------------------------------------------

 Alpha MOs
 -- Occupied --
-10.177 -10.176 -10.176 -10.176 -10.167 -10.167 -10.166 -10.166
-10.166 -10.166 -10.166 -10.166 -10.166 -10.166 -10.165 -10.165
 -0.856  -0.856  -0.785  -0.784  -0.741  -0.740  -0.719  -0.718
 -0.655  -0.654  -0.605  -0.605  -0.572  -0.571  -0.491  -0.490
 -0.470  -0.469  -0.450  -0.449  -0.428  -0.420  -0.417  -0.415
 -0.415  -0.410  -0.400  -0.399  -0.396  -0.395  -0.373  -0.372
 -0.347  -0.340  -0.339  -0.338  -0.334  -0.333  -0.254  -0.245
 -0.237  -0.229

          Ground-State Mulliken Net Atomic Charges

     Atom                 Charge (a.u.)
  ----------------------------------------
      1 C                    -0.398027
      2 C                    -0.318446
      3 C                     0.607867
      4 C                    -0.448386
      5 C                    -0.354312
      6 C                     0.615196
      7 H                     0.156655
      8 H                     0.165116
      9 C                    -0.570366
     10 C                    -0.682042
     11 H                     0.139920
     12 H                     0.137102
     13 H                     0.176961
     14 H                     0.161664
     15 H                     0.131370
     16 H                     0.135534
     17 H                     0.172179
     18 H                     0.171998
     19 C                    -0.320319
     20 C                    -0.395955
     21 C                     0.626197
     22 C                    -0.354150
     23 C                    -0.449044
     24 C                     0.594314
     25 H                     0.164594
     26 H                     0.157231
     27 C                    -0.677364
     28 C                    -0.571238
     29 H                     0.130943
     30 H                     0.135425
     31 H                     0.162090
     32 H                     0.175752
     33 H                     0.140484
     34 H                     0.136774
     35 H                     0.171449
     36 H                     0.172835
  ----------------------------------------
  Sum of atomic charges =     0.000000

                    Cartesian Multipole Moments
 -----------------------------------------------------------------
    Charge (ESU x 10^10)
                 0.0000
    Dipole Moment (Debye)
         X      -0.0047      Y       0.0004      Z       0.0792
       Tot       0.0793
    Quadrupole Moments (Debye-Ang)
        XX    -106.7160     XY       0.8629     YY     -90.6671
        XZ      -0.0003     YZ       0.0083     ZZ     -92.4078

 Total job time:  172.91s(wall), 687.97s(cpu)
        *  Thank you very much for using Q-Chem.  Have a nice day.  *
