 Q-Chem 5.0, Q-Chem, Inc., Pleasanton, CA (2017)
 Q-Chem 5.0.1 for Intel X86 EM64T Linux

User input:
--------------------------------------------------------------
$molecule
0  1
--
0  1
C        +0.22270000        +1.04488000        +0.58595000
C        +0.62626000        -0.41353000        +0.99871000
C        -1.18200000        +1.23223000        +0.04377000
C        -0.37457000        -1.51643000        +0.72333000
O        -2.09172000        +0.78832000        +0.93966000
O        -1.47336000        +1.75939000        -0.99882000
O        -0.91364000        -1.42792000        -0.50620000
O        -0.62208000        -2.40877000        +1.49911000
C        -1.86134000        -2.44741000        -0.86560000
C        -3.47068000        +0.87492000        +0.53920000
C        +1.33008000        +1.39974000        -0.43491000
C        +2.63070000        +1.71700000        +0.32855000
C        +3.04336000        +0.29351000        +0.80300000
C        +1.94423000        -0.59299000        +0.15262000
O        +1.62840000        +0.13663000        -1.04376000
H        +0.27811000        +1.68786000        +1.46900000
H        +0.83923000        -0.48042000        +2.06408000
H        -2.68749000        -2.46677000        -0.15296000
H        -3.76076000        +1.91522000        +0.38406000
H        +3.37234000        +2.13782000        -0.35195000
H        +2.48236000        +2.42488000        +1.14651000
H        +4.02182000        +0.00994000        +0.41161000
H        +3.07359000        +0.18738000        +1.88928000
H        -2.21148000        -2.17765000        -1.85937000
H        -1.38062000        -3.42697000        -0.88096000
H        -4.03855000        +0.43623000        +1.35671000
H        -3.63120000        +0.31700000        -0.38495000
H        +1.03270000        +2.19943000        -1.08064000
H        +2.24339000        -1.61496000        +0.04786000
--
0  1
C        +0.24722000        +2.43368000        +5.07601000
C        +0.65078000        +0.97527000        +5.48877000
C        -1.15748000        +2.62103000        +4.53383000
C        -0.35005000        -0.12763000        +5.21339000
O        -2.06720000        +2.17712000        +5.42972000
O        -1.44884000        +3.14819000        +3.49124000
O        -0.88912000        -0.03912000        +3.98386000
O        -0.59756000        -1.01997000        +5.98917000
C        -1.83682000        -1.05861000        +3.62446000
C        -3.44616000        +2.26372000        +5.02926000
C        +1.35460000        +2.78854000        +4.05515000
C        +2.65522000        +3.10580000        +4.81861000
C        +3.06788000        +1.68231000        +5.29306000
C        +1.96875000        +0.79581000        +4.64268000
O        +1.65292000        +1.52543000        +3.44630000
H        +0.30263000        +3.07666000        +5.95906000
H        +0.86375000        +0.90838000        +6.55414000
H        -2.66297000        -1.07797000        +4.33710000
H        -3.73624000        +3.30402000        +4.87412000
H        +3.39686000        +3.52662000        +4.13811000
H        +2.50688000        +3.81368000        +5.63657000
H        +4.04634000        +1.39874000        +4.90167000
H        +3.09811000        +1.57618000        +6.37934000
H        -2.18696000        -0.78885000        +2.63069000
H        -1.35610000        -2.03817000        +3.60910000
H        -4.01403000        +1.82503000        +5.84677000
H        -3.60668000        +1.70580000        +4.10511000
H        +1.05722000        +3.58823000        +3.40942000
H        +2.26791000        -0.22616000        +4.53792000
$end

$rem
JOBTYPE                   SP
METHOD                    B3LYP
DFT_D                     d3_op
BASIS                     6-311++G(d,p)
SYMMETRY                  False
THRESH                    12
SCF_CONVERGENCE           8
MAX_SUB_FILE_NUM          128
MEM_STATIC                400
MEM_TOTAL                 4000
$end
--------------------------------------------------------------

             Standard Nuclear Orientation (Angstroms)
    I     Atom           X                Y                Z
 ----------------------------------------------------------------
    1      C      -1.5395171810     0.6630153421     0.8808717662
    2      C      -1.6582182034     0.7597527610    -0.6801353313
    3      C      -2.1156810214    -0.5820170047     1.5290777129
    4      C      -2.4253178613    -0.3372690093    -1.3886440422
    5      O      -1.5479260771    -1.6892193115     1.0008515932
    6      O      -2.9122284171    -0.6055313319     2.4317080615
    7      O      -3.5828328795    -0.6375447083    -0.7720663965
    8      O      -2.0663059271    -0.8487996671    -2.4224783139
    9      C      -4.3910025129    -1.6555955868    -1.3861492594
   10      C      -2.0280489177    -2.9490396176     1.5025819068
   11      C      -2.2351854053     1.9702002353     1.3299648527
   12      C      -1.2782960546     3.1539932407     1.0888541843
   13      C      -1.3261674702     3.2544124559    -0.4633504307
   14      C      -2.3691532550     2.1593922885    -0.8240090466
   15      O      -3.2349937018     2.1696777740     0.3221294997
   16      H      -0.4802607360     0.6649903557     1.1533469648
   17      H      -0.6779142249     0.7741757634    -1.1530410477
   18      H      -3.8261032565    -2.5845237647    -1.4796140770
   19      H      -1.8150787411    -3.0440566428     2.5684404268
   20      H      -1.6732651168     4.0571889109     1.5562262343
   21      H      -0.2761022314     2.9788831093     1.4852143668
   22      H      -1.6913082785     4.2297349539    -0.7895409634
   23      H      -0.3600496652     3.0813799190    -0.9417412710
   24      H      -5.2441304770    -1.7844216561    -0.7239379556
   25      H      -4.7190248390    -1.3364938741    -2.3768262462
   26      H      -1.4952977346    -3.7093766420     0.9357383312
   27      H      -3.1045372109    -3.0331142730     1.3438398955
   28      H      -2.5649846049     1.9149460259     2.3463730648
   29      H      -2.8142067618     2.3105907625    -1.7852376571
   30      C       3.1218176821     0.1323199803     0.5974547575
   31      C       3.0031166597     0.2290573993    -0.9635523400
   32      C       2.5456538417    -1.1127123664     1.2456607043
   33      C       2.2360170018    -0.8679643711    -1.6720610508
   34      O       3.1134087860    -2.2199146733     0.7174345845
   35      O       1.7491064460    -1.1362266936     2.1482910528
   36      O       1.0785019836    -1.1682400701    -1.0554834052
   37      O       2.5950289360    -1.3794950289    -2.7058953226
   38      C       0.2703323502    -2.1862909486    -1.6695662681
   39      C       2.6332859454    -3.4797349793     1.2191648981
   40      C       2.4261494578     1.4395048735     1.0465478440
   41      C       3.3830388086     2.6232978789     0.8054371757
   42      C       3.3351673929     2.7237170941    -0.7467674394
   43      C       2.2921816081     1.6286969268    -1.1074260552
   44      O       1.4263411613     1.6389824122     0.0387124910
   45      H       4.1810741272     0.1342949939     0.8699299561
   46      H       3.9834206383     0.2434804016    -1.4364580564
   47      H       0.8352316066    -3.1152191265    -1.7630310856
   48      H       2.8462561220    -3.5747520046     2.2850234182
   49      H       2.9880697463     3.5264935492     1.2728092256
   50      H       4.3852326317     2.4481877476     1.2017973582
   51      H       2.9700265847     3.6990395922    -1.0729579720
   52      H       4.3012851980     2.5506845572    -1.2251582797
   53      H      -0.5827956139    -2.3151170178    -1.0073549643
   54      H      -0.0576899759    -1.8671892359    -2.6602432549
   55      H       3.1660371286    -4.2400720038     0.6523213225
   56      H       1.5567976522    -3.5638096347     1.0604228869
   57      H       2.0963502582     1.3842506641     2.0629560561
   58      H       1.8471281013     1.7798954007    -2.0686546658
 ----------------------------------------------------------------

   15   -1531.7291097428      4.94E-09 Convergence criterion met
 Total energy in the final basis set = -1531.72910974

                    Orbital Energies (a.u.)
 --------------------------------------------------------------

 Alpha MOs
 -- Occupied --
-19.180 -19.170 -19.170 -19.168 -19.151 -19.126 -19.124 -19.115
-19.113 -19.109 -10.316 -10.306 -10.302 -10.299 -10.252 -10.243
-10.235 -10.231 -10.229 -10.228 -10.218 -10.214 -10.212 -10.210
-10.192 -10.191 -10.190 -10.188 -10.168 -10.166  -1.124  -1.115
 -1.112  -1.107  -1.080  -1.053  -1.037  -1.026  -1.025  -1.022
 -0.841  -0.819  -0.793  -0.786  -0.773  -0.766  -0.743  -0.733
 -0.725  -0.723  -0.663  -0.648  -0.618  -0.607  -0.601  -0.585
 -0.583  -0.573  -0.568  -0.561  -0.556  -0.543  -0.526  -0.514
 -0.510  -0.501  -0.500  -0.492  -0.488  -0.486  -0.480  -0.479
 -0.476  -0.474  -0.469  -0.466  -0.464  -0.451  -0.447  -0.432
 -0.431  -0.426  -0.423  -0.416  -0.416  -0.409  -0.400  -0.392
 -0.390  -0.379  -0.377  -0.376  -0.372  -0.370  -0.367  -0.364
 -0.358  -0.355  -0.352  -0.347  -0.343  -0.341  -0.326  -0.324
 -0.320  -0.316  -0.308  -0.305  -0.296  -0.292  -0.282  -0.281
 -0.275  -0.264

          Ground-State Mulliken Net Atomic Charges

     Atom                 Charge (a.u.)
  ----------------------------------------
      1 C                     0.256679
      2 C                     0.930271
      3 C                    -0.625273
      4 C                    -1.029429
      5 O                     0.006266
      6 O                    -0.160968
      7 O                     0.043221
      8 O                    -0.087804
      9 C                    -0.187689
     10 C                    -0.287965
     11 C                    -0.601945
     12 C                    -0.217854
     13 C                    -0.405839
     14 C                    -0.320528
     15 O                    -0.098062
     16 H                     0.259611
     17 H                     0.436035
     18 H                     0.184635
     19 H                     0.199818
     20 H                     0.201794
     21 H                     0.112957
     22 H                     0.195275
     23 H                     0.075611
     24 H                     0.178714
     25 H                     0.173082
     26 H                     0.118551
     27 H                     0.193697
     28 H                     0.271781
     29 H                     0.257735
     30 C                    -0.055132
     31 C                     0.215605
     32 C                    -0.518592
     33 C                    -0.507138
     34 O                     0.050559
     35 O                    -0.108594
     36 O                     0.006779
     37 O                    -0.136223
     38 C                    -0.444209
     39 C                    -0.167393
     40 C                    -0.159191
     41 C                    -0.705142
     42 C                    -0.508397
     43 C                    -0.088321
     44 O                     0.241185
     45 H                     0.247917
     46 H                     0.296748
     47 H                     0.219336
     48 H                     0.168409
     49 H                     0.177515
     50 H                     0.143723
     51 H                     0.179751
     52 H                     0.133228
     53 H                     0.116044
     54 H                     0.247463
     55 H                     0.170548
     56 H                     0.187255
     57 H                     0.271439
     58 H                     0.252451
  ----------------------------------------
  Sum of atomic charges =    -0.000000

                    Cartesian Multipole Moments
 -----------------------------------------------------------------
    Charge (ESU x 10^10)
                -0.0000
    Dipole Moment (Debye)
         X       3.5067      Y      -0.1709      Z       0.5362
       Tot       3.5515
    Quadrupole Moments (Debye-Ang)
        XX    -174.8257     XY      15.8818     YY    -156.3340
        XZ      16.9244     YZ      -7.9732     ZZ    -194.2801

 Total job time:  8052.49s(wall), 8033.36s(cpu)
        *  Thank you very much for using Q-Chem.  Have a nice day.  *
