 Q-Chem 5.0, Q-Chem, Inc., Pleasanton, CA (2017)
 Q-Chem 5.0.1 for Intel X86 EM64T Linux

User input:
--------------------------------------------------------------
$molecule
0  1
C        +0.22270000        +1.04488000        +0.58595000
C        +0.62626000        -0.41353000        +0.99871000
C        -1.18200000        +1.23223000        +0.04377000
C        -0.37457000        -1.51643000        +0.72333000
O        -2.09172000        +0.78832000        +0.93966000
O        -1.47336000        +1.75939000        -0.99882000
O        -0.91364000        -1.42792000        -0.50620000
O        -0.62208000        -2.40877000        +1.49911000
C        -1.86134000        -2.44741000        -0.86560000
C        -3.47068000        +0.87492000        +0.53920000
C        +1.33008000        +1.39974000        -0.43491000
C        +2.63070000        +1.71700000        +0.32855000
C        +3.04336000        +0.29351000        +0.80300000
C        +1.94423000        -0.59299000        +0.15262000
O        +1.62840000        +0.13663000        -1.04376000
H        +0.27811000        +1.68786000        +1.46900000
H        +0.83923000        -0.48042000        +2.06408000
H        -2.68749000        -2.46677000        -0.15296000
H        -3.76076000        +1.91522000        +0.38406000
H        +3.37234000        +2.13782000        -0.35195000
H        +2.48236000        +2.42488000        +1.14651000
H        +4.02182000        +0.00994000        +0.41161000
H        +3.07359000        +0.18738000        +1.88928000
H        -2.21148000        -2.17765000        -1.85937000
H        -1.38062000        -3.42697000        -0.88096000
H        -4.03855000        +0.43623000        +1.35671000
H        -3.63120000        +0.31700000        -0.38495000
H        +1.03270000        +2.19943000        -1.08064000
H        +2.24339000        -1.61496000        +0.04786000
@C        +0.24722000        +2.43368000        +5.07601000
@C        +0.65078000        +0.97527000        +5.48877000
@C        -1.15748000        +2.62103000        +4.53383000
@C        -0.35005000        -0.12763000        +5.21339000
@O        -2.06720000        +2.17712000        +5.42972000
@O        -1.44884000        +3.14819000        +3.49124000
@O        -0.88912000        -0.03912000        +3.98386000
@O        -0.59756000        -1.01997000        +5.98917000
@C        -1.83682000        -1.05861000        +3.62446000
@C        -3.44616000        +2.26372000        +5.02926000
@C        +1.35460000        +2.78854000        +4.05515000
@C        +2.65522000        +3.10580000        +4.81861000
@C        +3.06788000        +1.68231000        +5.29306000
@C        +1.96875000        +0.79581000        +4.64268000
@O        +1.65292000        +1.52543000        +3.44630000
@H        +0.30263000        +3.07666000        +5.95906000
@H        +0.86375000        +0.90838000        +6.55414000
@H        -2.66297000        -1.07797000        +4.33710000
@H        -3.73624000        +3.30402000        +4.87412000
@H        +3.39686000        +3.52662000        +4.13811000
@H        +2.50688000        +3.81368000        +5.63657000
@H        +4.04634000        +1.39874000        +4.90167000
@H        +3.09811000        +1.57618000        +6.37934000
@H        -2.18696000        -0.78885000        +2.63069000
@H        -1.35610000        -2.03817000        +3.60910000
@H        -4.01403000        +1.82503000        +5.84677000
@H        -3.60668000        +1.70580000        +4.10511000
@H        +1.05722000        +3.58823000        +3.40942000
@H        +2.26791000        -0.22616000        +4.53792000
$end

$rem
JOBTYPE                   SP
METHOD                    B3LYP
DFT_D                     d3_op
BASIS                     6-311++G(d,p)
SYMMETRY                  False
THRESH                    12
SCF_CONVERGENCE           8
MAX_SUB_FILE_NUM          128
MEM_STATIC                400
MEM_TOTAL                 4000
$end
--------------------------------------------------------------

             Standard Nuclear Orientation (Angstroms)
    I     Atom           X                Y                Z
 ----------------------------------------------------------------
    1      C       0.2227000000     1.0448800000     0.5859500000
    2      C       0.6262600000    -0.4135300000     0.9987100000
    3      C      -1.1820000000     1.2322300000     0.0437700000
    4      C      -0.3745700000    -1.5164300000     0.7233300000
    5      O      -2.0917200000     0.7883200000     0.9396600000
    6      O      -1.4733600000     1.7593900000    -0.9988200000
    7      O      -0.9136400000    -1.4279200000    -0.5062000000
    8      O      -0.6220800000    -2.4087700000     1.4991100000
    9      C      -1.8613400000    -2.4474100000    -0.8656000000
   10      C      -3.4706800000     0.8749200000     0.5392000000
   11      C       1.3300800000     1.3997400000    -0.4349100000
   12      C       2.6307000000     1.7170000000     0.3285500000
   13      C       3.0433600000     0.2935100000     0.8030000000
   14      C       1.9442300000    -0.5929900000     0.1526200000
   15      O       1.6284000000     0.1366300000    -1.0437600000
   16      H       0.2781100000     1.6878600000     1.4690000000
   17      H       0.8392300000    -0.4804200000     2.0640800000
   18      H      -2.6874900000    -2.4667700000    -0.1529600000
   19      H      -3.7607600000     1.9152200000     0.3840600000
   20      H       3.3723400000     2.1378200000    -0.3519500000
   21      H       2.4823600000     2.4248800000     1.1465100000
   22      H       4.0218200000     0.0099400000     0.4116100000
   23      H       3.0735900000     0.1873800000     1.8892800000
   24      H      -2.2114800000    -2.1776500000    -1.8593700000
   25      H      -1.3806200000    -3.4269700000    -0.8809600000
   26      H      -4.0385500000     0.4362300000     1.3567100000
   27      H      -3.6312000000     0.3170000000    -0.3849500000
   28      H       1.0327000000     2.1994300000    -1.0806400000
   29      H       2.2433900000    -1.6149600000     0.0478600000
   30      GH      0.2472200000     2.4336800000     5.0760100000
   31      GH      0.6507800000     0.9752700000     5.4887700000
   32      GH     -1.1574800000     2.6210300000     4.5338300000
   33      GH     -0.3500500000    -0.1276300000     5.2133900000
   34      GH     -2.0672000000     2.1771200000     5.4297200000
   35      GH     -1.4488400000     3.1481900000     3.4912400000
   36      GH     -0.8891200000    -0.0391200000     3.9838600000
   37      GH     -0.5975600000    -1.0199700000     5.9891700000
   38      GH     -1.8368200000    -1.0586100000     3.6244600000
   39      GH     -3.4461600000     2.2637200000     5.0292600000
   40      GH      1.3546000000     2.7885400000     4.0551500000
   41      GH      2.6552200000     3.1058000000     4.8186100000
   42      GH      3.0678800000     1.6823100000     5.2930600000
   43      GH      1.9687500000     0.7958100000     4.6426800000
   44      GH      1.6529200000     1.5254300000     3.4463000000
   45      GH      0.3026300000     3.0766600000     5.9590600000
   46      GH      0.8637500000     0.9083800000     6.5541400000
   47      GH     -2.6629700000    -1.0779700000     4.3371000000
   48      GH     -3.7362400000     3.3040200000     4.8741200000
   49      GH      3.3968600000     3.5266200000     4.1381100000
   50      GH      2.5068800000     3.8136800000     5.6365700000
   51      GH      4.0463400000     1.3987400000     4.9016700000
   52      GH      3.0981100000     1.5761800000     6.3793400000
   53      GH     -2.1869600000    -0.7888500000     2.6306900000
   54      GH     -1.3561000000    -2.0381700000     3.6091000000
   55      GH     -4.0140300000     1.8250300000     5.8467700000
   56      GH     -3.6066800000     1.7058000000     4.1051100000
   57      GH      1.0572200000     3.5882300000     3.4094200000
   58      GH      2.2679100000    -0.2261600000     4.5379200000
 ----------------------------------------------------------------

   14    -765.8594620996      6.74E-09 Convergence criterion met
 Total energy in the final basis set = -765.85946210

                    Orbital Energies (a.u.)
 --------------------------------------------------------------

 Alpha MOs
 -- Occupied --
-19.176 -19.174 -19.136 -19.120 -19.116 -10.310 -10.306 -10.242
-10.232 -10.232 -10.230 -10.207 -10.206 -10.182 -10.180  -1.120
 -1.113  -1.065  -1.031  -1.027  -0.833  -0.785  -0.778  -0.740
 -0.729  -0.659  -0.610  -0.596  -0.580  -0.567  -0.551  -0.520
 -0.506  -0.496  -0.489  -0.484  -0.475  -0.473  -0.462  -0.439
 -0.427  -0.425  -0.418  -0.399  -0.385  -0.376  -0.371  -0.369
 -0.362  -0.356  -0.337  -0.334  -0.320  -0.313  -0.290  -0.282
 -0.276

          Ground-State Mulliken Net Atomic Charges

     Atom                 Charge (a.u.)
  ----------------------------------------
      1 C                     0.042611
      2 C                     1.086758
      3 C                    -0.530393
      4 C                    -1.090271
      5 O                     0.030123
      6 O                    -0.152378
      7 O                     0.032466
      8 O                    -0.080530
      9 C                    -0.190080
     10 C                    -0.306741
     11 C                    -0.521485
     12 C                    -0.255822
     13 C                    -0.449100
     14 C                    -0.282536
     15 O                    -0.089735
     16 H                     0.198206
     17 H                     0.382991
     18 H                     0.188774
     19 H                     0.192919
     20 H                     0.213549
     21 H                     0.112128
     22 H                     0.205701
     23 H                     0.091869
     24 H                     0.177389
     25 H                     0.173751
     26 H                     0.131443
     27 H                     0.192970
     28 H                     0.279185
     29 H                     0.269387
     30 GH                    0.020605
     31 GH                    0.005082
     32 GH                   -0.010632
     33 GH                    0.015404
     34 GH                    0.002587
     35 GH                   -0.013287
     36 GH                    0.013492
     37 GH                    0.001011
     38 GH                   -0.051392
     39 GH                    0.005059
     40 GH                   -0.060118
     41 GH                   -0.001714
     42 GH                    0.000195
     43 GH                   -0.038498
     44 GH                    0.017814
     45 GH                   -0.000223
     46 GH                    0.000470
     47 GH                   -0.003603
     48 GH                    0.000739
     49 GH                    0.001862
     50 GH                   -0.000080
     51 GH                    0.002637
     52 GH                   -0.000354
     53 GH                    0.040566
     54 GH                    0.003747
     55 GH                   -0.000286
     56 GH                   -0.007146
     57 GH                    0.004803
     58 GH                   -0.001893
  ----------------------------------------
  Sum of atomic charges =    -0.000000

                    Cartesian Multipole Moments
 -----------------------------------------------------------------
    Charge (ESU x 10^10)
                -0.0000
    Dipole Moment (Debye)
         X      -0.0047      Y       0.7233      Z       1.2187
       Tot       1.4172
    Quadrupole Moments (Debye-Ang)
        XX     -75.2467     XY       2.9677     YY     -89.6821
        XZ       3.3393     YZ      10.6762     ZZ     -95.8040

 Total job time:  6982.03s(wall), 6965.21s(cpu)
        *  Thank you very much for using Q-Chem.  Have a nice day.  *
