 Q-Chem 5.0, Q-Chem, Inc., Pleasanton, CA (2017)
 Q-Chem 5.0.1 for Intel X86 EM64T Linux

User input:
--------------------------------------------------------------
$molecule
0  1
C        -0.54444000        -0.68370000        -0.06689000
C        -0.55709000        +0.71878000        +0.05493000
C        +0.74969000        -1.43776000        -0.09374000
C        +0.72843000        +1.48436000        +0.06598000
O        +1.53645000        -1.09176000        +0.94813000
O        +1.04702000        -2.28405000        -0.90088000
O        +1.53784000        +1.08301000        -0.93877000
O        +1.01035000        +2.37097000        +0.83478000
C        +2.83449000        +1.70121000        -0.99358000
C        +2.82316000        -1.73208000        +1.00475000
C        -1.74320000        -1.41616000        -0.12552000
C        -2.93952000        -0.70056000        -0.05285000
C        -2.95313000        +0.68255000        +0.06934000
C        -1.77161000        +1.42404000        +0.12810000
H        +2.73835000        +2.77989000        -1.12464000
H        +2.70778000        -2.81319000        +1.09555000
H        -3.90354000        +1.20325000        +0.11710000
H        +3.38998000        +1.50093000        -0.07544000
H        +3.33184000        +1.25269000        -1.85067000
H        +3.31095000        -1.32281000        +1.88650000
H        +3.39889000        -1.50934000        +0.10459000
H        -3.87892000        -1.24211000        -0.08988000
H        -1.78886000        +2.45164000        +0.22176000
H        -1.73878000        -2.44393000        -0.21875000
@C        -0.51210000        -1.09350000        +4.61510000
@C        -0.52475000        +0.30898000        +4.73692000
@C        +0.78203000        -1.84756000        +4.58825000
@C        +0.76077000        +1.07456000        +4.74797000
@O        +1.56879000        -1.50156000        +5.63012000
@O        +1.07936000        -2.69385000        +3.78111000
@O        +1.57018000        +0.67321000        +3.74322000
@O        +1.04269000        +1.96117000        +5.51677000
@C        +2.86683000        +1.29141000        +3.68841000
@C        +2.85550000        -2.14188000        +5.68674000
@C        -1.71086000        -1.82596000        +4.55647000
@C        -2.90718000        -1.11036000        +4.62914000
@C        -2.92079000        +0.27275000        +4.75133000
@C        -1.73927000        +1.01424000        +4.81009000
@H        +2.77069000        +2.37009000        +3.55735000
@H        +2.74012000        -3.22299000        +5.77754000
@H        -3.87120000        +0.79345000        +4.79909000
@H        +3.42232000        +1.09113000        +4.60655000
@H        +3.36418000        +0.84289000        +2.83132000
@H        +3.34329000        -1.73261000        +6.56849000
@H        +3.43123000        -1.91914000        +4.78658000
@H        -3.84658000        -1.65191000        +4.59211000
@H        -1.75652000        +2.04184000        +4.90375000
@H        -1.70644000        -2.85373000        +4.46324000
$end

$rem
JOBTYPE                   SP
METHOD                    B3LYP
DFT_D                     d3_op
BASIS                     6-311++G(d,p)
SYMMETRY                  False
THRESH                    12
SCF_CONVERGENCE           8
MAX_SUB_FILE_NUM          128
MEM_STATIC                400
MEM_TOTAL                 4000
$end
--------------------------------------------------------------

             Standard Nuclear Orientation (Angstroms)
    I     Atom           X                Y                Z
 ----------------------------------------------------------------
    1      C      -0.5444400000    -0.6837000000    -0.0668900000
    2      C      -0.5570900000     0.7187800000     0.0549300000
    3      C       0.7496900000    -1.4377600000    -0.0937400000
    4      C       0.7284300000     1.4843600000     0.0659800000
    5      O       1.5364500000    -1.0917600000     0.9481300000
    6      O       1.0470200000    -2.2840500000    -0.9008800000
    7      O       1.5378400000     1.0830100000    -0.9387700000
    8      O       1.0103500000     2.3709700000     0.8347800000
    9      C       2.8344900000     1.7012100000    -0.9935800000
   10      C       2.8231600000    -1.7320800000     1.0047500000
   11      C      -1.7432000000    -1.4161600000    -0.1255200000
   12      C      -2.9395200000    -0.7005600000    -0.0528500000
   13      C      -2.9531300000     0.6825500000     0.0693400000
   14      C      -1.7716100000     1.4240400000     0.1281000000
   15      H       2.7383500000     2.7798900000    -1.1246400000
   16      H       2.7077800000    -2.8131900000     1.0955500000
   17      H      -3.9035400000     1.2032500000     0.1171000000
   18      H       3.3899800000     1.5009300000    -0.0754400000
   19      H       3.3318400000     1.2526900000    -1.8506700000
   20      H       3.3109500000    -1.3228100000     1.8865000000
   21      H       3.3988900000    -1.5093400000     0.1045900000
   22      H      -3.8789200000    -1.2421100000    -0.0898800000
   23      H      -1.7888600000     2.4516400000     0.2217600000
   24      H      -1.7387800000    -2.4439300000    -0.2187500000
   25      GH     -0.5121000000    -1.0935000000     4.6151000000
   26      GH     -0.5247500000     0.3089800000     4.7369200000
   27      GH      0.7820300000    -1.8475600000     4.5882500000
   28      GH      0.7607700000     1.0745600000     4.7479700000
   29      GH      1.5687900000    -1.5015600000     5.6301200000
   30      GH      1.0793600000    -2.6938500000     3.7811100000
   31      GH      1.5701800000     0.6732100000     3.7432200000
   32      GH      1.0426900000     1.9611700000     5.5167700000
   33      GH      2.8668300000     1.2914100000     3.6884100000
   34      GH      2.8555000000    -2.1418800000     5.6867400000
   35      GH     -1.7108600000    -1.8259600000     4.5564700000
   36      GH     -2.9071800000    -1.1103600000     4.6291400000
   37      GH     -2.9207900000     0.2727500000     4.7513300000
   38      GH     -1.7392700000     1.0142400000     4.8100900000
   39      GH      2.7706900000     2.3700900000     3.5573500000
   40      GH      2.7401200000    -3.2229900000     5.7775400000
   41      GH     -3.8712000000     0.7934500000     4.7990900000
   42      GH      3.4223200000     1.0911300000     4.6065500000
   43      GH      3.3641800000     0.8428900000     2.8313200000
   44      GH      3.3432900000    -1.7326100000     6.5684900000
   45      GH      3.4312300000    -1.9191400000     4.7865800000
   46      GH     -3.8465800000    -1.6519100000     4.5921100000
   47      GH     -1.7565200000     2.0418400000     4.9037500000
   48      GH     -1.7064400000    -2.8537300000     4.4632400000
 ----------------------------------------------------------------

   14    -688.2114152038      5.74E-09 Convergence criterion met
 Total energy in the final basis set = -688.21141520

                    Orbital Energies (a.u.)
 --------------------------------------------------------------

 Alpha MOs
 -- Occupied --
-19.178 -19.178 -19.122 -19.122 -10.314 -10.314 -10.233 -10.233
-10.215 -10.214 -10.198 -10.198 -10.197 -10.197  -1.123  -1.116
 -1.033  -1.032  -0.887  -0.800  -0.787  -0.744  -0.733  -0.656
 -0.646  -0.596  -0.579  -0.555  -0.524  -0.516  -0.493  -0.492
 -0.485  -0.479  -0.472  -0.468  -0.440  -0.431  -0.416  -0.408
 -0.389  -0.387  -0.384  -0.369  -0.366  -0.324  -0.315  -0.301
 -0.297  -0.275  -0.272

          Ground-State Mulliken Net Atomic Charges

     Atom                 Charge (a.u.)
  ----------------------------------------
      1 C                     0.921120
      2 C                     0.769880
      3 C                    -0.637594
      4 C                    -0.810317
      5 O                     0.087268
      6 O                    -0.161578
      7 O                     0.091092
      8 O                    -0.115083
      9 C                    -0.161313
     10 C                    -0.381828
     11 C                    -0.281034
     12 C                    -0.312370
     13 C                    -0.276447
     14 C                    -0.510344
     15 H                     0.169123
     16 H                     0.205658
     17 H                     0.184451
     18 H                     0.185061
     19 H                     0.171799
     20 H                     0.114143
     21 H                     0.194814
     22 H                     0.182015
     23 H                     0.201244
     24 H                     0.206920
     25 GH                   -0.040580
     26 GH                   -0.055357
     27 GH                    0.073009
     28 GH                   -0.023573
     29 GH                    0.000278
     30 GH                   -0.005366
     31 GH                   -0.012774
     32 GH                    0.001045
     33 GH                    0.006045
     34 GH                   -0.010732
     35 GH                    0.030545
     36 GH                    0.004482
     37 GH                   -0.004337
     38 GH                    0.000108
     39 GH                    0.001311
     40 GH                    0.000614
     41 GH                   -0.000240
     42 GH                    0.001681
     43 GH                   -0.005933
     44 GH                   -0.000738
     45 GH                    0.003512
     46 GH                    0.000235
     47 GH                    0.000624
     48 GH                   -0.000539
  ----------------------------------------
  Sum of atomic charges =     0.000000

                    Cartesian Multipole Moments
 -----------------------------------------------------------------
    Charge (ESU x 10^10)
                 0.0000
    Dipole Moment (Debye)
         X      -0.0498      Y      -0.1147      Z       0.0880
       Tot       0.1528
    Quadrupole Moments (Debye-Ang)
        XX     -61.3704     XY      -0.0408     YY     -84.3392
        XZ       0.0594     YZ      -9.7092     ZZ     -87.0140

 Total job time:  1251.35s(wall), 2484.69s(cpu)
        *  Thank you very much for using Q-Chem.  Have a nice day.  *
