 Q-Chem 5.0, Q-Chem, Inc., Pleasanton, CA (2017)
 Q-Chem 5.0.1 for Intel X86 EM64T Linux

User input:
--------------------------------------------------------------
$molecule
0  1
--
0  1
C        -0.54444000        -0.68370000        -0.06689000
C        -0.55709000        +0.71878000        +0.05493000
C        +0.74969000        -1.43776000        -0.09374000
C        +0.72843000        +1.48436000        +0.06598000
O        +1.53645000        -1.09176000        +0.94813000
O        +1.04702000        -2.28405000        -0.90088000
O        +1.53784000        +1.08301000        -0.93877000
O        +1.01035000        +2.37097000        +0.83478000
C        +2.83449000        +1.70121000        -0.99358000
C        +2.82316000        -1.73208000        +1.00475000
C        -1.74320000        -1.41616000        -0.12552000
C        -2.93952000        -0.70056000        -0.05285000
C        -2.95313000        +0.68255000        +0.06934000
C        -1.77161000        +1.42404000        +0.12810000
H        +2.73835000        +2.77989000        -1.12464000
H        +2.70778000        -2.81319000        +1.09555000
H        -3.90354000        +1.20325000        +0.11710000
H        +3.38998000        +1.50093000        -0.07544000
H        +3.33184000        +1.25269000        -1.85067000
H        +3.31095000        -1.32281000        +1.88650000
H        +3.39889000        -1.50934000        +0.10459000
H        -3.87892000        -1.24211000        -0.08988000
H        -1.78886000        +2.45164000        +0.22176000
H        -1.73878000        -2.44393000        -0.21875000
--
0  1
C        -0.51210000        -1.09350000        +4.61510000
C        -0.52475000        +0.30898000        +4.73692000
C        +0.78203000        -1.84756000        +4.58825000
C        +0.76077000        +1.07456000        +4.74797000
O        +1.56879000        -1.50156000        +5.63012000
O        +1.07936000        -2.69385000        +3.78111000
O        +1.57018000        +0.67321000        +3.74322000
O        +1.04269000        +1.96117000        +5.51677000
C        +2.86683000        +1.29141000        +3.68841000
C        +2.85550000        -2.14188000        +5.68674000
C        -1.71086000        -1.82596000        +4.55647000
C        -2.90718000        -1.11036000        +4.62914000
C        -2.92079000        +0.27275000        +4.75133000
C        -1.73927000        +1.01424000        +4.81009000
H        +2.77069000        +2.37009000        +3.55735000
H        +2.74012000        -3.22299000        +5.77754000
H        -3.87120000        +0.79345000        +4.79909000
H        +3.42232000        +1.09113000        +4.60655000
H        +3.36418000        +0.84289000        +2.83132000
H        +3.34329000        -1.73261000        +6.56849000
H        +3.43123000        -1.91914000        +4.78658000
H        -3.84658000        -1.65191000        +4.59211000
H        -1.75652000        +2.04184000        +4.90375000
H        -1.70644000        -2.85373000        +4.46324000
$end

$rem
JOBTYPE                   SP
METHOD                    B3LYP
DFT_D                     d3_op
BASIS                     6-311++G(d,p)
SYMMETRY                  False
THRESH                    12
SCF_CONVERGENCE           8
MAX_SUB_FILE_NUM          128
MEM_STATIC                400
MEM_TOTAL                 4000
$end
--------------------------------------------------------------

             Standard Nuclear Orientation (Angstroms)
    I     Atom           X                Y                Z
 ----------------------------------------------------------------
    1      C      -2.3087853188     0.8015299790     0.8624402962
    2      C      -2.4087801686     0.8220090511    -0.5416722074
    3      C      -2.1991412185    -0.4960948531     1.6028778892
    4      C      -2.5003354855    -0.4598977258    -1.3079157383
    5      O      -1.2137613120    -1.2660395036     1.0925720304
    6      O      -2.8592836404    -0.8088406637     2.5633407534
    7      O      -3.4184063257    -1.2856337258    -0.7592310166
    8      O      -1.8764111755    -0.7267212078    -2.3059805174
    9      C      -3.5517146312    -2.5802677660    -1.3696638109
   10      C      -1.0396433058    -2.5545343010     1.7076348140
   11      C      -2.2682200086     1.9961341093     1.6028699645
   12      C      -2.3252340716     3.1964642659     0.8925863994
   13      C      -2.4218366308     3.2178250830    -0.4924480989
   14      C      -2.4639280697     2.0404998014    -1.2417031691
   15      H      -3.8517596848    -2.4814020520    -2.4137752523
   16      H      -0.7818848476    -2.4425036453     2.7618481349
   17      H      -2.4694759598     4.1710689363    -1.0079530223
   18      H      -2.6059633330    -3.1231345215    -1.3195395071
   19      H      -4.3208606860    -3.0920247921    -0.7955126343
   20      H      -0.2264280730    -3.0276116202     1.1619215975
   21      H      -1.9555971244    -3.1423963910     1.6250943304
   22      H      -2.2897327179     4.1328777971     1.4393855727
   23      H      -2.5329570843     2.0635496093    -2.2711375865
   24      H      -2.1989162412     1.9859183639     2.6324889079
   25      C       2.3794928937     0.8358737685     0.5324703242
   26      C       2.2794980439     0.8563528405    -0.8716421794
   27      C       2.4891369940    -0.4617510637     1.2729079172
   28      C       2.1879427269    -0.4255539364    -1.6378857103
   29      O       3.4745169005    -1.2316957142     0.7626020584
   30      O       1.8289945721    -0.7744968742     2.2333707814
   31      O       1.2698718867    -1.2512899364    -1.0892009886
   32      O       2.8118670370    -0.6923774184    -2.6359504894
   33      C       1.1365635813    -2.5459239766    -1.6996337829
   34      C       3.6486349066    -2.5201905116     1.3776648420
   35      C       2.4200582039     2.0304778987     1.2728999925
   36      C       2.3630441408     3.2308080554     0.5626164274
   37      C       2.2664415817     3.2521688724    -0.8224180709
   38      C       2.2243501428     2.0748435908    -1.5716731411
   39      H       0.8365185277    -2.4470582626    -2.7437452243
   40      H       3.9063933648    -2.4081598558     2.4318781629
   41      H       2.2188022526     4.2054127258    -1.3379229943
   42      H       2.0823148795    -3.0887907320    -1.6495094791
   43      H       0.3674175265    -3.0576810027    -1.1254826063
   44      H       4.4618501395    -2.9932678308     0.8319516255
   45      H       2.7326810880    -3.1080526016     1.2951243584
   46      H       2.3985454945     4.1672215865     1.1094156007
   47      H       2.1553211282     2.0978933988    -2.6011075585
   48      H       2.4893619712     2.0202621533     2.3025189359
 ----------------------------------------------------------------

   15   -1376.4285654228      6.76E-09 Convergence criterion met
 Total energy in the final basis set = -1376.42856542

                    Orbital Energies (a.u.)
 --------------------------------------------------------------

 Alpha MOs
 -- Occupied --
-19.178 -19.177 -19.170 -19.169 -19.121 -19.121 -19.115 -19.114
-10.313 -10.313 -10.308 -10.307 -10.234 -10.234 -10.227 -10.225
-10.211 -10.211 -10.210 -10.210 -10.195 -10.195 -10.195 -10.194
-10.194 -10.194 -10.194 -10.193  -1.121  -1.120  -1.111  -1.110
 -1.032  -1.032  -1.026  -1.024  -0.884  -0.883  -0.797  -0.796
 -0.784  -0.783  -0.741  -0.740  -0.729  -0.728  -0.653  -0.652
 -0.643  -0.642  -0.593  -0.592  -0.576  -0.575  -0.552  -0.550
 -0.521  -0.519  -0.513  -0.511  -0.492  -0.491  -0.487  -0.486
 -0.483  -0.479  -0.477  -0.472  -0.469  -0.468  -0.465  -0.463
 -0.439  -0.436  -0.430  -0.424  -0.413  -0.413  -0.404  -0.403
 -0.386  -0.386  -0.385  -0.382  -0.382  -0.378  -0.367  -0.366
 -0.363  -0.358  -0.321  -0.320  -0.310  -0.308  -0.299  -0.298
 -0.293  -0.291  -0.273  -0.271  -0.269  -0.267

          Ground-State Mulliken Net Atomic Charges

     Atom                 Charge (a.u.)
  ----------------------------------------
      1 C                     0.883671
      2 C                     0.758056
      3 C                    -0.652457
      4 C                    -0.775014
      5 O                     0.101069
      6 O                    -0.167257
      7 O                     0.096264
      8 O                    -0.131480
      9 C                    -0.164019
     10 C                    -0.362845
     11 C                    -0.276236
     12 C                    -0.314209
     13 C                    -0.271354
     14 C                    -0.498606
     15 H                     0.169603
     16 H                     0.217552
     17 H                     0.180111
     18 H                     0.180531
     19 H                     0.172342
     20 H                     0.085141
     21 H                     0.189172
     22 H                     0.177569
     23 H                     0.197726
     24 H                     0.207589
     25 C                     0.740196
     26 C                     0.923991
     27 C                    -0.839114
     28 C                    -0.620203
     29 O                     0.104537
     30 O                    -0.120815
     31 O                     0.080543
     32 O                    -0.169240
     33 C                    -0.368199
     34 C                    -0.156255
     35 C                    -0.487632
     36 C                    -0.268717
     37 C                    -0.318357
     38 C                    -0.281605
     39 H                     0.219471
     40 H                     0.168480
     41 H                     0.177518
     42 H                     0.194153
     43 H                     0.082003
     44 H                     0.172268
     45 H                     0.179389
     46 H                     0.180351
     47 H                     0.208041
     48 H                     0.196275
  ----------------------------------------
  Sum of atomic charges =    -0.000000

                    Cartesian Multipole Moments
 -----------------------------------------------------------------
    Charge (ESU x 10^10)
                -0.0000
    Dipole Moment (Debye)
         X       0.1950      Y       0.2159      Z       0.2016
       Tot       0.3539
    Quadrupole Moments (Debye-Ang)
        XX    -169.4794     XY      -0.9106     YY    -125.3700
        XZ      18.7892     YZ       0.5779     ZZ    -174.6331

 Total job time:  1327.72s(wall), 2643.71s(cpu)
        *  Thank you very much for using Q-Chem.  Have a nice day.  *
