 Q-Chem 5.0, Q-Chem, Inc., Pleasanton, CA (2017)
 Q-Chem 5.0.1 for Intel X86 EM64T Linux

User input:
--------------------------------------------------------------
$molecule
0  1
--
0  1
C        +0.22270000        +1.04488000        +0.58595000
C        +0.62626000        -0.41353000        +0.99871000
C        -1.18200000        +1.23223000        +0.04377000
C        -0.37457000        -1.51643000        +0.72333000
O        -2.09172000        +0.78832000        +0.93966000
O        -1.47336000        +1.75939000        -0.99882000
O        -0.91364000        -1.42792000        -0.50620000
O        -0.62208000        -2.40877000        +1.49911000
C        -1.86134000        -2.44741000        -0.86560000
C        -3.47068000        +0.87492000        +0.53920000
C        +1.33008000        +1.39974000        -0.43491000
C        +2.63070000        +1.71700000        +0.32855000
C        +3.04336000        +0.29351000        +0.80300000
C        +1.94423000        -0.59299000        +0.15262000
O        +1.62840000        +0.13663000        -1.04376000
H        +0.27811000        +1.68786000        +1.46900000
H        +0.83923000        -0.48042000        +2.06408000
H        -2.68749000        -2.46677000        -0.15296000
H        -3.76076000        +1.91522000        +0.38406000
H        +3.37234000        +2.13782000        -0.35195000
H        +2.48236000        +2.42488000        +1.14651000
H        +4.02182000        +0.00994000        +0.41161000
H        +3.07359000        +0.18738000        +1.88928000
H        -2.21148000        -2.17765000        -1.85937000
H        -1.38062000        -3.42697000        -0.88096000
H        -4.03855000        +0.43623000        +1.35671000
H        -3.63120000        +0.31700000        -0.38495000
C        +2.35450000        -2.01267000        -0.16812000
H        +3.26311000        -2.00678000        -0.77366000
H        +2.54990000        -2.57059000        +0.75079000
H        +1.57335000        -2.52896000        -0.72872000
H        +1.03270000        +2.19943000        -1.08064000
--
0  1
C        +0.24722000        +2.43368000        +5.07601000
C        +0.65078000        +0.97527000        +5.48877000
C        -1.15748000        +2.62103000        +4.53383000
C        -0.35005000        -0.12763000        +5.21339000
O        -2.06720000        +2.17712000        +5.42972000
O        -1.44884000        +3.14819000        +3.49124000
O        -0.88912000        -0.03912000        +3.98386000
O        -0.59756000        -1.01997000        +5.98917000
C        -1.83682000        -1.05861000        +3.62446000
C        -3.44616000        +2.26372000        +5.02926000
C        +1.35460000        +2.78854000        +4.05515000
C        +2.65522000        +3.10580000        +4.81861000
C        +3.06788000        +1.68231000        +5.29306000
C        +1.96875000        +0.79581000        +4.64268000
O        +1.65292000        +1.52543000        +3.44630000
H        +0.30263000        +3.07666000        +5.95906000
H        +0.86375000        +0.90838000        +6.55414000
H        -2.66297000        -1.07797000        +4.33710000
H        -3.73624000        +3.30402000        +4.87412000
H        +3.39686000        +3.52662000        +4.13811000
H        +2.50688000        +3.81368000        +5.63657000
H        +4.04634000        +1.39874000        +4.90167000
H        +3.09811000        +1.57618000        +6.37934000
H        -2.18696000        -0.78885000        +2.63069000
H        -1.35610000        -2.03817000        +3.60910000
H        -4.01403000        +1.82503000        +5.84677000
H        -3.60668000        +1.70580000        +4.10511000
C        +2.37902000        -0.62387000        +4.32194000
H        +3.28763000        -0.61798000        +3.71640000
H        +2.57442000        -1.18179000        +5.24085000
H        +1.59787000        -1.14016000        +3.76134000
H        +1.05722000        +3.58823000        +3.40942000
$end

$rem
JOBTYPE                   SP
METHOD                    B3LYP
DFT_D                     d3_op
BASIS                     6-311++G(d,p)
SYMMETRY                  False
THRESH                    12
SCF_CONVERGENCE           8
MAX_SUB_FILE_NUM          128
MEM_STATIC                400
MEM_TOTAL                 4000
$end
--------------------------------------------------------------

             Standard Nuclear Orientation (Angstroms)
    I     Atom           X                Y                Z
 ----------------------------------------------------------------
    1      C      -1.4770535734     0.2199580154     1.1421090778
    2      C      -1.6507053936     0.5838348899    -0.3736844058
    3      C      -1.9468949881    -1.1588492206     1.5668218230
    4      C      -2.3633350081    -0.4223218892    -1.2532813655
    5      O      -1.3220811062    -2.1104789018     0.8379363579
    6      O      -2.7114513584    -1.4000278430     2.4651918203
    7      O      -3.4779983716    -0.9103738332    -0.6792557634
    8      O      -2.0028807565    -0.7145670298    -2.3686431877
    9      C      -4.2339949250    -1.8587869110    -1.4510364027
   10      C      -1.6997177437    -3.4708096905     1.1141412970
   11      C      -2.2454631824     1.3726667327     1.8314424582
   12      C      -1.3790990079     2.6465409545     1.7890744533
   13      C      -1.4820941702     3.0175903771     0.2812849519
   14      C      -2.4591189448     1.9315960281    -0.2506943851
   15      O      -3.2874685938     1.6752833361     0.8945390849
   16      H      -0.4123860006     0.2500859094     1.3907978802
   17      H      -0.6888773398     0.7529859757    -0.8544321930
   18      H      -3.6105570865    -2.7129584221    -1.7202402155
   19      H      -1.4476301149    -3.7381476464     2.1414782236
   20      H      -1.8196657562     3.4212764635     2.4182687345
   21      H      -0.3554519946     2.4767231349     2.1288775021
   22      H      -1.9225768491     4.0063540472     0.1423480490
   23      H      -0.5218638591     3.0027203038    -0.2382516675
   24      H      -5.0553311255    -2.1646692595    -0.8069943817
   25      H      -4.6136724788    -1.3932205351    -2.3620568999
   26      H      -1.1345519923    -4.0776903084     0.4102013548
   27      H      -2.7724485287    -3.6029775224     0.9628966396
   28      C      -3.2931090635     2.3320960805    -1.4468328022
   29      H      -3.8205967743     3.2641607639    -1.2340003403
   30      H      -2.6573614325     2.4818646204    -2.3227584889
   31      H      -4.0339254077     1.5659924960    -1.6819912351
   32      H      -2.5388703639     1.1138771672     2.8273573040
   33      C       3.1984271578     0.0867423561     0.6815235866
   34      C       3.0247753375     0.4506192307    -0.8342698969
   35      C       2.7285857430    -1.2920648798     1.1062363318
   36      C       2.3121457231    -0.5555375485    -1.7138668567
   37      O       3.3533996250    -2.2436945611     0.3773508667
   38      O       1.9640293727    -1.5332435023     2.0046063291
   39      O       1.1974823596    -1.0435894925    -1.1398412545
   40      O       2.6725999747    -0.8477826891    -2.8292286789
   41      C       0.4414858062    -1.9920025703    -1.9116218939
   42      C       2.9757629875    -3.6040253498     0.6535558059
   43      C       2.4300175488     1.2394510734     1.3708569670
   44      C       3.2963817232     2.5133252952     1.3284889622
   45      C       3.1933865610     2.8843747179    -0.1793005393
   46      C       2.2163617863     1.7983803689    -0.7112798762
   47      O       1.3880121374     1.5420676768     0.4339535937
   48      H       4.2630947306     0.1168702502     0.9302123890
   49      H       3.9866033913     0.6197703164    -1.3150176842
   50      H       1.0649236447    -2.8461740814    -2.1808257067
   51      H       3.2278506163    -3.8713633057     1.6808927325
   52      H       2.8558149749     3.2880608042     1.9576832433
   53      H       4.3200287365     2.3435074756     1.6682920109
   54      H       2.7529038821     3.8731383879    -0.3182374422
   55      H       4.1536168720     2.8695046445    -0.6988371587
   56      H      -0.3798503943    -2.2978849188    -1.2675798729
   57      H       0.0618082524    -1.5264361944    -2.8226423911
   58      H       3.5409287389    -4.2109059676    -0.0503841364
   59      H       1.9030322025    -3.7361931817     0.5023111485
   60      C       1.3823716677     2.1988804213    -1.9074182933
   61      H       0.8548839568     3.1309451046    -1.6945858315
   62      H       2.0181192987     2.3486489611    -2.7833439801
   63      H       0.6415553235     1.4327768367    -2.1425767262
   64      H       2.1366103672     0.9806615079     2.3667718128
 ----------------------------------------------------------------

   15   -1610.4044719114      5.07E-09 Convergence criterion met
 Total energy in the final basis set = -1610.40447191

                    Orbital Energies (a.u.)
 --------------------------------------------------------------

 Alpha MOs
 -- Occupied --
-19.179 -19.170 -19.170 -19.168 -19.145 -19.125 -19.119 -19.115
-19.114 -19.109 -10.314 -10.305 -10.302 -10.298 -10.255 -10.240
-10.235 -10.235 -10.229 -10.228 -10.215 -10.212 -10.211 -10.209
-10.191 -10.188 -10.187 -10.187 -10.179 -10.165 -10.164 -10.164
 -1.122  -1.116  -1.112  -1.107  -1.077  -1.051  -1.036  -1.027
 -1.025  -1.021  -0.840  -0.820  -0.805  -0.791  -0.785  -0.772
 -0.747  -0.741  -0.727  -0.723  -0.704  -0.688  -0.660  -0.645
 -0.613  -0.599  -0.597  -0.580  -0.569  -0.566  -0.564  -0.554
 -0.540  -0.525  -0.523  -0.516  -0.510  -0.503  -0.498  -0.494
 -0.488  -0.483  -0.483  -0.479  -0.476  -0.473  -0.469  -0.466
 -0.465  -0.453  -0.448  -0.439  -0.434  -0.428  -0.427  -0.418
 -0.416  -0.410  -0.409  -0.400  -0.397  -0.397  -0.390  -0.386
 -0.381  -0.376  -0.374  -0.370  -0.369  -0.365  -0.364  -0.360
 -0.354  -0.350  -0.343  -0.341  -0.339  -0.336  -0.323  -0.322
 -0.319  -0.316  -0.308  -0.306  -0.295  -0.289  -0.282  -0.280
 -0.274  -0.262

          Ground-State Mulliken Net Atomic Charges

     Atom                 Charge (a.u.)
  ----------------------------------------
      1 C                     0.291978
      2 C                     0.321946
      3 C                    -0.496113
      4 C                    -0.254321
      5 O                     0.010032
      6 O                    -0.157389
      7 O                     0.105449
      8 O                    -0.081974
      9 C                    -0.165622
     10 C                    -0.300082
     11 C                    -0.625032
     12 C                    -0.341803
     13 C                     0.006159
     14 C                    -0.609950
     15 O                     0.028664
     16 H                     0.293740
     17 H                    -0.186739
     18 H                     0.191679
     19 H                     0.201864
     20 H                     0.195912
     21 H                     0.121266
     22 H                     0.196612
     23 H                     0.048942
     24 H                     0.179911
     25 H                     0.173462
     26 H                     0.116026
     27 H                     0.194367
     28 C                    -0.332311
     29 H                     0.188527
     30 H                     0.160347
     31 H                     0.189540
     32 H                     0.276024
     33 C                    -0.032571
     34 C                     0.334696
     35 C                    -0.669247
     36 C                    -0.756624
     37 O                     0.051718
     38 O                    -0.093765
     39 O                     0.053908
     40 O                    -0.086406
     41 C                    -0.382818
     42 C                    -0.165172
     43 C                    -0.087972
     44 C                    -0.739006
     45 C                    -0.259674
     46 C                    -0.306956
     47 O                     0.265837
     48 H                     0.249676
     49 H                     0.289621
     50 H                     0.216205
     51 H                     0.169112
     52 H                     0.175559
     53 H                     0.144317
     54 H                     0.170879
     55 H                     0.148616
     56 H                     0.124598
     57 H                     0.249584
     58 H                     0.169181
     59 H                     0.184075
     60 C                    -0.317579
     61 H                     0.216706
     62 H                     0.201657
     63 H                     0.264103
     64 H                     0.276632
  ----------------------------------------
  Sum of atomic charges =     0.000000

                    Cartesian Multipole Moments
 -----------------------------------------------------------------
    Charge (ESU x 10^10)
                 0.0000
    Dipole Moment (Debye)
         X       3.2086      Y       0.0826      Z       0.0438
       Tot       3.2100
    Quadrupole Moments (Debye-Ang)
        XX    -188.1431     XY       9.8994     YY    -166.1863
        XZ      19.4182     YZ      -0.2225     ZZ    -209.6008

 Total job time:  7528.62s(wall), 7511.23s(cpu)
        *  Thank you very much for using Q-Chem.  Have a nice day.  *
