 Q-Chem 5.0, Q-Chem, Inc., Pleasanton, CA (2017)
 Q-Chem 5.0.1 for Intel X86 EM64T Linux

User input:
--------------------------------------------------------------
$molecule
0  1
C        +0.22270000        +1.04488000        +0.58595000
C        +0.62626000        -0.41353000        +0.99871000
C        -1.18200000        +1.23223000        +0.04377000
C        -0.37457000        -1.51643000        +0.72333000
O        -2.09172000        +0.78832000        +0.93966000
O        -1.47336000        +1.75939000        -0.99882000
O        -0.91364000        -1.42792000        -0.50620000
O        -0.62208000        -2.40877000        +1.49911000
C        -1.86134000        -2.44741000        -0.86560000
C        -3.47068000        +0.87492000        +0.53920000
C        +1.33008000        +1.39974000        -0.43491000
C        +2.63070000        +1.71700000        +0.32855000
C        +3.04336000        +0.29351000        +0.80300000
C        +1.94423000        -0.59299000        +0.15262000
O        +1.62840000        +0.13663000        -1.04376000
H        +0.27811000        +1.68786000        +1.46900000
H        +0.83923000        -0.48042000        +2.06408000
H        -2.68749000        -2.46677000        -0.15296000
H        -3.76076000        +1.91522000        +0.38406000
H        +3.37234000        +2.13782000        -0.35195000
H        +2.48236000        +2.42488000        +1.14651000
H        +4.02182000        +0.00994000        +0.41161000
H        +3.07359000        +0.18738000        +1.88928000
H        -2.21148000        -2.17765000        -1.85937000
H        -1.38062000        -3.42697000        -0.88096000
H        -4.03855000        +0.43623000        +1.35671000
H        -3.63120000        +0.31700000        -0.38495000
C        +2.35450000        -2.01267000        -0.16812000
H        +3.26311000        -2.00678000        -0.77366000
H        +2.54990000        -2.57059000        +0.75079000
H        +1.57335000        -2.52896000        -0.72872000
H        +1.03270000        +2.19943000        -1.08064000
@C        +0.24722000        +2.43368000        +5.07601000
@C        +0.65078000        +0.97527000        +5.48877000
@C        -1.15748000        +2.62103000        +4.53383000
@C        -0.35005000        -0.12763000        +5.21339000
@O        -2.06720000        +2.17712000        +5.42972000
@O        -1.44884000        +3.14819000        +3.49124000
@O        -0.88912000        -0.03912000        +3.98386000
@O        -0.59756000        -1.01997000        +5.98917000
@C        -1.83682000        -1.05861000        +3.62446000
@C        -3.44616000        +2.26372000        +5.02926000
@C        +1.35460000        +2.78854000        +4.05515000
@C        +2.65522000        +3.10580000        +4.81861000
@C        +3.06788000        +1.68231000        +5.29306000
@C        +1.96875000        +0.79581000        +4.64268000
@O        +1.65292000        +1.52543000        +3.44630000
@H        +0.30263000        +3.07666000        +5.95906000
@H        +0.86375000        +0.90838000        +6.55414000
@H        -2.66297000        -1.07797000        +4.33710000
@H        -3.73624000        +3.30402000        +4.87412000
@H        +3.39686000        +3.52662000        +4.13811000
@H        +2.50688000        +3.81368000        +5.63657000
@H        +4.04634000        +1.39874000        +4.90167000
@H        +3.09811000        +1.57618000        +6.37934000
@H        -2.18696000        -0.78885000        +2.63069000
@H        -1.35610000        -2.03817000        +3.60910000
@H        -4.01403000        +1.82503000        +5.84677000
@H        -3.60668000        +1.70580000        +4.10511000
@C        +2.37902000        -0.62387000        +4.32194000
@H        +3.28763000        -0.61798000        +3.71640000
@H        +2.57442000        -1.18179000        +5.24085000
@H        +1.59787000        -1.14016000        +3.76134000
@H        +1.05722000        +3.58823000        +3.40942000
$end

$rem
JOBTYPE                   SP
METHOD                    B3LYP
DFT_D                     d3_op
BASIS                     6-311++G(d,p)
SYMMETRY                  False
THRESH                    12
SCF_CONVERGENCE           8
MAX_SUB_FILE_NUM          128
MEM_STATIC                400
MEM_TOTAL                 4000
$end
--------------------------------------------------------------

             Standard Nuclear Orientation (Angstroms)
    I     Atom           X                Y                Z
 ----------------------------------------------------------------
    1      C       0.2227000000     1.0448800000     0.5859500000
    2      C       0.6262600000    -0.4135300000     0.9987100000
    3      C      -1.1820000000     1.2322300000     0.0437700000
    4      C      -0.3745700000    -1.5164300000     0.7233300000
    5      O      -2.0917200000     0.7883200000     0.9396600000
    6      O      -1.4733600000     1.7593900000    -0.9988200000
    7      O      -0.9136400000    -1.4279200000    -0.5062000000
    8      O      -0.6220800000    -2.4087700000     1.4991100000
    9      C      -1.8613400000    -2.4474100000    -0.8656000000
   10      C      -3.4706800000     0.8749200000     0.5392000000
   11      C       1.3300800000     1.3997400000    -0.4349100000
   12      C       2.6307000000     1.7170000000     0.3285500000
   13      C       3.0433600000     0.2935100000     0.8030000000
   14      C       1.9442300000    -0.5929900000     0.1526200000
   15      O       1.6284000000     0.1366300000    -1.0437600000
   16      H       0.2781100000     1.6878600000     1.4690000000
   17      H       0.8392300000    -0.4804200000     2.0640800000
   18      H      -2.6874900000    -2.4667700000    -0.1529600000
   19      H      -3.7607600000     1.9152200000     0.3840600000
   20      H       3.3723400000     2.1378200000    -0.3519500000
   21      H       2.4823600000     2.4248800000     1.1465100000
   22      H       4.0218200000     0.0099400000     0.4116100000
   23      H       3.0735900000     0.1873800000     1.8892800000
   24      H      -2.2114800000    -2.1776500000    -1.8593700000
   25      H      -1.3806200000    -3.4269700000    -0.8809600000
   26      H      -4.0385500000     0.4362300000     1.3567100000
   27      H      -3.6312000000     0.3170000000    -0.3849500000
   28      C       2.3545000000    -2.0126700000    -0.1681200000
   29      H       3.2631100000    -2.0067800000    -0.7736600000
   30      H       2.5499000000    -2.5705900000     0.7507900000
   31      H       1.5733500000    -2.5289600000    -0.7287200000
   32      H       1.0327000000     2.1994300000    -1.0806400000
   33      GH      0.2472200000     2.4336800000     5.0760100000
   34      GH      0.6507800000     0.9752700000     5.4887700000
   35      GH     -1.1574800000     2.6210300000     4.5338300000
   36      GH     -0.3500500000    -0.1276300000     5.2133900000
   37      GH     -2.0672000000     2.1771200000     5.4297200000
   38      GH     -1.4488400000     3.1481900000     3.4912400000
   39      GH     -0.8891200000    -0.0391200000     3.9838600000
   40      GH     -0.5975600000    -1.0199700000     5.9891700000
   41      GH     -1.8368200000    -1.0586100000     3.6244600000
   42      GH     -3.4461600000     2.2637200000     5.0292600000
   43      GH      1.3546000000     2.7885400000     4.0551500000
   44      GH      2.6552200000     3.1058000000     4.8186100000
   45      GH      3.0678800000     1.6823100000     5.2930600000
   46      GH      1.9687500000     0.7958100000     4.6426800000
   47      GH      1.6529200000     1.5254300000     3.4463000000
   48      GH      0.3026300000     3.0766600000     5.9590600000
   49      GH      0.8637500000     0.9083800000     6.5541400000
   50      GH     -2.6629700000    -1.0779700000     4.3371000000
   51      GH     -3.7362400000     3.3040200000     4.8741200000
   52      GH      3.3968600000     3.5266200000     4.1381100000
   53      GH      2.5068800000     3.8136800000     5.6365700000
   54      GH      4.0463400000     1.3987400000     4.9016700000
   55      GH      3.0981100000     1.5761800000     6.3793400000
   56      GH     -2.1869600000    -0.7888500000     2.6306900000
   57      GH     -1.3561000000    -2.0381700000     3.6091000000
   58      GH     -4.0140300000     1.8250300000     5.8467700000
   59      GH     -3.6066800000     1.7058000000     4.1051100000
   60      GH      2.3790200000    -0.6238700000     4.3219400000
   61      GH      3.2876300000    -0.6179800000     3.7164000000
   62      GH      2.5744200000    -1.1817900000     5.2408500000
   63      GH      1.5978700000    -1.1401600000     3.7613400000
   64      GH      1.0572200000     3.5882300000     3.4094200000
 ----------------------------------------------------------------

   14    -805.1975883627      6.72E-09 Convergence criterion met
 Total energy in the final basis set = -805.19758836

                    Orbital Energies (a.u.)
 --------------------------------------------------------------

 Alpha MOs
 -- Occupied --
-19.175 -19.173 -19.131 -19.119 -19.116 -10.309 -10.306 -10.246
-10.232 -10.230 -10.228 -10.205 -10.204 -10.180 -10.178 -10.171
 -1.120  -1.113  -1.063  -1.030  -1.027  -0.832  -0.796  -0.784
 -0.746  -0.729  -0.697  -0.655  -0.606  -0.590  -0.569  -0.562
 -0.534  -0.518  -0.510  -0.492  -0.490  -0.483  -0.476  -0.472
 -0.461  -0.443  -0.434  -0.425  -0.416  -0.405  -0.397  -0.389
 -0.381  -0.374  -0.369  -0.361  -0.355  -0.351  -0.333  -0.332
 -0.320  -0.313  -0.289  -0.281  -0.274

          Ground-State Mulliken Net Atomic Charges

     Atom                 Charge (a.u.)
  ----------------------------------------
      1 C                     0.135985
      2 C                     0.259165
      3 C                    -0.450855
      4 C                    -0.258541
      5 O                     0.034137
      6 O                    -0.149541
      7 O                     0.092175
      8 O                    -0.067211
      9 C                    -0.169231
     10 C                    -0.320481
     11 C                    -0.574135
     12 C                    -0.326334
     13 C                    -0.086560
     14 C                    -0.555170
     15 O                     0.034957
     16 H                     0.219701
     17 H                    -0.020408
     18 H                     0.195675
     19 H                     0.194533
     20 H                     0.206791
     21 H                     0.134116
     22 H                     0.204345
     23 H                     0.107802
     24 H                     0.178789
     25 H                     0.173839
     26 H                     0.127184
     27 H                     0.193733
     28 C                    -0.329017
     29 H                     0.190464
     30 H                     0.168022
     31 H                     0.193438
     32 H                     0.282316
     33 GH                    0.016107
     34 GH                    0.009999
     35 GH                   -0.015530
     36 GH                    0.008372
     37 GH                    0.002603
     38 GH                   -0.012851
     39 GH                    0.013731
     40 GH                    0.002295
     41 GH                   -0.058298
     42 GH                    0.002796
     43 GH                   -0.037706
     44 GH                   -0.009550
     45 GH                   -0.000201
     46 GH                   -0.092311
     47 GH                    0.014050
     48 GH                   -0.000374
     49 GH                    0.000473
     50 GH                   -0.004847
     51 GH                    0.000716
     52 GH                    0.002849
     53 GH                   -0.000057
     54 GH                   -0.000627
     55 GH                    0.000215
     56 GH                    0.048773
     57 GH                    0.007105
     58 GH                   -0.000358
     59 GH                   -0.006135
     60 GH                    0.061170
     61 GH                    0.014258
     62 GH                   -0.002116
     63 GH                    0.013604
     64 GH                    0.002165
  ----------------------------------------
  Sum of atomic charges =     0.000000

                    Cartesian Multipole Moments
 -----------------------------------------------------------------
    Charge (ESU x 10^10)
                 0.0000
    Dipole Moment (Debye)
         X       0.0562      Y       0.4821      Z       1.1185
       Tot       1.2193
    Quadrupole Moments (Debye-Ang)
        XX     -81.7775     XY       2.5773     YY     -96.2127
        XZ       3.0643     YZ      10.8374     ZZ    -102.2108

 Total job time:  9237.20s(wall), 9199.30s(cpu)
        *  Thank you very much for using Q-Chem.  Have a nice day.  *
