 Q-Chem 5.0, Q-Chem, Inc., Pleasanton, CA (2017)
 Q-Chem 5.0.1 for Intel X86 EM64T Linux

User input:
--------------------------------------------------------------
$molecule
0  1
--
0  1
C        +0.22270000        +1.04488000        +0.58595000
C        +0.62626000        -0.41353000        +0.99871000
C        -1.18200000        +1.23223000        +0.04377000
C        -0.37457000        -1.51643000        +0.72333000
O        -2.09172000        +0.78832000        +0.93966000
O        -1.47336000        +1.75939000        -0.99882000
O        -0.91364000        -1.42792000        -0.50620000
O        -0.62208000        -2.40877000        +1.49911000
C        -1.86134000        -2.44741000        -0.86560000
C        -3.47068000        +0.87492000        +0.53920000
C        +1.33008000        +1.39974000        -0.43491000
C        +2.63070000        +1.71700000        +0.32855000
C        +3.04336000        +0.29351000        +0.80300000
C        +1.94423000        -0.59299000        +0.15262000
O        +1.62840000        +0.13663000        -1.04376000
H        +0.27811000        +1.68786000        +1.46900000
H        +0.83923000        -0.48042000        +2.06408000
H        -2.68749000        -2.46677000        -0.15296000
H        -3.76076000        +1.91522000        +0.38406000
H        +3.37234000        +2.13782000        -0.35195000
H        +2.48236000        +2.42488000        +1.14651000
H        +4.02182000        +0.00994000        +0.41161000
H        +3.07359000        +0.18738000        +1.88928000
H        -2.21148000        -2.17765000        -1.85937000
H        -1.38062000        -3.42697000        -0.88096000
H        -4.03855000        +0.43623000        +1.35671000
H        -3.63120000        +0.31700000        -0.38495000
C        +0.90028000        +2.39077000        -1.49430000
C        +2.35450000        -2.01267000        -0.16812000
H        +3.26311000        -2.00678000        -0.77366000
H        +2.54990000        -2.57059000        +0.75079000
H        +1.57335000        -2.52896000        -0.72872000
H        +1.71845000        +2.58186000        -2.15686000
H        +0.59919000        +3.30478000        -1.02650000
H        +0.07925000        +1.98653000        -2.04874000
--
0  1
C        +0.24722000        +2.43368000        +5.07601000
C        +0.65078000        +0.97527000        +5.48877000
C        -1.15748000        +2.62103000        +4.53383000
C        -0.35005000        -0.12763000        +5.21339000
O        -2.06720000        +2.17712000        +5.42972000
O        -1.44884000        +3.14819000        +3.49124000
O        -0.88912000        -0.03912000        +3.98386000
O        -0.59756000        -1.01997000        +5.98917000
C        -1.83682000        -1.05861000        +3.62446000
C        -3.44616000        +2.26372000        +5.02926000
C        +1.35460000        +2.78854000        +4.05515000
C        +2.65522000        +3.10580000        +4.81861000
C        +3.06788000        +1.68231000        +5.29306000
C        +1.96875000        +0.79581000        +4.64268000
O        +1.65292000        +1.52543000        +3.44630000
H        +0.30263000        +3.07666000        +5.95906000
H        +0.86375000        +0.90838000        +6.55414000
H        -2.66297000        -1.07797000        +4.33710000
H        -3.73624000        +3.30402000        +4.87412000
H        +3.39686000        +3.52662000        +4.13811000
H        +2.50688000        +3.81368000        +5.63657000
H        +4.04634000        +1.39874000        +4.90167000
H        +3.09811000        +1.57618000        +6.37934000
H        -2.18696000        -0.78885000        +2.63069000
H        -1.35610000        -2.03817000        +3.60910000
H        -4.01403000        +1.82503000        +5.84677000
H        -3.60668000        +1.70580000        +4.10511000
C        +0.92480000        +3.77957000        +2.99576000
C        +2.37902000        -0.62387000        +4.32194000
H        +3.28763000        -0.61798000        +3.71640000
H        +2.57442000        -1.18179000        +5.24085000
H        +1.59787000        -1.14016000        +3.76134000
H        +1.74297000        +3.97066000        +2.33320000
H        +0.62371000        +4.69358000        +3.46356000
H        +0.10377000        +3.37533000        +2.44132000
$end

$rem
JOBTYPE                   SP
METHOD                    B3LYP
DFT_D                     d3_op
BASIS                     6-311++G(d,p)
SYMMETRY                  False
THRESH                    12
SCF_CONVERGENCE           8
MAX_SUB_FILE_NUM          128
MEM_STATIC                400
MEM_TOTAL                 4000
$end
--------------------------------------------------------------

             Standard Nuclear Orientation (Angstroms)
    I     Atom           X                Y                Z
 ----------------------------------------------------------------
    1      C      -1.4765540506     0.2606440187     0.8704445261
    2      C      -1.6009992777     0.4102670097    -0.6859351080
    3      C      -1.9367651618    -1.0577056251     1.4640784323
    4      C      -2.2626511172    -0.7224992442    -1.4428635727
    5      O      -1.2686016283    -2.0853453162     0.8941840417
    6      O      -2.7293009324    -1.1914799658     2.3606127046
    7      O      -3.3886578874    -1.1530221442    -0.8454246284
    8      O      -1.8563167740    -1.1558579852    -2.4947471629
    9      C      -4.0986354541    -2.2148822685    -1.5050066485
   10      C      -1.6315691062    -3.4035488060     1.3413893889
   11      C      -2.2903618600     1.4787525864     1.3687412149
   12      C      -1.4460978621     2.7543995199     1.1814428789
   13      C      -1.5003682192     2.9138326759    -0.3656029043
   14      C      -2.4375106451     1.7433770824    -0.7764081243
   15      O      -3.3025709359     1.6268339808     0.3644281639
   16      H      -0.4224421287     0.3487387189     1.1485780031
   17      H      -0.6253818390     0.5341871461    -1.1524735770
   18      H      -3.4504660065    -3.0833213486    -1.6332421075
   19      H      -1.4125708204    -3.5224047386     2.4036285023
   20      H      -1.9233264455     3.5974558215     1.6831485332
   21      H      -0.4327158472     2.6559631398     1.5758089304
   22      H      -1.9531841992     3.8640715865    -0.6536753769
   23      H      -0.5216115583     2.8501724472    -0.8453574689
   24      H      -4.9374080814    -2.4487318375    -0.8532995449
   25      H      -4.4529527954    -1.8867509998    -2.4836048980
   26      H      -1.0301248617    -4.0877133968     0.7468883488
   27      H      -2.6954757405    -3.5795932805     1.1734440532
   28      C      -2.9363891483     1.2792746518     2.7222673393
   29      C      -3.2341293368     1.9577891681    -2.0437332761
   30      H      -3.7857627962     2.8978750025    -1.9787358443
   31      H      -2.5694726810     2.0011504970    -2.9098757584
   32      H      -3.9519087698     1.1500400534    -2.1965635738
   33      H      -3.4770686728     2.1620410027     2.9929932380
   34      H      -2.1796554302     1.0861416637     3.4536769625
   35      H      -3.6093119404     0.4485754848     2.6773478351
   36      C       3.2143169235     0.1727189398     0.5911522786
   37      C       3.0898716963     0.3223419307    -0.9652273555
   38      C       2.7541058123    -1.1456307041     1.1847861848
   39      C       2.4282198568    -0.8104243232    -1.7221558202
   40      O       3.4222693457    -2.1732703952     0.6148917942
   41      O       1.9615700417    -1.2794050447     2.0813204571
   42      O       1.3022130867    -1.2409472231    -1.1247168759
   43      O       2.8345542000    -1.2437830642    -2.7740394104
   44      C       0.5922355199    -2.3028073474    -1.7842988960
   45      C       3.0593018679    -3.4914738850     1.0620971414
   46      C       2.4005091140     1.3908275075     1.0894489674
   47      C       3.2447731119     2.6664744409     0.9021506314
   48      C       3.1905027548     2.8259075969    -0.6448951518
   49      C       2.2533603290     1.6554520035    -1.0557003718
   50      O       1.3883000382     1.5389089018     0.0851359164
   51      H       4.2684288453     0.2608136399     0.8692857556
   52      H       4.0654891350     0.4462620672    -1.4317658245
   53      H       1.2404049676    -3.1712464276    -1.9125343550
   54      H       3.2783001536    -3.6103298176     2.1243362548
   55      H       2.7675445286     3.5095307425     1.4038562857
   56      H       4.2581551268     2.5680380608     1.2965166829
   57      H       2.7376867748     3.7761465076    -0.9329676244
   58      H       4.1692594157     2.7622473682    -1.1246497164
   59      H      -0.2465371074    -2.5366569165    -1.1325917924
   60      H       0.2379181786    -1.9746760788    -2.7628971454
   61      H       3.6607461123    -4.1756384757     0.4675961013
   62      H       1.9953952335    -3.6675183595     0.8941518057
   63      C       1.7544818257     1.1913495729     2.4429750918
   64      C       1.4567416372     1.8698640891    -2.3230255236
   65      H       0.9051081778     2.8099499236    -2.2580280918
   66      H       2.1213982930     1.9132254181    -3.1891680058
   67      H       0.7389622042     1.0621149744    -2.4758558213
   68      H       1.2138023013     2.0741159237     2.7137009905
   69      H       2.5112155438     0.9982165847     3.1743847150
   70      H       1.0815590336     0.3606504058     2.3980555876
 ----------------------------------------------------------------

   15   -1689.0448432532      5.19E-09 Convergence criterion met
 Total energy in the final basis set = -1689.04484325

                    Orbital Energies (a.u.)
 --------------------------------------------------------------

 Alpha MOs
 -- Occupied --
-19.180 -19.171 -19.170 -19.170 -19.138 -19.123 -19.114 -19.114
-19.113 -19.108 -10.317 -10.304 -10.302 -10.302 -10.251 -10.242
-10.235 -10.232 -10.230 -10.229 -10.218 -10.211 -10.211 -10.208
-10.190 -10.187 -10.186 -10.184 -10.176 -10.163 -10.162 -10.159
-10.149 -10.126  -1.124  -1.117  -1.112  -1.109  -1.074  -1.050
 -1.039  -1.027  -1.026  -1.024  -0.839  -0.820  -0.814  -0.793
 -0.791  -0.772  -0.749  -0.743  -0.734  -0.725  -0.723  -0.712
 -0.680  -0.665  -0.652  -0.633  -0.608  -0.595  -0.588  -0.572
 -0.570  -0.565  -0.563  -0.553  -0.530  -0.519  -0.518  -0.510
 -0.509  -0.500  -0.499  -0.492  -0.486  -0.485  -0.482  -0.479
 -0.475  -0.471  -0.470  -0.465  -0.463  -0.451  -0.448  -0.441
 -0.438  -0.434  -0.428  -0.427  -0.420  -0.414  -0.411  -0.407
 -0.406  -0.402  -0.397  -0.393  -0.391  -0.384  -0.379  -0.375
 -0.372  -0.368  -0.367  -0.364  -0.361  -0.358  -0.354  -0.354
 -0.349  -0.342  -0.340  -0.336  -0.335  -0.331  -0.324  -0.322
 -0.318  -0.316  -0.310  -0.306  -0.287  -0.284  -0.281  -0.275
 -0.261  -0.260

          Ground-State Mulliken Net Atomic Charges

     Atom                 Charge (a.u.)
  ----------------------------------------
      1 C                     0.055721
      2 C                     0.614553
      3 C                     0.025383
      4 C                    -0.126310
      5 O                     0.054973
      6 O                    -0.111712
      7 O                     0.104095
      8 O                    -0.063205
      9 C                    -0.167581
     10 C                    -0.269027
     11 C                    -1.251561
     12 C                    -0.023258
     13 C                     0.167477
     14 C                    -1.422158
     15 O                     0.206416
     16 H                     0.029518
     17 H                    -0.011971
     18 H                     0.192948
     19 H                     0.201211
     20 H                     0.196172
     21 H                     0.118938
     22 H                     0.199928
     23 H                     0.040456
     24 H                     0.172791
     25 H                     0.178802
     26 H                     0.122662
     27 H                     0.197510
     28 C                    -0.370536
     29 C                    -0.116767
     30 H                     0.182337
     31 H                     0.164475
     32 H                     0.190153
     33 H                     0.138473
     34 H                     0.146756
     35 H                     0.211424
     36 C                    -0.246558
     37 C                     0.296219
     38 C                    -0.520321
     39 C                    -0.742782
     40 O                     0.076189
     41 O                    -0.075474
     42 O                     0.036474
     43 O                    -0.081602
     44 C                    -0.365865
     45 C                    -0.153733
     46 C                    -0.021722
     47 C                    -0.272334
     48 C                    -0.250360
     49 C                    -0.267322
     50 O                     0.300521
     51 H                     0.257531
     52 H                     0.284738
     53 H                     0.217902
     54 H                     0.168112
     55 H                     0.176056
     56 H                     0.156325
     57 H                     0.171813
     58 H                     0.152863
     59 H                     0.123274
     60 H                     0.246567
     61 H                     0.170703
     62 H                     0.173690
     63 C                    -0.746629
     64 C                    -0.447647
     65 H                     0.227437
     66 H                     0.199900
     67 H                     0.242018
     68 H                     0.148696
     69 H                     0.168628
     70 H                     0.217605
  ----------------------------------------
  Sum of atomic charges =     0.000000

                    Cartesian Multipole Moments
 -----------------------------------------------------------------
    Charge (ESU x 10^10)
                 0.0000
    Dipole Moment (Debye)
         X       2.9437      Y      -0.4946      Z       0.4403
       Tot       3.0173
    Quadrupole Moments (Debye-Ang)
        XX    -202.2716     XY      12.3036     YY    -181.3367
        XZ      17.6915     YZ      -6.8017     ZZ    -221.0613

 Total job time:  4100.79s(wall), 8165.43s(cpu)
        *  Thank you very much for using Q-Chem.  Have a nice day.  *
