 Q-Chem 5.0, Q-Chem, Inc., Pleasanton, CA (2017)
 Q-Chem 5.0.1 for Intel X86 EM64T Linux

User input:
--------------------------------------------------------------
$molecule
0  1
C        +0.22270000        +1.04488000        +0.58595000
C        +0.62626000        -0.41353000        +0.99871000
C        -1.18200000        +1.23223000        +0.04377000
C        -0.37457000        -1.51643000        +0.72333000
O        -2.09172000        +0.78832000        +0.93966000
O        -1.47336000        +1.75939000        -0.99882000
O        -0.91364000        -1.42792000        -0.50620000
O        -0.62208000        -2.40877000        +1.49911000
C        -1.86134000        -2.44741000        -0.86560000
C        -3.47068000        +0.87492000        +0.53920000
C        +1.33008000        +1.39974000        -0.43491000
C        +2.63070000        +1.71700000        +0.32855000
C        +3.04336000        +0.29351000        +0.80300000
C        +1.94423000        -0.59299000        +0.15262000
O        +1.62840000        +0.13663000        -1.04376000
H        +0.27811000        +1.68786000        +1.46900000
H        +0.83923000        -0.48042000        +2.06408000
H        -2.68749000        -2.46677000        -0.15296000
H        -3.76076000        +1.91522000        +0.38406000
H        +3.37234000        +2.13782000        -0.35195000
H        +2.48236000        +2.42488000        +1.14651000
H        +4.02182000        +0.00994000        +0.41161000
H        +3.07359000        +0.18738000        +1.88928000
H        -2.21148000        -2.17765000        -1.85937000
H        -1.38062000        -3.42697000        -0.88096000
H        -4.03855000        +0.43623000        +1.35671000
H        -3.63120000        +0.31700000        -0.38495000
C        +0.90028000        +2.39077000        -1.49430000
C        +2.35450000        -2.01267000        -0.16812000
H        +3.26311000        -2.00678000        -0.77366000
H        +2.54990000        -2.57059000        +0.75079000
H        +1.57335000        -2.52896000        -0.72872000
H        +1.71845000        +2.58186000        -2.15686000
H        +0.59919000        +3.30478000        -1.02650000
H        +0.07925000        +1.98653000        -2.04874000
@C        +0.24722000        +2.43368000        +5.07601000
@C        +0.65078000        +0.97527000        +5.48877000
@C        -1.15748000        +2.62103000        +4.53383000
@C        -0.35005000        -0.12763000        +5.21339000
@O        -2.06720000        +2.17712000        +5.42972000
@O        -1.44884000        +3.14819000        +3.49124000
@O        -0.88912000        -0.03912000        +3.98386000
@O        -0.59756000        -1.01997000        +5.98917000
@C        -1.83682000        -1.05861000        +3.62446000
@C        -3.44616000        +2.26372000        +5.02926000
@C        +1.35460000        +2.78854000        +4.05515000
@C        +2.65522000        +3.10580000        +4.81861000
@C        +3.06788000        +1.68231000        +5.29306000
@C        +1.96875000        +0.79581000        +4.64268000
@O        +1.65292000        +1.52543000        +3.44630000
@H        +0.30263000        +3.07666000        +5.95906000
@H        +0.86375000        +0.90838000        +6.55414000
@H        -2.66297000        -1.07797000        +4.33710000
@H        -3.73624000        +3.30402000        +4.87412000
@H        +3.39686000        +3.52662000        +4.13811000
@H        +2.50688000        +3.81368000        +5.63657000
@H        +4.04634000        +1.39874000        +4.90167000
@H        +3.09811000        +1.57618000        +6.37934000
@H        -2.18696000        -0.78885000        +2.63069000
@H        -1.35610000        -2.03817000        +3.60910000
@H        -4.01403000        +1.82503000        +5.84677000
@H        -3.60668000        +1.70580000        +4.10511000
@C        +0.92480000        +3.77957000        +2.99576000
@C        +2.37902000        -0.62387000        +4.32194000
@H        +3.28763000        -0.61798000        +3.71640000
@H        +2.57442000        -1.18179000        +5.24085000
@H        +1.59787000        -1.14016000        +3.76134000
@H        +1.74297000        +3.97066000        +2.33320000
@H        +0.62371000        +4.69358000        +3.46356000
@H        +0.10377000        +3.37533000        +2.44132000
$end

$rem
JOBTYPE                   SP
METHOD                    B3LYP
DFT_D                     d3_op
BASIS                     6-311++G(d,p)
SYMMETRY                  False
THRESH                    12
SCF_CONVERGENCE           8
MAX_SUB_FILE_NUM          128
MEM_STATIC                400
MEM_TOTAL                 4000
$end
--------------------------------------------------------------

             Standard Nuclear Orientation (Angstroms)
    I     Atom           X                Y                Z
 ----------------------------------------------------------------
    1      C       0.2227000000     1.0448800000     0.5859500000
    2      C       0.6262600000    -0.4135300000     0.9987100000
    3      C      -1.1820000000     1.2322300000     0.0437700000
    4      C      -0.3745700000    -1.5164300000     0.7233300000
    5      O      -2.0917200000     0.7883200000     0.9396600000
    6      O      -1.4733600000     1.7593900000    -0.9988200000
    7      O      -0.9136400000    -1.4279200000    -0.5062000000
    8      O      -0.6220800000    -2.4087700000     1.4991100000
    9      C      -1.8613400000    -2.4474100000    -0.8656000000
   10      C      -3.4706800000     0.8749200000     0.5392000000
   11      C       1.3300800000     1.3997400000    -0.4349100000
   12      C       2.6307000000     1.7170000000     0.3285500000
   13      C       3.0433600000     0.2935100000     0.8030000000
   14      C       1.9442300000    -0.5929900000     0.1526200000
   15      O       1.6284000000     0.1366300000    -1.0437600000
   16      H       0.2781100000     1.6878600000     1.4690000000
   17      H       0.8392300000    -0.4804200000     2.0640800000
   18      H      -2.6874900000    -2.4667700000    -0.1529600000
   19      H      -3.7607600000     1.9152200000     0.3840600000
   20      H       3.3723400000     2.1378200000    -0.3519500000
   21      H       2.4823600000     2.4248800000     1.1465100000
   22      H       4.0218200000     0.0099400000     0.4116100000
   23      H       3.0735900000     0.1873800000     1.8892800000
   24      H      -2.2114800000    -2.1776500000    -1.8593700000
   25      H      -1.3806200000    -3.4269700000    -0.8809600000
   26      H      -4.0385500000     0.4362300000     1.3567100000
   27      H      -3.6312000000     0.3170000000    -0.3849500000
   28      C       0.9002800000     2.3907700000    -1.4943000000
   29      C       2.3545000000    -2.0126700000    -0.1681200000
   30      H       3.2631100000    -2.0067800000    -0.7736600000
   31      H       2.5499000000    -2.5705900000     0.7507900000
   32      H       1.5733500000    -2.5289600000    -0.7287200000
   33      H       1.7184500000     2.5818600000    -2.1568600000
   34      H       0.5991900000     3.3047800000    -1.0265000000
   35      H       0.0792500000     1.9865300000    -2.0487400000
   36      GH      0.2472200000     2.4336800000     5.0760100000
   37      GH      0.6507800000     0.9752700000     5.4887700000
   38      GH     -1.1574800000     2.6210300000     4.5338300000
   39      GH     -0.3500500000    -0.1276300000     5.2133900000
   40      GH     -2.0672000000     2.1771200000     5.4297200000
   41      GH     -1.4488400000     3.1481900000     3.4912400000
   42      GH     -0.8891200000    -0.0391200000     3.9838600000
   43      GH     -0.5975600000    -1.0199700000     5.9891700000
   44      GH     -1.8368200000    -1.0586100000     3.6244600000
   45      GH     -3.4461600000     2.2637200000     5.0292600000
   46      GH      1.3546000000     2.7885400000     4.0551500000
   47      GH      2.6552200000     3.1058000000     4.8186100000
   48      GH      3.0678800000     1.6823100000     5.2930600000
   49      GH      1.9687500000     0.7958100000     4.6426800000
   50      GH      1.6529200000     1.5254300000     3.4463000000
   51      GH      0.3026300000     3.0766600000     5.9590600000
   52      GH      0.8637500000     0.9083800000     6.5541400000
   53      GH     -2.6629700000    -1.0779700000     4.3371000000
   54      GH     -3.7362400000     3.3040200000     4.8741200000
   55      GH      3.3968600000     3.5266200000     4.1381100000
   56      GH      2.5068800000     3.8136800000     5.6365700000
   57      GH      4.0463400000     1.3987400000     4.9016700000
   58      GH      3.0981100000     1.5761800000     6.3793400000
   59      GH     -2.1869600000    -0.7888500000     2.6306900000
   60      GH     -1.3561000000    -2.0381700000     3.6091000000
   61      GH     -4.0140300000     1.8250300000     5.8467700000
   62      GH     -3.6066800000     1.7058000000     4.1051100000
   63      GH      0.9248000000     3.7795700000     2.9957600000
   64      GH      2.3790200000    -0.6238700000     4.3219400000
   65      GH      3.2876300000    -0.6179800000     3.7164000000
   66      GH      2.5744200000    -1.1817900000     5.2408500000
   67      GH      1.5978700000    -1.1401600000     3.7613400000
   68      GH      1.7429700000     3.9706600000     2.3332000000
   69      GH      0.6237100000     4.6935800000     3.4635600000
   70      GH      0.1037700000     3.3753300000     2.4413200000
 ----------------------------------------------------------------

   14    -844.5182649771      5.83E-09 Convergence criterion met
 Total energy in the final basis set = -844.51826498

                    Orbital Energies (a.u.)
 --------------------------------------------------------------

 Alpha MOs
 -- Occupied --
-19.176 -19.174 -19.125 -19.117 -19.116 -10.311 -10.306 -10.242
-10.232 -10.231 -10.231 -10.204 -10.203 -10.178 -10.175 -10.169
-10.136  -1.121  -1.114  -1.061  -1.034  -1.027  -0.832  -0.804
 -0.784  -0.748  -0.730  -0.720  -0.674  -0.644  -0.603  -0.579
 -0.570  -0.561  -0.525  -0.514  -0.508  -0.493  -0.489  -0.479
 -0.476  -0.471  -0.459  -0.442  -0.435  -0.433  -0.414  -0.411
 -0.403  -0.399  -0.395  -0.374  -0.372  -0.364  -0.358  -0.355
 -0.349  -0.346  -0.333  -0.328  -0.321  -0.313  -0.284  -0.272
 -0.270

          Ground-State Mulliken Net Atomic Charges

     Atom                 Charge (a.u.)
  ----------------------------------------
      1 C                    -0.159904
      2 C                     0.563316
      3 C                     0.013601
      4 C                    -0.173130
      5 O                     0.081475
      6 O                    -0.105155
      7 O                     0.091794
      8 O                    -0.050645
      9 C                    -0.169574
     10 C                    -0.297083
     11 C                    -1.135689
     12 C                    -0.083402
     13 C                     0.095450
     14 C                    -1.320322
     15 O                     0.216034
     16 H                     0.037627
     17 H                     0.059473
     18 H                     0.196386
     19 H                     0.195684
     20 H                     0.204973
     21 H                     0.158619
     22 H                     0.205208
     23 H                     0.128981
     24 H                     0.171529
     25 H                     0.179079
     26 H                     0.129635
     27 H                     0.196577
     28 C                    -0.381296
     29 C                    -0.110750
     30 H                     0.183517
     31 H                     0.171685
     32 H                     0.194327
     33 H                     0.142114
     34 H                     0.149341
     35 H                     0.214229
     36 GH                    0.003845
     37 GH                    0.006976
     38 GH                    0.005664
     39 GH                   -0.003777
     40 GH                    0.002420
     41 GH                   -0.019070
     42 GH                    0.003695
     43 GH                    0.002127
     44 GH                   -0.059387
     45 GH                    0.007665
     46 GH                   -0.033804
     47 GH                   -0.007323
     48 GH                   -0.003788
     49 GH                   -0.079522
     50 GH                    0.009629
     51 GH                    0.000246
     52 GH                    0.000110
     53 GH                   -0.003803
     54 GH                    0.001072
     55 GH                    0.000286
     56 GH                   -0.000114
     57 GH                    0.000019
     58 GH                    0.000029
     59 GH                    0.061019
     60 GH                    0.003523
     61 GH                   -0.000366
     62 GH                   -0.005593
     63 GH                   -0.001954
     64 GH                    0.053566
     65 GH                    0.018105
     66 GH                   -0.001656
     67 GH                    0.005505
     68 GH                    0.009446
     69 GH                   -0.003937
     70 GH                    0.035442
  ----------------------------------------
  Sum of atomic charges =     0.000000

                    Cartesian Multipole Moments
 -----------------------------------------------------------------
    Charge (ESU x 10^10)
                -0.0000
    Dipole Moment (Debye)
         X      -0.3251      Y       0.5029      Z       0.9178
       Tot       1.0959
    Quadrupole Moments (Debye-Ang)
        XX     -89.0668     XY       1.8215     YY    -103.5230
        XZ       3.4838     YZ      10.7921     ZZ    -108.3420

 Total job time:  4025.38s(wall), 8012.62s(cpu)
        *  Thank you very much for using Q-Chem.  Have a nice day.  *
