 Q-Chem 5.0, Q-Chem, Inc., Pleasanton, CA (2017)
 Q-Chem 5.0.1 for Intel X86 EM64T Linux

User input:
--------------------------------------------------------------
$molecule
0  1
C        -0.54444000        -0.68370000        -0.06689000
C        -0.55709000        +0.71878000        +0.05493000
C        +0.74969000        -1.43776000        -0.09374000
C        +0.72843000        +1.48436000        +0.06598000
O        +1.53645000        -1.09176000        +0.94813000
O        +1.04702000        -2.28405000        -0.90088000
O        +1.53784000        +1.08301000        -0.93877000
O        +1.01035000        +2.37097000        +0.83478000
C        +2.83449000        +1.70121000        -0.99358000
C        +2.82316000        -1.73208000        +1.00475000
C        -1.74320000        -1.41616000        -0.12552000
C        -2.93952000        -0.70056000        -0.05285000
C        -2.95313000        +0.68255000        +0.06934000
C        -1.77161000        +1.42404000        +0.12810000
H        +2.73835000        +2.77989000        -1.12464000
H        +2.70778000        -2.81319000        +1.09555000
H        -3.90354000        +1.20325000        +0.11710000
H        +3.38998000        +1.50093000        -0.07544000
H        +3.33184000        +1.25269000        -1.85067000
H        +3.31095000        -1.32281000        +1.88650000
H        +3.39889000        -1.50934000        +0.10459000
H        -3.87892000        -1.24211000        -0.08988000
C        -1.83960000        +2.92746000        +0.24839000
H        -1.24214000        +3.42352000        -0.52065000
H        -1.45503000        +3.26427000        +1.21284000
H        -2.87211000        +3.26623000        +0.14638000
H        -1.73878000        -2.44393000        -0.21875000
@C        -0.51210000        -1.09350000        +4.61510000
@C        -0.52475000        +0.30898000        +4.73692000
@C        +0.78203000        -1.84756000        +4.58825000
@C        +0.76077000        +1.07456000        +4.74797000
@O        +1.56879000        -1.50156000        +5.63012000
@O        +1.07936000        -2.69385000        +3.78111000
@O        +1.57018000        +0.67321000        +3.74322000
@O        +1.04269000        +1.96117000        +5.51677000
@C        +2.86683000        +1.29141000        +3.68841000
@C        +2.85550000        -2.14188000        +5.68674000
@C        -1.71086000        -1.82596000        +4.55647000
@C        -2.90718000        -1.11036000        +4.62914000
@C        -2.92079000        +0.27275000        +4.75133000
@C        -1.73927000        +1.01424000        +4.81009000
@H        +2.77069000        +2.37009000        +3.55735000
@H        +2.74012000        -3.22299000        +5.77754000
@H        -3.87120000        +0.79345000        +4.79909000
@H        +3.42232000        +1.09113000        +4.60655000
@H        +3.36418000        +0.84289000        +2.83132000
@H        +3.34329000        -1.73261000        +6.56849000
@H        +3.43123000        -1.91914000        +4.78658000
@H        -3.84658000        -1.65191000        +4.59211000
@C        -1.80726000        +2.51766000        +4.93038000
@H        -1.20980000        +3.01372000        +4.16134000
@H        -1.42269000        +2.85447000        +5.89483000
@H        -2.83977000        +2.85643000        +4.82837000
@H        -1.70644000        -2.85373000        +4.46324000
$end

$rem
JOBTYPE                   SP
METHOD                    B3LYP
DFT_D                     d3_op
BASIS                     6-311++G(d,p)
SYMMETRY                  False
THRESH                    12
SCF_CONVERGENCE           8
MAX_SUB_FILE_NUM          128
MEM_STATIC                400
MEM_TOTAL                 4000
$end
--------------------------------------------------------------

             Standard Nuclear Orientation (Angstroms)
    I     Atom           X                Y                Z
 ----------------------------------------------------------------
    1      C      -0.5444400000    -0.6837000000    -0.0668900000
    2      C      -0.5570900000     0.7187800000     0.0549300000
    3      C       0.7496900000    -1.4377600000    -0.0937400000
    4      C       0.7284300000     1.4843600000     0.0659800000
    5      O       1.5364500000    -1.0917600000     0.9481300000
    6      O       1.0470200000    -2.2840500000    -0.9008800000
    7      O       1.5378400000     1.0830100000    -0.9387700000
    8      O       1.0103500000     2.3709700000     0.8347800000
    9      C       2.8344900000     1.7012100000    -0.9935800000
   10      C       2.8231600000    -1.7320800000     1.0047500000
   11      C      -1.7432000000    -1.4161600000    -0.1255200000
   12      C      -2.9395200000    -0.7005600000    -0.0528500000
   13      C      -2.9531300000     0.6825500000     0.0693400000
   14      C      -1.7716100000     1.4240400000     0.1281000000
   15      H       2.7383500000     2.7798900000    -1.1246400000
   16      H       2.7077800000    -2.8131900000     1.0955500000
   17      H      -3.9035400000     1.2032500000     0.1171000000
   18      H       3.3899800000     1.5009300000    -0.0754400000
   19      H       3.3318400000     1.2526900000    -1.8506700000
   20      H       3.3109500000    -1.3228100000     1.8865000000
   21      H       3.3988900000    -1.5093400000     0.1045900000
   22      H      -3.8789200000    -1.2421100000    -0.0898800000
   23      C      -1.8396000000     2.9274600000     0.2483900000
   24      H      -1.2421400000     3.4235200000    -0.5206500000
   25      H      -1.4550300000     3.2642700000     1.2128400000
   26      H      -2.8721100000     3.2662300000     0.1463800000
   27      H      -1.7387800000    -2.4439300000    -0.2187500000
   28      GH     -0.5121000000    -1.0935000000     4.6151000000
   29      GH     -0.5247500000     0.3089800000     4.7369200000
   30      GH      0.7820300000    -1.8475600000     4.5882500000
   31      GH      0.7607700000     1.0745600000     4.7479700000
   32      GH      1.5687900000    -1.5015600000     5.6301200000
   33      GH      1.0793600000    -2.6938500000     3.7811100000
   34      GH      1.5701800000     0.6732100000     3.7432200000
   35      GH      1.0426900000     1.9611700000     5.5167700000
   36      GH      2.8668300000     1.2914100000     3.6884100000
   37      GH      2.8555000000    -2.1418800000     5.6867400000
   38      GH     -1.7108600000    -1.8259600000     4.5564700000
   39      GH     -2.9071800000    -1.1103600000     4.6291400000
   40      GH     -2.9207900000     0.2727500000     4.7513300000
   41      GH     -1.7392700000     1.0142400000     4.8100900000
   42      GH      2.7706900000     2.3700900000     3.5573500000
   43      GH      2.7401200000    -3.2229900000     5.7775400000
   44      GH     -3.8712000000     0.7934500000     4.7990900000
   45      GH      3.4223200000     1.0911300000     4.6065500000
   46      GH      3.3641800000     0.8428900000     2.8313200000
   47      GH      3.3432900000    -1.7326100000     6.5684900000
   48      GH      3.4312300000    -1.9191400000     4.7865800000
   49      GH     -3.8465800000    -1.6519100000     4.5921100000
   50      GH     -1.8072600000     2.5176600000     4.9303800000
   51      GH     -1.2098000000     3.0137200000     4.1613400000
   52      GH     -1.4226900000     2.8544700000     5.8948300000
   53      GH     -2.8397700000     2.8564300000     4.8283700000
   54      GH     -1.7064400000    -2.8537300000     4.4632400000
 ----------------------------------------------------------------

   14    -727.5447068810      5.58E-09 Convergence criterion met
 Total energy in the final basis set = -727.54470688

                    Orbital Energies (a.u.)
 --------------------------------------------------------------

 Alpha MOs
 -- Occupied --
-19.178 -19.177 -19.121 -19.119 -10.313 -10.312 -10.233 -10.232
-10.211 -10.208 -10.207 -10.193 -10.191 -10.190 -10.174  -1.122
 -1.115  -1.033  -1.030  -0.886  -0.801  -0.795  -0.747  -0.731
 -0.704  -0.655  -0.627  -0.581  -0.575  -0.550  -0.521  -0.514
 -0.492  -0.490  -0.482  -0.478  -0.472  -0.447  -0.435  -0.431
 -0.429  -0.412  -0.406  -0.396  -0.384  -0.378  -0.370  -0.365
 -0.364  -0.322  -0.314  -0.296  -0.294  -0.269  -0.264

          Ground-State Mulliken Net Atomic Charges

     Atom                 Charge (a.u.)
  ----------------------------------------
      1 C                     0.717700
      2 C                     0.121755
      3 C                    -0.482015
      4 C                    -0.647690
      5 O                     0.088350
      6 O                    -0.163073
      7 O                     0.105711
      8 O                    -0.093070
      9 C                    -0.149821
     10 C                    -0.362945
     11 C                    -0.371940
     12 C                    -0.276766
     13 C                    -0.277750
     14 C                     0.293413
     15 H                     0.164589
     16 H                     0.203094
     17 H                     0.157332
     18 H                     0.187923
     19 H                     0.170738
     20 H                     0.111859
     21 H                     0.193361
     22 H                     0.185230
     23 C                    -0.564885
     24 H                     0.177519
     25 H                     0.208063
     26 H                     0.143046
     27 H                     0.198122
     28 GH                   -0.080822
     29 GH                    0.032775
     30 GH                    0.014011
     31 GH                   -0.046241
     32 GH                    0.000194
     33 GH                   -0.004539
     34 GH                   -0.017864
     35 GH                    0.001246
     36 GH                    0.019884
     37 GH                   -0.010663
     38 GH                    0.053697
     39 GH                    0.009361
     40 GH                   -0.026101
     41 GH                    0.012054
     42 GH                    0.000254
     43 GH                    0.000442
     44 GH                   -0.001534
     45 GH                    0.002367
     46 GH                    0.000868
     47 GH                   -0.000765
     48 GH                    0.004006
     49 GH                    0.000523
     50 GH                    0.000893
     51 GH                   -0.005127
     52 GH                   -0.000657
     53 GH                    0.002140
     54 GH                    0.001752
  ----------------------------------------
  Sum of atomic charges =     0.000000

                    Cartesian Multipole Moments
 -----------------------------------------------------------------
    Charge (ESU x 10^10)
                 0.0000
    Dipole Moment (Debye)
         X       0.0013      Y       0.4779      Z       0.2153
       Tot       0.5241
    Quadrupole Moments (Debye-Ang)
        XX     -68.8105     XY      -0.6802     YY     -89.7069
        XZ      -0.1039     YZ      -9.3116     ZZ     -93.2396

 Total job time:  1703.09s(wall), 3356.76s(cpu)
        *  Thank you very much for using Q-Chem.  Have a nice day.  *
