 Q-Chem 5.0, Q-Chem, Inc., Pleasanton, CA (2017)
 Q-Chem 5.0.1 for Intel X86 EM64T Linux

User input:
--------------------------------------------------------------
$molecule
0  1
--
0  1
C        -0.54444000        -0.68370000        -0.06689000
C        -0.55709000        +0.71878000        +0.05493000
C        +0.74969000        -1.43776000        -0.09374000
C        +0.72843000        +1.48436000        +0.06598000
O        +1.53645000        -1.09176000        +0.94813000
O        +1.04702000        -2.28405000        -0.90088000
O        +1.53784000        +1.08301000        -0.93877000
O        +1.01035000        +2.37097000        +0.83478000
C        +2.83449000        +1.70121000        -0.99358000
C        +2.82316000        -1.73208000        +1.00475000
C        -1.74320000        -1.41616000        -0.12552000
C        -2.93952000        -0.70056000        -0.05285000
C        -2.95313000        +0.68255000        +0.06934000
C        -1.77161000        +1.42404000        +0.12810000
H        +2.73835000        +2.77989000        -1.12464000
H        +2.70778000        -2.81319000        +1.09555000
H        -3.90354000        +1.20325000        +0.11710000
H        +3.38998000        +1.50093000        -0.07544000
H        +3.33184000        +1.25269000        -1.85067000
H        +3.31095000        -1.32281000        +1.88650000
H        +3.39889000        -1.50934000        +0.10459000
H        -3.87892000        -1.24211000        -0.08988000
C        -1.83960000        +2.92746000        +0.24839000
H        -1.24214000        +3.42352000        -0.52065000
H        -1.45503000        +3.26427000        +1.21284000
H        -2.87211000        +3.26623000        +0.14638000
H        -1.73878000        -2.44393000        -0.21875000
--
0  1
C        -0.51210000        -1.09350000        +4.61510000
C        -0.52475000        +0.30898000        +4.73692000
C        +0.78203000        -1.84756000        +4.58825000
C        +0.76077000        +1.07456000        +4.74797000
O        +1.56879000        -1.50156000        +5.63012000
O        +1.07936000        -2.69385000        +3.78111000
O        +1.57018000        +0.67321000        +3.74322000
O        +1.04269000        +1.96117000        +5.51677000
C        +2.86683000        +1.29141000        +3.68841000
C        +2.85550000        -2.14188000        +5.68674000
C        -1.71086000        -1.82596000        +4.55647000
C        -2.90718000        -1.11036000        +4.62914000
C        -2.92079000        +0.27275000        +4.75133000
C        -1.73927000        +1.01424000        +4.81009000
H        +2.77069000        +2.37009000        +3.55735000
H        +2.74012000        -3.22299000        +5.77754000
H        -3.87120000        +0.79345000        +4.79909000
H        +3.42232000        +1.09113000        +4.60655000
H        +3.36418000        +0.84289000        +2.83132000
H        +3.34329000        -1.73261000        +6.56849000
H        +3.43123000        -1.91914000        +4.78658000
H        -3.84658000        -1.65191000        +4.59211000
C        -1.80726000        +2.51766000        +4.93038000
H        -1.20980000        +3.01372000        +4.16134000
H        -1.42269000        +2.85447000        +5.89483000
H        -2.83977000        +2.85643000        +4.82837000
H        -1.70644000        -2.85373000        +4.46324000
$end

$rem
JOBTYPE                   SP
METHOD                    B3LYP
DFT_D                     d3_op
BASIS                     6-311++G(d,p)
SYMMETRY                  False
THRESH                    12
SCF_CONVERGENCE           8
MAX_SUB_FILE_NUM          128
MEM_STATIC                400
MEM_TOTAL                 4000
$end
--------------------------------------------------------------

             Standard Nuclear Orientation (Angstroms)
    I     Atom           X                Y                Z
 ----------------------------------------------------------------
    1      C      -2.2903513041     0.1888784782     1.2514217314
    2      C      -2.4048321541     0.6845742937    -0.0612587624
    3      C      -2.1499373288    -1.2808827217     1.5047708854
    4      C      -2.4810293025    -0.2610721734    -1.2182994976
    5      O      -1.1560582505    -1.8106338999     0.7592720850
    6      O      -2.7946433764    -1.9155659088     2.3032808959
    7      O      -3.3785295358    -1.2428524908    -0.9809186380
    8      O      -1.8624890117    -0.1590644161    -2.2496151354
    9      C      -3.4946729470    -2.2544066875    -1.9956823612
   10      C      -0.9526107479    -3.2277780406     0.8976547029
   11      C      -2.2638231670     1.0602263785     2.3546033850
   12      C      -2.3495648431     2.4293326293     2.0962581307
   13      C      -2.4604778719     2.9194249871     0.8018019973
   14      C      -2.4889314347     2.0672943306    -0.3037808386
   15      H      -3.8069461622    -1.8117801543    -2.9425389273
   16      H      -0.6863063008    -3.4764800714     1.9260443459
   17      H      -2.5304417121     3.9901040920     0.6423028086
   18      H      -2.5388546128    -2.7625058040    -2.1367811846
   19      H      -4.2486703686    -2.9467190316    -1.6278209913
   20      H      -0.1365553367    -3.4699318326     0.2206471799
   21      H      -1.8586286909    -3.7708280892     0.6227105306
   22      H      -2.3254059356     3.1238810701     2.9294080535
   23      C      -2.6235237546     2.6487848027    -1.6905460527
   24      H      -3.4452678937     2.1890318566    -2.2453616033
   25      H      -1.7171440233     2.4861494592    -2.2766555913
   26      H      -2.8133089714     3.7219595544    -1.6311694838
   27      H      -2.1839824838     0.7011696410     3.3188265265
   28      C       2.3929905690     0.4289625759     0.9372867270
   29      C       2.2785097190     0.9246583914    -0.3753937668
   30      C       2.5334045443    -1.0407986240     1.1906358809
   31      C       2.2023125707    -0.0209880757    -1.5324345021
   32      O       3.5272836226    -1.5705498022     0.4451370806
   33      O       1.8886984967    -1.6754818111     1.9891458914
   34      O       1.3048123373    -1.0027683931    -1.2950536425
   35      O       2.8208528615     0.0810196816    -2.5637501398
   36      C       1.1886689261    -2.0143225898    -2.3098173657
   37      C       3.7307311252    -2.9876939429     0.5835196985
   38      C       2.4195187061     1.3003104762     2.0404683805
   39      C       2.3337770300     2.6694167270     1.7821231262
   40      C       2.2228640012     3.1595090848     0.4876669929
   41      C       2.1944104384     2.3073784283    -0.6179158431
   42      H       0.8763957109    -1.5716960566    -3.2566739318
   43      H       3.9970355724    -3.2363959737     1.6119093415
   44      H       2.1529001611     4.2301881897     0.3281678041
   45      H       2.1444872603    -2.5224217063    -2.4509161890
   46      H       0.4346715046    -2.7066349339    -1.9419559958
   47      H       4.5467865365    -3.2298477349    -0.0934878246
   48      H       2.8247131822    -3.5307439915     0.3085755261
   49      H       2.3579359375     3.3639651678     2.6152730490
   50      C       2.0598181185     2.8888689004    -2.0046810571
   51      H       1.2380739795     2.4291159543    -2.5594966078
   52      H       2.9661978498     2.7262335569    -2.5907905957
   53      H       1.8700329018     3.9620436521    -1.9453044883
   54      H       2.4993593893     0.9412537387     3.0046915221
 ----------------------------------------------------------------

   15   -1455.0958905073      7.47E-09 Convergence criterion met
 Total energy in the final basis set = -1455.09589051

                    Orbital Energies (a.u.)
 --------------------------------------------------------------

 Alpha MOs
 -- Occupied --
-19.177 -19.176 -19.170 -19.167 -19.121 -19.119 -19.115 -19.112
-10.312 -10.311 -10.307 -10.304 -10.233 -10.233 -10.227 -10.224
-10.208 -10.207 -10.205 -10.204 -10.204 -10.204 -10.191 -10.190
-10.188 -10.187 -10.187 -10.187 -10.173 -10.170  -1.120  -1.119
 -1.110  -1.108  -1.032  -1.030  -1.026  -1.022  -0.883  -0.882
 -0.798  -0.797  -0.792  -0.791  -0.744  -0.744  -0.729  -0.726
 -0.702  -0.700  -0.652  -0.651  -0.624  -0.623  -0.579  -0.576
 -0.574  -0.569  -0.547  -0.545  -0.519  -0.517  -0.511  -0.509
 -0.490  -0.490  -0.485  -0.485  -0.481  -0.477  -0.476  -0.472
 -0.469  -0.467  -0.446  -0.443  -0.434  -0.431  -0.430  -0.429
 -0.426  -0.422  -0.411  -0.409  -0.404  -0.401  -0.393  -0.392
 -0.382  -0.380  -0.376  -0.373  -0.369  -0.365  -0.363  -0.362
 -0.360  -0.355  -0.320  -0.319  -0.309  -0.307  -0.295  -0.294
 -0.290  -0.288  -0.267  -0.264  -0.262  -0.258

          Ground-State Mulliken Net Atomic Charges

     Atom                 Charge (a.u.)
  ----------------------------------------
      1 C                     0.689650
      2 C                     0.101598
      3 C                    -0.486747
      4 C                    -0.676995
      5 O                     0.102446
      6 O                    -0.169075
      7 O                     0.112109
      8 O                    -0.107984
      9 C                    -0.152367
     10 C                    -0.345284
     11 C                    -0.351861
     12 C                    -0.282053
     13 C                    -0.269967
     14 C                     0.317055
     15 H                     0.165210
     16 H                     0.215695
     17 H                     0.152867
     18 H                     0.184697
     19 H                     0.171505
     20 H                     0.085205
     21 H                     0.187585
     22 H                     0.180383
     23 C                    -0.538243
     24 H                     0.176821
     25 H                     0.189112
     26 H                     0.144104
     27 H                     0.199441
     28 C                     0.395041
     29 C                     0.613351
     30 C                    -0.692636
     31 C                    -0.796555
     32 O                     0.100438
     33 O                    -0.108276
     34 O                     0.112662
     35 O                    -0.138860
     36 C                    -0.326133
     37 C                    -0.149939
     38 C                    -0.428463
     39 C                    -0.282782
     40 C                    -0.414512
     41 C                     0.471272
     42 H                     0.208318
     43 H                     0.169316
     44 H                     0.154564
     45 H                     0.194796
     46 H                     0.088235
     47 H                     0.172244
     48 H                     0.177190
     49 H                     0.184654
     50 C                    -0.442509
     51 H                     0.209431
     52 H                     0.215033
     53 H                     0.132445
     54 H                     0.186769
  ----------------------------------------
  Sum of atomic charges =    -0.000000

                    Cartesian Multipole Moments
 -----------------------------------------------------------------
    Charge (ESU x 10^10)
                -0.0000
    Dipole Moment (Debye)
         X       0.2268      Y       0.3952      Z      -0.7714
       Tot       0.8959
    Quadrupole Moments (Debye-Ang)
        XX    -181.7303     XY      -7.7774     YY    -145.4779
        XZ      16.7099     YZ      14.4702     ZZ    -181.1169

 Total job time:  1797.74s(wall), 3579.53s(cpu)
        *  Thank you very much for using Q-Chem.  Have a nice day.  *
