 Q-Chem 5.0, Q-Chem, Inc., Pleasanton, CA (2017)
 Q-Chem 5.0.1 for Intel X86 EM64T Linux

User input:
--------------------------------------------------------------
$molecule
0  1
C        -0.51210000        -1.09350000        +4.61510000
C        -0.52475000        +0.30898000        +4.73692000
C        +0.78203000        -1.84756000        +4.58825000
C        +0.76077000        +1.07456000        +4.74797000
O        +1.56879000        -1.50156000        +5.63012000
O        +1.07936000        -2.69385000        +3.78111000
O        +1.57018000        +0.67321000        +3.74322000
O        +1.04269000        +1.96117000        +5.51677000
C        +2.86683000        +1.29141000        +3.68841000
C        +2.85550000        -2.14188000        +5.68674000
C        -1.71086000        -1.82596000        +4.55647000
C        -2.90718000        -1.11036000        +4.62914000
C        -2.92079000        +0.27275000        +4.75133000
C        -1.73927000        +1.01424000        +4.81009000
H        +2.77069000        +2.37009000        +3.55735000
H        +2.74012000        -3.22299000        +5.77754000
H        -3.87120000        +0.79345000        +4.79909000
H        +3.42232000        +1.09113000        +4.60655000
H        +3.36418000        +0.84289000        +2.83132000
H        +3.34329000        -1.73261000        +6.56849000
H        +3.43123000        -1.91914000        +4.78658000
H        -3.84658000        -1.65191000        +4.59211000
C        -1.80726000        +2.51766000        +4.93038000
C        -1.74869000        -3.33206000        +4.43609000
H        -1.36518000        -3.66203000        +3.46876000
H        -2.77338000        -3.69155000        +4.54572000
H        -1.13724000        -3.81757000        +5.20125000
H        -1.20980000        +3.01372000        +4.16134000
H        -1.42269000        +2.85447000        +5.89483000
H        -2.83977000        +2.85643000        +4.82837000
@C        -0.54444000        -0.68370000        -0.06689000
@C        -0.55709000        +0.71878000        +0.05493000
@C        +0.74969000        -1.43776000        -0.09374000
@C        +0.72843000        +1.48436000        +0.06598000
@O        +1.53645000        -1.09176000        +0.94813000
@O        +1.04702000        -2.28405000        -0.90088000
@O        +1.53784000        +1.08301000        -0.93877000
@O        +1.01035000        +2.37097000        +0.83478000
@C        +2.83449000        +1.70121000        -0.99358000
@C        +2.82316000        -1.73208000        +1.00475000
@C        -1.74320000        -1.41616000        -0.12552000
@C        -2.93952000        -0.70056000        -0.05285000
@C        -2.95313000        +0.68255000        +0.06934000
@C        -1.77161000        +1.42404000        +0.12810000
@H        +2.73835000        +2.77989000        -1.12464000
@H        +2.70778000        -2.81319000        +1.09555000
@H        -3.90354000        +1.20325000        +0.11710000
@H        +3.38998000        +1.50093000        -0.07544000
@H        +3.33184000        +1.25269000        -1.85067000
@H        +3.31095000        -1.32281000        +1.88650000
@H        +3.39889000        -1.50934000        +0.10459000
@H        -3.87892000        -1.24211000        -0.08988000
@C        -1.83960000        +2.92746000        +0.24839000
@C        -1.78103000        -2.92226000        -0.24590000
@H        -1.39752000        -3.25223000        -1.21323000
@H        -2.80572000        -3.28175000        -0.13627000
@H        -1.16958000        -3.40777000        +0.51926000
@H        -1.24214000        +3.42352000        -0.52065000
@H        -1.45503000        +3.26427000        +1.21284000
@H        -2.87211000        +3.26623000        +0.14638000
$end

$rem
JOBTYPE                   SP
METHOD                    B3LYP
DFT_D                     d3_op
BASIS                     6-311++G(d,p)
SYMMETRY                  False
THRESH                    12
SCF_CONVERGENCE           8
MAX_SUB_FILE_NUM          128
MEM_STATIC                400
MEM_TOTAL                 4000
$end
--------------------------------------------------------------

             Standard Nuclear Orientation (Angstroms)
    I     Atom           X                Y                Z
 ----------------------------------------------------------------
    1      C      -0.5121000000    -1.0935000000     4.6151000000
    2      C      -0.5247500000     0.3089800000     4.7369200000
    3      C       0.7820300000    -1.8475600000     4.5882500000
    4      C       0.7607700000     1.0745600000     4.7479700000
    5      O       1.5687900000    -1.5015600000     5.6301200000
    6      O       1.0793600000    -2.6938500000     3.7811100000
    7      O       1.5701800000     0.6732100000     3.7432200000
    8      O       1.0426900000     1.9611700000     5.5167700000
    9      C       2.8668300000     1.2914100000     3.6884100000
   10      C       2.8555000000    -2.1418800000     5.6867400000
   11      C      -1.7108600000    -1.8259600000     4.5564700000
   12      C      -2.9071800000    -1.1103600000     4.6291400000
   13      C      -2.9207900000     0.2727500000     4.7513300000
   14      C      -1.7392700000     1.0142400000     4.8100900000
   15      H       2.7706900000     2.3700900000     3.5573500000
   16      H       2.7401200000    -3.2229900000     5.7775400000
   17      H      -3.8712000000     0.7934500000     4.7990900000
   18      H       3.4223200000     1.0911300000     4.6065500000
   19      H       3.3641800000     0.8428900000     2.8313200000
   20      H       3.3432900000    -1.7326100000     6.5684900000
   21      H       3.4312300000    -1.9191400000     4.7865800000
   22      H      -3.8465800000    -1.6519100000     4.5921100000
   23      C      -1.8072600000     2.5176600000     4.9303800000
   24      C      -1.7486900000    -3.3320600000     4.4360900000
   25      H      -1.3651800000    -3.6620300000     3.4687600000
   26      H      -2.7733800000    -3.6915500000     4.5457200000
   27      H      -1.1372400000    -3.8175700000     5.2012500000
   28      H      -1.2098000000     3.0137200000     4.1613400000
   29      H      -1.4226900000     2.8544700000     5.8948300000
   30      H      -2.8397700000     2.8564300000     4.8283700000
   31      GH     -0.5444400000    -0.6837000000    -0.0668900000
   32      GH     -0.5570900000     0.7187800000     0.0549300000
   33      GH      0.7496900000    -1.4377600000    -0.0937400000
   34      GH      0.7284300000     1.4843600000     0.0659800000
   35      GH      1.5364500000    -1.0917600000     0.9481300000
   36      GH      1.0470200000    -2.2840500000    -0.9008800000
   37      GH      1.5378400000     1.0830100000    -0.9387700000
   38      GH      1.0103500000     2.3709700000     0.8347800000
   39      GH      2.8344900000     1.7012100000    -0.9935800000
   40      GH      2.8231600000    -1.7320800000     1.0047500000
   41      GH     -1.7432000000    -1.4161600000    -0.1255200000
   42      GH     -2.9395200000    -0.7005600000    -0.0528500000
   43      GH     -2.9531300000     0.6825500000     0.0693400000
   44      GH     -1.7716100000     1.4240400000     0.1281000000
   45      GH      2.7383500000     2.7798900000    -1.1246400000
   46      GH      2.7077800000    -2.8131900000     1.0955500000
   47      GH     -3.9035400000     1.2032500000     0.1171000000
   48      GH      3.3899800000     1.5009300000    -0.0754400000
   49      GH      3.3318400000     1.2526900000    -1.8506700000
   50      GH      3.3109500000    -1.3228100000     1.8865000000
   51      GH      3.3988900000    -1.5093400000     0.1045900000
   52      GH     -3.8789200000    -1.2421100000    -0.0898800000
   53      GH     -1.8396000000     2.9274600000     0.2483900000
   54      GH     -1.7810300000    -2.9222600000    -0.2459000000
   55      GH     -1.3975200000    -3.2522300000    -1.2132300000
   56      GH     -2.8057200000    -3.2817500000    -0.1362700000
   57      GH     -1.1695800000    -3.4077700000     0.5192600000
   58      GH     -1.2421400000     3.4235200000    -0.5206500000
   59      GH     -1.4550300000     3.2642700000     1.2128400000
   60      GH     -2.8721100000     3.2662300000     0.1463800000
 ----------------------------------------------------------------

   14    -766.8774552496      5.97E-09 Convergence criterion met
 Total energy in the final basis set = -766.87745525

                    Orbital Energies (a.u.)
 --------------------------------------------------------------

 Alpha MOs
 -- Occupied --
-19.176 -19.176 -19.119 -19.119 -10.311 -10.311 -10.232 -10.232
-10.205 -10.205 -10.201 -10.201 -10.187 -10.186 -10.171 -10.170
 -1.121  -1.114  -1.031  -1.030  -0.885  -0.807  -0.795  -0.747
 -0.734  -0.725  -0.675  -0.649  -0.620  -0.577  -0.565  -0.537
 -0.517  -0.515  -0.491  -0.489  -0.480  -0.477  -0.469  -0.442
 -0.434  -0.429  -0.420  -0.416  -0.411  -0.405  -0.396  -0.387
 -0.380  -0.373  -0.362  -0.359  -0.357  -0.321  -0.313  -0.293
 -0.292  -0.266  -0.253

          Ground-State Mulliken Net Atomic Charges

     Atom                 Charge (a.u.)
  ----------------------------------------
      1 C                     0.446361
      2 C                     0.152333
      3 C                    -0.935394
      4 C                    -0.455923
      5 O                     0.117155
      6 O                    -0.066867
      7 O                     0.117743
      8 O                    -0.133294
      9 C                    -0.357455
     10 C                    -0.146022
     11 C                     0.294335
     12 C                    -0.347381
     13 C                    -0.287064
     14 C                     0.471954
     15 H                     0.198925
     16 H                     0.163709
     17 H                     0.166156
     18 H                     0.198833
     19 H                     0.105253
     20 H                     0.170884
     21 H                     0.181030
     22 H                     0.167144
     23 C                    -0.613913
     24 C                    -0.644262
     25 H                     0.209140
     26 H                     0.139863
     27 H                     0.174977
     28 H                     0.208122
     29 H                     0.214873
     30 H                     0.128023
     31 GH                    0.116024
     32 GH                   -0.148777
     33 GH                   -0.106694
     34 GH                    0.067403
     35 GH                   -0.015319
     36 GH                    0.000943
     37 GH                    0.000700
     38 GH                   -0.008132
     39 GH                   -0.008321
     40 GH                    0.007930
     41 GH                   -0.006037
     42 GH                   -0.030300
     43 GH                    0.048003
     44 GH                    0.027229
     45 GH                    0.000882
     46 GH                   -0.000699
     47 GH                    0.000247
     48 GH                    0.003670
     49 GH                   -0.000858
     50 GH                    0.010037
     51 GH                    0.002397
     52 GH                   -0.001607
     53 GH                    0.014718
     54 GH                    0.002637
     55 GH                   -0.000720
     56 GH                    0.002268
     57 GH                   -0.005914
     58 GH                    0.000018
     59 GH                   -0.011243
     60 GH                    0.000279
  ----------------------------------------
  Sum of atomic charges =     0.000000

                    Cartesian Multipole Moments
 -----------------------------------------------------------------
    Charge (ESU x 10^10)
                 0.0000
    Dipole Moment (Debye)
         X       0.0648      Y      -0.1071      Z       0.0450
       Tot       0.1330
    Quadrupole Moments (Debye-Ang)
        XX     -76.2061     XY      -0.1199     YY     -95.3629
        XZ       0.4674     YZ      -9.4592     ZZ     -99.0469

 Total job time:  2371.69s(wall), 4720.07s(cpu)
        *  Thank you very much for using Q-Chem.  Have a nice day.  *
