 Q-Chem 5.0, Q-Chem, Inc., Pleasanton, CA (2017)
 Q-Chem 5.0.1 for Intel X86 EM64T Linux

User input:
--------------------------------------------------------------
$molecule
0  1
--
0  1
C        -0.54444000        -0.68370000        -0.06689000
C        -0.55709000        +0.71878000        +0.05493000
C        +0.74969000        -1.43776000        -0.09374000
C        +0.72843000        +1.48436000        +0.06598000
O        +1.53645000        -1.09176000        +0.94813000
O        +1.04702000        -2.28405000        -0.90088000
O        +1.53784000        +1.08301000        -0.93877000
O        +1.01035000        +2.37097000        +0.83478000
C        +2.83449000        +1.70121000        -0.99358000
C        +2.82316000        -1.73208000        +1.00475000
C        -1.74320000        -1.41616000        -0.12552000
C        -2.93952000        -0.70056000        -0.05285000
C        -2.95313000        +0.68255000        +0.06934000
C        -1.77161000        +1.42404000        +0.12810000
H        +2.73835000        +2.77989000        -1.12464000
H        +2.70778000        -2.81319000        +1.09555000
H        -3.90354000        +1.20325000        +0.11710000
H        +3.38998000        +1.50093000        -0.07544000
H        +3.33184000        +1.25269000        -1.85067000
H        +3.31095000        -1.32281000        +1.88650000
H        +3.39889000        -1.50934000        +0.10459000
H        -3.87892000        -1.24211000        -0.08988000
C        -1.83960000        +2.92746000        +0.24839000
C        -1.78103000        -2.92226000        -0.24590000
H        -1.39752000        -3.25223000        -1.21323000
H        -2.80572000        -3.28175000        -0.13627000
H        -1.16958000        -3.40777000        +0.51926000
H        -1.24214000        +3.42352000        -0.52065000
H        -1.45503000        +3.26427000        +1.21284000
H        -2.87211000        +3.26623000        +0.14638000
--
0  1
C        -0.51210000        -1.09350000        +4.61510000
C        -0.52475000        +0.30898000        +4.73692000
C        +0.78203000        -1.84756000        +4.58825000
C        +0.76077000        +1.07456000        +4.74797000
O        +1.56879000        -1.50156000        +5.63012000
O        +1.07936000        -2.69385000        +3.78111000
O        +1.57018000        +0.67321000        +3.74322000
O        +1.04269000        +1.96117000        +5.51677000
C        +2.86683000        +1.29141000        +3.68841000
C        +2.85550000        -2.14188000        +5.68674000
C        -1.71086000        -1.82596000        +4.55647000
C        -2.90718000        -1.11036000        +4.62914000
C        -2.92079000        +0.27275000        +4.75133000
C        -1.73927000        +1.01424000        +4.81009000
H        +2.77069000        +2.37009000        +3.55735000
H        +2.74012000        -3.22299000        +5.77754000
H        -3.87120000        +0.79345000        +4.79909000
H        +3.42232000        +1.09113000        +4.60655000
H        +3.36418000        +0.84289000        +2.83132000
H        +3.34329000        -1.73261000        +6.56849000
H        +3.43123000        -1.91914000        +4.78658000
H        -3.84658000        -1.65191000        +4.59211000
C        -1.80726000        +2.51766000        +4.93038000
C        -1.74869000        -3.33206000        +4.43609000
H        -1.36518000        -3.66203000        +3.46876000
H        -2.77338000        -3.69155000        +4.54572000
H        -1.13724000        -3.81757000        +5.20125000
H        -1.20980000        +3.01372000        +4.16134000
H        -1.42269000        +2.85447000        +5.89483000
H        -2.83977000        +2.85643000        +4.82837000
$end

$rem
JOBTYPE                   SP
METHOD                    B3LYP
DFT_D                     d3_op
BASIS                     6-311++G(d,p)
SYMMETRY                  False
THRESH                    12
SCF_CONVERGENCE           8
MAX_SUB_FILE_NUM          128
MEM_STATIC                400
MEM_TOTAL                 4000
$end
--------------------------------------------------------------

             Standard Nuclear Orientation (Angstroms)
    I     Atom           X                Y                Z
 ----------------------------------------------------------------
    1      C      -2.2915955967     0.4869795772     0.9135944398
    2      C      -2.4148750176     0.5505612838    -0.4873730246
    3      C      -2.1685655941    -0.8326845856     1.6117706202
    4      C      -2.5180115469    -0.7072599176    -1.2911423890
    5      O      -1.1911154118    -1.5851876904     1.0617427909
    6      O      -2.8124212776    -1.1757752593     2.5729290468
    7      O      -3.4261430185    -1.5507682687    -0.7530533398
    8      O      -1.9104902621    -0.9423546176    -2.3071433679
    9      C      -3.5684323644    -2.8261675211    -1.4008087626
   10      C      -1.0057070533    -2.8917755349     1.6338355247
   11      C      -2.2397944035     1.6582645591     1.6897186525
   12      C      -2.3096173588     2.8798239575     1.0178085228
   13      C      -2.4291894015     2.9437040122    -0.3641215642
   14      C      -2.4826778123     1.7899594059    -1.1485079751
   15      H      -3.8858334066    -2.6956008036    -2.4362695664
   16      H      -0.7306020181    -2.8119155432     2.6865917253
   17      H      -2.4861953365     3.9123078414    -0.8491428227
   18      H      -2.6215099798    -3.3690178666    -1.3830949796
   19      H      -4.3275093859    -3.3564255480    -0.8300557675
   20      H      -0.2012421014    -3.3466988853     1.0604203471
   21      H      -1.9223938074    -3.4780768973     1.5483821851
   22      H      -2.2658661651     3.7989984130     1.5925468432
   23      C      -2.6257608873     1.9122883409    -2.6464822359
   24      C      -2.0978717004     1.6415752809     3.1943246068
   25      H      -2.9877069187     1.2268631525     3.6717076654
   26      H      -1.9424858837     2.6553055253     3.5677514842
   27      H      -1.2513533512     1.0297828487     3.5170901448
   28      H      -3.4603785567     1.3164363185    -3.0244110786
   29      H      -1.7287968593     1.5597206330    -3.1589765357
   30      H      -2.7999166088     2.9535301786    -2.9234899489
   31      C       2.3905356331     0.5379264275     0.5073139444
   32      C       2.2672562122     0.6015081341    -0.8936535200
   33      C       2.5135656358    -0.7817377352     1.2054901248
   34      C       2.1641196829    -0.6563130672    -1.6974228844
   35      O       3.4910158180    -1.5342408400     0.6554622955
   36      O       1.8697099522    -1.1248284090     2.1666485514
   37      O       1.2559882113    -1.4998214184    -1.1593338352
   38      O       2.7716409677    -0.8914077672    -2.7134238633
   39      C       1.1136988654    -2.7752206708    -1.8070892580
   40      C       3.6764241765    -2.8408286845     1.2275550293
   41      C       2.4423368264     1.7092114095     1.2834381571
   42      C       2.3725138710     2.9307708079     0.6115280274
   43      C       2.2529418283     2.9946508625    -0.7704020596
   44      C       2.1994534176     1.8409062563    -1.5547884705
   45      H       0.7962978232    -2.6446539533    -2.8425500618
   46      H       3.9515292117    -2.7609686928     2.2803112299
   47      H       2.1959358934     3.9632546917    -1.2554233181
   48      H       2.0606212500    -3.3180710162    -1.7893754750
   49      H       0.3546218439    -3.3054786977    -1.2363362630
   50      H       4.4808891284    -3.2957520349     0.6541398517
   51      H       2.7597374224    -3.4271300470     1.1421016897
   52      H       2.4162650647     3.8499452634     1.1862663477
   53      C       2.0563703425     1.9632351912    -3.0527627313
   54      C       2.5842595294     1.6925221313     2.7880441114
   55      H       1.6944243111     1.2778100028     3.2654271700
   56      H       2.7396453461     2.7062523756     3.1614709888
   57      H       3.4307778787     1.0807296991     3.1108096494
   58      H       1.2217526731     1.3673831688    -3.4306915740
   59      H       2.9533343705     1.6106674834    -3.5652570311
   60      H       1.8822146210     3.0044770290    -3.3297704443
 ----------------------------------------------------------------

   15   -1533.7622490377      7.21E-09 Convergence criterion met
 Total energy in the final basis set = -1533.76224904

                    Orbital Energies (a.u.)
 --------------------------------------------------------------

 Alpha MOs
 -- Occupied --
-19.176 -19.175 -19.168 -19.167 -19.119 -19.118 -19.113 -19.112
-10.310 -10.310 -10.305 -10.304 -10.233 -10.232 -10.225 -10.224
-10.202 -10.202 -10.201 -10.201 -10.198 -10.198 -10.197 -10.197
-10.184 -10.183 -10.183 -10.183 -10.170 -10.169 -10.166 -10.166
 -1.119  -1.118  -1.109  -1.108  -1.030  -1.030  -1.024  -1.023
 -0.882  -0.881  -0.804  -0.804  -0.792  -0.792  -0.744  -0.743
 -0.731  -0.730  -0.722  -0.721  -0.672  -0.672  -0.646  -0.646
 -0.617  -0.617  -0.574  -0.574  -0.562  -0.560  -0.534  -0.533
 -0.515  -0.514  -0.511  -0.510  -0.489  -0.489  -0.484  -0.483
 -0.479  -0.475  -0.474  -0.471  -0.467  -0.465  -0.442  -0.438
 -0.434  -0.430  -0.428  -0.424  -0.420  -0.416  -0.413  -0.412
 -0.409  -0.408  -0.403  -0.402  -0.393  -0.392  -0.385  -0.384
 -0.378  -0.377  -0.370  -0.368  -0.359  -0.358  -0.356  -0.355
 -0.353  -0.352  -0.319  -0.318  -0.308  -0.306  -0.292  -0.292
 -0.288  -0.285  -0.264  -0.261  -0.251  -0.248

          Ground-State Mulliken Net Atomic Charges

     Atom                 Charge (a.u.)
  ----------------------------------------
      1 C                     0.222902
      2 C                     0.343916
      3 C                    -0.542271
      4 C                    -0.843531
      5 O                     0.146197
      6 O                    -0.139488
      7 O                     0.107742
      8 O                    -0.094562
      9 C                    -0.153504
     10 C                    -0.322002
     11 C                     0.462477
     12 C                    -0.322965
     13 C                    -0.312957
     14 C                     0.309490
     15 H                     0.165373
     16 H                     0.206404
     17 H                     0.163152
     18 H                     0.179756
     19 H                     0.172069
     20 H                     0.084565
     21 H                     0.191544
     22 H                     0.161194
     23 C                    -0.612562
     24 C                    -0.620335
     25 H                     0.214079
     26 H                     0.126992
     27 H                     0.206155
     28 H                     0.174427
     29 H                     0.189546
     30 H                     0.139212
     31 C                     0.319560
     32 C                     0.248260
     33 C                    -0.880292
     34 C                    -0.534815
     35 O                     0.122839
     36 O                    -0.084797
     37 O                     0.117353
     38 O                    -0.139196
     39 C                    -0.323786
     40 C                    -0.142194
     41 C                     0.306925
     42 C                    -0.306895
     43 C                    -0.317769
     44 C                     0.468808
     45 H                     0.208938
     46 H                     0.164197
     47 H                     0.161204
     48 H                     0.195550
     49 H                     0.082858
     50 H                     0.171859
     51 H                     0.178593
     52 H                     0.163722
     53 C                    -0.616439
     54 C                    -0.617250
     55 H                     0.190467
     56 H                     0.140099
     57 H                     0.174538
     58 H                     0.205725
     59 H                     0.213202
     60 H                     0.125721
  ----------------------------------------
  Sum of atomic charges =    -0.000000

                    Cartesian Multipole Moments
 -----------------------------------------------------------------
    Charge (ESU x 10^10)
                -0.0000
    Dipole Moment (Debye)
         X       0.1972      Y      -0.0533      Z       0.1772
       Tot       0.2704
    Quadrupole Moments (Debye-Ang)
        XX    -194.2887     XY      -1.4993     YY    -155.1807
        XZ      17.7579     YZ       1.7626     ZZ    -197.5125

 Total job time:  2522.29s(wall), 5021.00s(cpu)
        *  Thank you very much for using Q-Chem.  Have a nice day.  *
