                               Psi4 1.1 release

  ==> Input File <==

--------------------------------------------------------------------------
memory 750000 mb

molecule mol {
0 1
C         -0.54806        1.73208       -0.00254
O         -0.53292        2.48451        0.93629
O         -1.59855        1.58617       -0.83956
C         -2.81512        2.24508       -0.44389
H         -3.15673        1.84545        0.51218
H         -2.65869        3.32103       -0.35532
H         -3.53370        2.02569       -1.23085
--
0 1
C         -0.86951       -1.16992        0.07900
O         -1.47420       -0.65020        0.98172
O         -1.19978       -2.37483       -0.44211
C         -2.33135       -3.03281        0.15854
H         -2.15968       -3.19300        1.22391
H         -3.23326       -2.43298        0.02661
H         -2.42479       -3.98275       -0.36320
--
0 1
H          1.91813        1.84445        1.05220
H          1.52666       -2.16886        0.59716
C          0.38210       -0.64786       -0.59285
C          0.62086        0.89410       -0.49056
C          1.63195       -1.16486        0.19116
C          2.91070       -0.90932       -0.64081
C          3.11783        0.62005       -0.41128
C          1.86846        0.95865        0.42635
O          1.73123       -0.21306        1.25093
H          0.38621       -0.99976       -1.62349
H          0.85193        1.27682       -1.48872
H          3.74316       -1.49065       -0.24231
H          2.78350       -1.17666       -1.69184
H          4.02267        0.81557        0.16582
H          3.17345        1.19245       -1.33938

symmetry c1
no_reorient
no_com
}

set {
basis jun-cc-pvdz
scf_type df
guess sad
freeze_core true
}

energy('fisapt0')
--------------------------------------------------------------------------

    Molecular point group: c1

    Geometry (in Angstrom), charge = 0, multiplicity = 1:

       Center              X                  Y                   Z               Mass
    ------------   -----------------  -----------------  -----------------  -----------------
           C         -0.548060000000     1.732080000000    -0.002540000000    12.000000000000
           O         -0.532920000000     2.484510000000     0.936290000000    15.994914619560
           O         -1.598550000000     1.586170000000    -0.839560000000    15.994914619560
           C         -2.815120000000     2.245080000000    -0.443890000000    12.000000000000
           H         -3.156730000000     1.845450000000     0.512180000000     1.007825032070
           H         -2.658690000000     3.321030000000    -0.355320000000     1.007825032070
           H         -3.533700000000     2.025690000000    -1.230850000000     1.007825032070
           C         -0.869510000000    -1.169920000000     0.079000000000    12.000000000000
           O         -1.474200000000    -0.650200000000     0.981720000000    15.994914619560
           O         -1.199780000000    -2.374830000000    -0.442110000000    15.994914619560
           C         -2.331350000000    -3.032810000000     0.158540000000    12.000000000000
           H         -2.159680000000    -3.193000000000     1.223910000000     1.007825032070
           H         -3.233260000000    -2.432980000000     0.026610000000     1.007825032070
           H         -2.424790000000    -3.982750000000    -0.363200000000     1.007825032070
           H          1.918130000000     1.844450000000     1.052200000000     1.007825032070
           H          1.526660000000    -2.168860000000     0.597160000000     1.007825032070
           C          0.382100000000    -0.647860000000    -0.592850000000    12.000000000000
           C          0.620860000000     0.894100000000    -0.490560000000    12.000000000000
           C          1.631950000000    -1.164860000000     0.191160000000    12.000000000000
           C          2.910700000000    -0.909320000000    -0.640810000000    12.000000000000
           C          3.117830000000     0.620050000000    -0.411280000000    12.000000000000
           C          1.868460000000     0.958650000000     0.426350000000    12.000000000000
           O          1.731230000000    -0.213060000000     1.250930000000    15.994914619560
           H          0.386210000000    -0.999760000000    -1.623490000000     1.007825032070
           H          0.851930000000     1.276820000000    -1.488720000000     1.007825032070
           H          3.743160000000    -1.490650000000    -0.242310000000     1.007825032070
           H          2.783500000000    -1.176660000000    -1.691840000000     1.007825032070
           H          4.022670000000     0.815570000000     0.165820000000     1.007825032070
           H          3.173450000000     1.192450000000    -1.339380000000     1.007825032070

  Charge       = 0
  Multiplicity = 1
  Basis Set: JUN-CC-PVDZ
    Blend: JUN-CC-PVDZ
  Basis Set: (JUN-CC-PVDZ AUX)
    Blend: JUN-CC-PVDZ-JKFIT

    Orbital Energies (a.u.)
    -----------------------

    Doubly Occupied:

       1A    -20.614746     2A    -20.603295     3A    -20.567746
       4A    -20.558674     5A    -20.549212     6A    -11.393061
       7A    -11.385935     8A    -11.303158     9A    -11.298698
      10A    -11.290983    11A    -11.287960    12A    -11.269191
      13A    -11.264587    14A    -11.244400    15A    -11.241011
      16A     -1.470090    17A     -1.458638    18A     -1.405219
      19A     -1.369564    20A     -1.360290    21A     -1.114969
      22A     -1.052341    23A     -1.039954    24A     -0.983264
      25A     -0.966436    26A     -0.886494    27A     -0.822644
      28A     -0.805853    29A     -0.780625    30A     -0.760731
      31A     -0.737641    32A     -0.708109    33A     -0.687333
      34A     -0.682329    35A     -0.669215    36A     -0.667517
      37A     -0.664061    38A     -0.651023    39A     -0.628303
      40A     -0.588834    41A     -0.579262    42A     -0.569306
      43A     -0.562091    44A     -0.544030    45A     -0.535576
      46A     -0.533026    47A     -0.522633    48A     -0.510103
      49A     -0.508828    50A     -0.502899    51A     -0.480523
      52A     -0.474437    53A     -0.469058    54A     -0.455809
      55A     -0.450041    56A     -0.436728    57A     -0.427391

  @DF-RHF Final Energy:  -761.22956474203340

   => Energetics <=

    Nuclear Repulsion Energy =           1110.9646837469663296
    One-Electron Energy =               -3249.5967440832796456
    Two-Electron Energy =                1377.4024955942800261
    DFT Exchange-Correlation Energy =       0.0000000000000000
    Empirical Dispersion Energy =           0.0000000000000000
    PCM Polarization Energy =               0.0000000000000000
    EFP Energy =                            0.0000000000000000
    Total Energy =                       -761.2295647420332898
  Basis Set: (JUN-CC-PVDZ AUX)
    Blend: JUN-CC-PVDZ-JKFIT
  Basis Set: (JUN-CC-PVDZ AUX)
    Blend: JUN-CC-PVDZ-JKFIT
  Basis Set: (JUN-CC-PVDZ AUX)
    Blend: JUN-CC-PVDZ-JKFIT
  Basis Set: (JUN-CC-PVDZ AUX)
    Blend: JUN-CC-PVDZ-JKFIT
  Basis Set: (JUN-CC-PVDZ AUX)
    Blend: JUN-CC-PVDZ-RI

    SAPT Results
  --------------------------------------------------------------------------------------------------------
    Electrostatics                 11.52909431 [mEh]       7.23461621 [kcal/mol]      30.26963712 [kJ/mol]
      Elst10,r                     11.52909431 [mEh]       7.23461621 [kcal/mol]      30.26963712 [kJ/mol]

    Exchange                        7.70950224 [mEh]       4.83778590 [kcal/mol]      20.24129814 [kJ/mol]
      Exch10                        7.70950224 [mEh]       4.83778590 [kcal/mol]      20.24129814 [kJ/mol]
      Exch10(S^2)                   7.68406399 [mEh]       4.82182315 [kcal/mol]      20.17451000 [kJ/mol]

    Induction                      -2.42709055 [mEh]      -1.52302238 [kcal/mol]      -6.37232625 [kJ/mol]
      Ind20,r                      -4.90708640 [mEh]      -3.07924333 [kcal/mol]     -12.88355534 [kJ/mol]
      Exch-Ind20,r                  3.00846098 [mEh]       1.88783785 [kcal/mol]       7.89871431 [kJ/mol]
      delta HF,r (2)               -0.52846514 [mEh]      -0.33161689 [kcal/mol]      -1.38748522 [kJ/mol]
      Induction (A<-B)             -1.41446669 [mEh]      -0.88759129 [kcal/mol]      -3.71368230 [kJ/mol]
      Induction (B<-A)             -1.01262386 [mEh]      -0.63543109 [kcal/mol]      -2.65864395 [kJ/mol]

    Dispersion                     -3.60268620 [mEh]      -2.26071982 [kcal/mol]      -9.45885262 [kJ/mol]
      Disp20                       -4.21386096 [mEh]      -2.64423778 [kcal/mol]     -11.06349195 [kJ/mol]
      Exch-Disp20                   0.61117476 [mEh]       0.38351797 [kcal/mol]       1.60463932 [kJ/mol]

  Total HF                         16.81150600 [mEh]      10.54937973 [kcal/mol]      44.13860901 [kJ/mol]
  Total SAPT0                      13.20881980 [mEh]       8.28865991 [kcal/mol]      34.67975639 [kJ/mol]

  --------------------------------------------------------------------------------------------------------

*** Psi4 exiting successfully. Buy a developer a beer!
