                               Psi4 1.1 release

  ==> Input File <==

--------------------------------------------------------------------------
memory 10000 mb

molecule mol {
0 1
C          0.40086        1.69675        0.23870
O          0.15995        2.87788        0.16169
O          1.59790        1.16806       -0.04662
C          2.60313        2.07863       -0.53208
H          2.23629        2.61141       -1.40940
H          2.87037        2.79588        0.24525
H          3.45527        1.45462       -0.79086
--
0 1
C          0.89125       -1.33345       -0.10267
O          1.16500       -1.56215       -1.25337
O          1.73377       -1.56104        0.92877
C          3.05985       -1.98433        0.57227
H          3.02732       -2.92198        0.01515
H          3.54743       -1.22242       -0.03815
H          3.58796       -2.11568        1.51418
--
0 1
H         -2.14392        1.99274       -0.25312
H         -1.40018       -1.84331       -1.34945
C         -0.45179       -0.85213        0.41528
C         -0.63210        0.68228        0.71724
C         -1.61260       -1.09344       -0.59315
C         -2.92732       -1.24928        0.19379
C         -3.13758        0.21284        0.69250
C         -1.97572        0.94628       -0.01731
O         -1.78644        0.18848       -1.21943
H         -0.62418       -1.40068        1.34327
H         -0.72314        0.85113        1.79343
H         -3.72976       -1.55937       -0.47727
H         -2.85784       -1.97899        1.00317
H         -4.09742        0.61546        0.36678
H         -3.08475        0.30738        1.77924

symmetry c1
no_reorient
no_com
}

set {
basis jun-cc-pvdz
scf_type df
guess sad
freeze_core true
}

energy('fisapt0')
--------------------------------------------------------------------------

    Molecular point group: c1

    Geometry (in Angstrom), charge = 0, multiplicity = 1:

       Center              X                  Y                   Z               Mass
    ------------   -----------------  -----------------  -----------------  -----------------
           C          0.400860000000     1.696750000000     0.238700000000    12.000000000000
           O          0.159950000000     2.877880000000     0.161690000000    15.994914619560
           O          1.597900000000     1.168060000000    -0.046620000000    15.994914619560
           C          2.603130000000     2.078630000000    -0.532080000000    12.000000000000
           H          2.236290000000     2.611410000000    -1.409400000000     1.007825032070
           H          2.870370000000     2.795880000000     0.245250000000     1.007825032070
           H          3.455270000000     1.454620000000    -0.790860000000     1.007825032070
           C          0.891250000000    -1.333450000000    -0.102670000000    12.000000000000
           O          1.165000000000    -1.562150000000    -1.253370000000    15.994914619560
           O          1.733770000000    -1.561040000000     0.928770000000    15.994914619560
           C          3.059850000000    -1.984330000000     0.572270000000    12.000000000000
           H          3.027320000000    -2.921980000000     0.015150000000     1.007825032070
           H          3.547430000000    -1.222420000000    -0.038150000000     1.007825032070
           H          3.587960000000    -2.115680000000     1.514180000000     1.007825032070
           H         -2.143920000000     1.992740000000    -0.253120000000     1.007825032070
           H         -1.400180000000    -1.843310000000    -1.349450000000     1.007825032070
           C         -0.451790000000    -0.852130000000     0.415280000000    12.000000000000
           C         -0.632100000000     0.682280000000     0.717240000000    12.000000000000
           C         -1.612600000000    -1.093440000000    -0.593150000000    12.000000000000
           C         -2.927320000000    -1.249280000000     0.193790000000    12.000000000000
           C         -3.137580000000     0.212840000000     0.692500000000    12.000000000000
           C         -1.975720000000     0.946280000000    -0.017310000000    12.000000000000
           O         -1.786440000000     0.188480000000    -1.219430000000    15.994914619560
           H         -0.624180000000    -1.400680000000     1.343270000000     1.007825032070
           H         -0.723140000000     0.851130000000     1.793430000000     1.007825032070
           H         -3.729760000000    -1.559370000000    -0.477270000000     1.007825032070
           H         -2.857840000000    -1.978990000000     1.003170000000     1.007825032070
           H         -4.097420000000     0.615460000000     0.366780000000     1.007825032070
           H         -3.084750000000     0.307380000000     1.779240000000     1.007825032070

  Charge       = 0
  Multiplicity = 1
  Basis Set: JUN-CC-PVDZ
    Blend: JUN-CC-PVDZ
  Basis Set: (JUN-CC-PVDZ AUX)
    Blend: JUN-CC-PVDZ-JKFIT

    Orbital Energies (a.u.)
    -----------------------

    Doubly Occupied:

       1A    -20.617661     2A    -20.608604     3A    -20.567870
       4A    -20.557596     5A    -20.552626     6A    -11.396629
       7A    -11.390558     8A    -11.299750     9A    -11.295677
      10A    -11.295330    11A    -11.293315    12A    -11.273887
      13A    -11.266661    14A    -11.241789    15A    -11.240419
      16A     -1.475600    17A     -1.463319    18A     -1.404131
      19A     -1.370529    20A     -1.364228    21A     -1.113609
      22A     -1.051902    23A     -1.037405    24A     -0.985846
      25A     -0.973298    26A     -0.890851    27A     -0.822468
      28A     -0.805860    29A     -0.778266    30A     -0.769704
      31A     -0.741703    32A     -0.707414    33A     -0.689052
      34A     -0.680171    35A     -0.678853    36A     -0.667375
      37A     -0.663220    38A     -0.655972    39A     -0.628423
      40A     -0.589934    41A     -0.583694    42A     -0.571527
      43A     -0.562191    44A     -0.552865    45A     -0.535997
      46A     -0.532019    47A     -0.520857    48A     -0.510345
      49A     -0.509011    50A     -0.498377    51A     -0.481099
      52A     -0.475377    53A     -0.470358    54A     -0.457230
      55A     -0.452942    56A     -0.436344    57A     -0.432281

  @DF-RHF Final Energy:  -761.22584564352428

   => Energetics <=

    Nuclear Repulsion Energy =           1114.0993665889941440
    One-Electron Energy =               -3255.6703948813865281
    Two-Electron Energy =                1380.3451826488681036
    DFT Exchange-Correlation Energy =       0.0000000000000000
    Empirical Dispersion Energy =           0.0000000000000000
    PCM Polarization Energy =               0.0000000000000000
    EFP Energy =                            0.0000000000000000
    Total Energy =                       -761.2258456435242806
  Basis Set: (JUN-CC-PVDZ AUX)
    Blend: JUN-CC-PVDZ-JKFIT
  Basis Set: (JUN-CC-PVDZ AUX)
    Blend: JUN-CC-PVDZ-JKFIT
  Basis Set: (JUN-CC-PVDZ AUX)
    Blend: JUN-CC-PVDZ-JKFIT
  Basis Set: (JUN-CC-PVDZ AUX)
    Blend: JUN-CC-PVDZ-JKFIT
  Basis Set: (JUN-CC-PVDZ AUX)
    Blend: JUN-CC-PVDZ-RI

    SAPT Results
  --------------------------------------------------------------------------------------------------------
    Electrostatics                 11.04292492 [mEh]       6.92954030 [kcal/mol]      28.99319938 [kJ/mol]
      Elst10,r                     11.04292492 [mEh]       6.92954030 [kcal/mol]      28.99319938 [kJ/mol]

    Exchange                        8.67019019 [mEh]       5.44062671 [kcal/mol]      22.76358434 [kJ/mol]
      Exch10                        8.67019019 [mEh]       5.44062671 [kcal/mol]      22.76358434 [kJ/mol]
      Exch10(S^2)                   8.63743227 [mEh]       5.42007080 [kcal/mol]      22.67757842 [kJ/mol]

    Induction                      -2.16185865 [mEh]      -1.35658684 [kcal/mol]      -5.67595988 [kJ/mol]
      Ind20,r                      -3.93526284 [mEh]      -2.46941482 [kcal/mol]     -10.33203258 [kJ/mol]
      Exch-Ind20,r                  2.41446387 [mEh]       1.51509902 [kcal/mol]       6.33917489 [kJ/mol]
      delta HF,r (2)               -0.64105968 [mEh]      -0.40227104 [kcal/mol]      -1.68310219 [kJ/mol]
      Induction (A<-B)             -1.54491951 [mEh]      -0.96945167 [kcal/mol]      -4.05618617 [kJ/mol]
      Induction (B<-A)             -0.61693914 [mEh]      -0.38713517 [kcal/mol]      -1.61977371 [kJ/mol]

    Dispersion                     -4.15097365 [mEh]      -2.60477540 [kcal/mol]     -10.89838133 [kJ/mol]
      Disp20                       -4.77574689 [mEh]      -2.99682654 [kcal/mol]     -12.53872346 [kJ/mol]
      Exch-Disp20                   0.62477323 [mEh]       0.39205114 [kcal/mol]       1.64034212 [kJ/mol]

  Total HF                         17.55125647 [mEh]      11.01358017 [kcal/mol]      46.08082385 [kJ/mol]
  Total SAPT0                      13.40028281 [mEh]       8.40880477 [kcal/mol]      35.18244252 [kJ/mol]

  --------------------------------------------------------------------------------------------------------

*** Psi4 exiting successfully. Buy a developer a beer!
