                               Psi4 1.1 release

  ==> Input File <==

--------------------------------------------------------------------------
memory 750000 mb

molecule mol {
0 1
C          0.60890        1.43691        0.50158
O          1.07278        2.23795        1.27755
O          1.09780        1.22404       -0.73325
C          2.26717        1.97728       -1.09681
H          2.05847        3.04757       -1.06451
H          3.08994        1.75321       -0.41547
H          2.50786        1.66279       -2.10972
--
0 1
C          0.77435       -1.45551       -0.04202
O          0.93932       -2.09815       -1.04678
O          1.76192       -1.15982        0.83010
C          3.08693       -1.56954        0.44660
H          3.35720       -1.11866       -0.50956
H          3.74110       -1.21400        1.23937
H          3.14190       -2.65564        0.35890
--
0 1
H         -1.81350        2.04727       -0.47462
H         -1.57465       -1.92869       -1.23454
C         -0.55597       -0.93281        0.47235
C         -0.62767        0.60761        0.78123
C         -1.70629       -1.09818       -0.54762
C         -3.06041       -1.01203        0.19085
C         -3.14313        0.51746        0.48642
C         -1.82249        1.00962       -0.14720
O         -1.66402        0.14198       -1.27113
H         -0.75362       -1.48844        1.39333
H         -0.86462        0.78675        1.82828
H         -3.87002       -1.33480       -0.46470
H         -3.08673       -1.62772        1.09226
H         -3.99372        0.97538       -0.02044
H         -3.21475        0.75310        1.54988

symmetry c1
no_reorient
no_com
}

set {
basis jun-cc-pvdz
scf_type df
guess sad
freeze_core true
}

energy('fisapt0')
--------------------------------------------------------------------------

    Molecular point group: c1

    Geometry (in Angstrom), charge = 0, multiplicity = 1:

       Center              X                  Y                   Z               Mass
    ------------   -----------------  -----------------  -----------------  -----------------
           C          0.608900000000     1.436910000000     0.501580000000    12.000000000000
           O          1.072780000000     2.237950000000     1.277550000000    15.994914619560
           O          1.097800000000     1.224040000000    -0.733250000000    15.994914619560
           C          2.267170000000     1.977280000000    -1.096810000000    12.000000000000
           H          2.058470000000     3.047570000000    -1.064510000000     1.007825032070
           H          3.089940000000     1.753210000000    -0.415470000000     1.007825032070
           H          2.507860000000     1.662790000000    -2.109720000000     1.007825032070
           C          0.774350000000    -1.455510000000    -0.042020000000    12.000000000000
           O          0.939320000000    -2.098150000000    -1.046780000000    15.994914619560
           O          1.761920000000    -1.159820000000     0.830100000000    15.994914619560
           C          3.086930000000    -1.569540000000     0.446600000000    12.000000000000
           H          3.357200000000    -1.118660000000    -0.509560000000     1.007825032070
           H          3.741100000000    -1.214000000000     1.239370000000     1.007825032070
           H          3.141900000000    -2.655640000000     0.358900000000     1.007825032070
           H         -1.813500000000     2.047270000000    -0.474620000000     1.007825032070
           H         -1.574650000000    -1.928690000000    -1.234540000000     1.007825032070
           C         -0.555970000000    -0.932810000000     0.472350000000    12.000000000000
           C         -0.627670000000     0.607610000000     0.781230000000    12.000000000000
           C         -1.706290000000    -1.098180000000    -0.547620000000    12.000000000000
           C         -3.060410000000    -1.012030000000     0.190850000000    12.000000000000
           C         -3.143130000000     0.517460000000     0.486420000000    12.000000000000
           C         -1.822490000000     1.009620000000    -0.147200000000    12.000000000000
           O         -1.664020000000     0.141980000000    -1.271130000000    15.994914619560
           H         -0.753620000000    -1.488440000000     1.393330000000     1.007825032070
           H         -0.864620000000     0.786750000000     1.828280000000     1.007825032070
           H         -3.870020000000    -1.334800000000    -0.464700000000     1.007825032070
           H         -3.086730000000    -1.627720000000     1.092260000000     1.007825032070
           H         -3.993720000000     0.975380000000    -0.020440000000     1.007825032070
           H         -3.214750000000     0.753100000000     1.549880000000     1.007825032070

  Charge       = 0
  Multiplicity = 1
  Basis Set: JUN-CC-PVDZ
    Blend: JUN-CC-PVDZ
  Basis Set: (JUN-CC-PVDZ AUX)
    Blend: JUN-CC-PVDZ-JKFIT

    Orbital Energies (a.u.)
    -----------------------

    Doubly Occupied:

       1A    -20.614248     2A    -20.610681     3A    -20.568546
       4A    -20.559138     5A    -20.556551     6A    -11.394355
       7A    -11.391483     8A    -11.302699     9A    -11.299078
      10A    -11.296419    11A    -11.293597    12A    -11.270452
      13A    -11.268599    14A    -11.244029    15A    -11.242621
      16A     -1.473155    17A     -1.465382    18A     -1.406297
      19A     -1.370024    20A     -1.366268    21A     -1.116175
      22A     -1.053554    23A     -1.040073    24A     -0.984123
      25A     -0.972407    26A     -0.892140    27A     -0.825706
      28A     -0.807307    29A     -0.781421    30A     -0.768336
      31A     -0.742026    32A     -0.707985    33A     -0.692785
      34A     -0.683152    35A     -0.676077    36A     -0.669757
      37A     -0.664020    38A     -0.651561    39A     -0.627651
      40A     -0.587894    41A     -0.586696    42A     -0.575707
      43A     -0.560147    44A     -0.545713    45A     -0.537133
      46A     -0.535135    47A     -0.527099    48A     -0.514375
      49A     -0.509847    50A     -0.502172    51A     -0.484656
      52A     -0.479832    53A     -0.467495    54A     -0.463815
      55A     -0.451660    56A     -0.437357    57A     -0.429746

  @DF-RHF Final Energy:  -761.22909211364799

   => Energetics <=

    Nuclear Repulsion Energy =           1125.0353595273734300
    One-Electron Energy =               -3277.4361963944447780
    Two-Electron Energy =                1391.1717447534231269
    DFT Exchange-Correlation Energy =       0.0000000000000000
    Empirical Dispersion Energy =           0.0000000000000000
    PCM Polarization Energy =               0.0000000000000000
    EFP Energy =                            0.0000000000000000
    Total Energy =                       -761.2290921136479938
  Basis Set: (JUN-CC-PVDZ AUX)
    Blend: JUN-CC-PVDZ-JKFIT
  Basis Set: (JUN-CC-PVDZ AUX)
    Blend: JUN-CC-PVDZ-JKFIT
  Basis Set: (JUN-CC-PVDZ AUX)
    Blend: JUN-CC-PVDZ-JKFIT
  Basis Set: (JUN-CC-PVDZ AUX)
    Blend: JUN-CC-PVDZ-JKFIT
  Basis Set: (JUN-CC-PVDZ AUX)
    Blend: JUN-CC-PVDZ-RI

    SAPT Results
  --------------------------------------------------------------------------------------------------------
    Electrostatics                 12.14564594 [mEh]       7.62150821 [kcal/mol]      31.88839341 [kJ/mol]
      Elst10,r                     12.14564594 [mEh]       7.62150821 [kcal/mol]      31.88839341 [kJ/mol]

    Exchange                        6.24840467 [mEh]       3.92093329 [kcal/mol]      16.40518645 [kJ/mol]
      Exch10                        6.24840467 [mEh]       3.92093329 [kcal/mol]      16.40518645 [kJ/mol]
      Exch10(S^2)                   6.23502289 [mEh]       3.91253610 [kcal/mol]      16.37005260 [kJ/mol]

    Induction                      -2.10679033 [mEh]      -1.32203095 [kcal/mol]      -5.53137801 [kJ/mol]
      Ind20,r                      -3.40113494 [mEh]      -2.13424449 [kcal/mol]      -8.92967979 [kJ/mol]
      Exch-Ind20,r                  1.77338043 [mEh]       1.11281307 [kcal/mol]       4.65601032 [kJ/mol]
      delta HF,r (2)               -0.47903582 [mEh]      -0.30059953 [kcal/mol]      -1.25770855 [kJ/mol]
      Induction (A<-B)             -1.08182215 [mEh]      -0.67885368 [kcal/mol]      -2.84032406 [kJ/mol]
      Induction (B<-A)             -1.02496818 [mEh]      -0.64317727 [kcal/mol]      -2.69105395 [kJ/mol]

    Dispersion                     -4.34367630 [mEh]      -2.72569814 [kcal/mol]     -11.40432213 [kJ/mol]
      Disp20                       -4.81805664 [mEh]      -3.02337631 [kcal/mol]     -12.64980770 [kJ/mol]
      Exch-Disp20                   0.47438033 [mEh]       0.29767817 [kcal/mol]       1.24548557 [kJ/mol]

  Total HF                         16.28726027 [mEh]      10.22041055 [kcal/mol]      42.76220185 [kJ/mol]
  Total SAPT0                      11.94358397 [mEh]       7.49471241 [kcal/mol]      31.35787972 [kJ/mol]

  --------------------------------------------------------------------------------------------------------

*** Psi4 exiting successfully. Buy a developer a beer!
