                               Psi4 1.1 release

  ==> Input File <==

--------------------------------------------------------------------------
memory 750000 mb

molecule mol {
0 1
C          0.65312        1.31083        0.65979
O          1.52273        1.42022        1.49230
O          0.69098        1.90849       -0.54041
C          1.87001        2.67964       -0.83342
H          1.70675        3.08598       -1.82858
H          1.99619        3.47928       -0.10201
H          2.75270        2.03852       -0.82266
--
C          0.85315       -1.34062       -0.31404
O          1.11178       -1.31605       -1.49088
O          1.74253       -1.66853        0.64539
C          3.09362       -1.90678        0.21151
H          3.50713       -1.00523       -0.24310
H          3.64534       -2.16405        1.11256
H          3.12593       -2.72434       -0.51011
--
0 1
H         -1.90786        2.02393       -0.08380
H         -1.54125       -1.75233       -1.50154
C         -0.60035        0.47426        0.85851
C         -0.48606       -1.01348        0.31841
C         -1.85182        0.95006        0.07354
C         -3.11136        0.28891        0.68114
C         -2.99163       -1.15997        0.11439
C         -1.67126       -1.05443       -0.67876
O         -1.71913        0.28398       -1.18646
H         -0.76766        0.45957        1.93518
H         -0.62552       -1.70465        1.15038
H         -4.01126        0.78586        0.31671
H         -3.12202        0.32543        1.77229
H         -3.81630       -1.39155       -0.56087
H         -2.96286       -1.92707        0.89127

symmetry c1
no_reorient
no_com
}

set {
basis jun-cc-pvdz
scf_type df
guess sad
freeze_core true
}

energy('fisapt0')
--------------------------------------------------------------------------

    Molecular point group: c1

    Geometry (in Angstrom), charge = 0, multiplicity = 1:

       Center              X                  Y                   Z               Mass
    ------------   -----------------  -----------------  -----------------  -----------------
           C          0.653120000000     1.310830000000     0.659790000000    12.000000000000
           O          1.522730000000     1.420220000000     1.492300000000    15.994914619560
           O          0.690980000000     1.908490000000    -0.540410000000    15.994914619560
           C          1.870010000000     2.679640000000    -0.833420000000    12.000000000000
           H          1.706750000000     3.085980000000    -1.828580000000     1.007825032070
           H          1.996190000000     3.479280000000    -0.102010000000     1.007825032070
           H          2.752700000000     2.038520000000    -0.822660000000     1.007825032070
           C          0.853150000000    -1.340620000000    -0.314040000000    12.000000000000
           O          1.111780000000    -1.316050000000    -1.490880000000    15.994914619560
           O          1.742530000000    -1.668530000000     0.645390000000    15.994914619560
           C          3.093620000000    -1.906780000000     0.211510000000    12.000000000000
           H          3.507130000000    -1.005230000000    -0.243100000000     1.007825032070
           H          3.645340000000    -2.164050000000     1.112560000000     1.007825032070
           H          3.125930000000    -2.724340000000    -0.510110000000     1.007825032070
           H         -1.907860000000     2.023930000000    -0.083800000000     1.007825032070
           H         -1.541250000000    -1.752330000000    -1.501540000000     1.007825032070
           C         -0.600350000000     0.474260000000     0.858510000000    12.000000000000
           C         -0.486060000000    -1.013480000000     0.318410000000    12.000000000000
           C         -1.851820000000     0.950060000000     0.073540000000    12.000000000000
           C         -3.111360000000     0.288910000000     0.681140000000    12.000000000000
           C         -2.991630000000    -1.159970000000     0.114390000000    12.000000000000
           C         -1.671260000000    -1.054430000000    -0.678760000000    12.000000000000
           O         -1.719130000000     0.283980000000    -1.186460000000    15.994914619560
           H         -0.767660000000     0.459570000000     1.935180000000     1.007825032070
           H         -0.625520000000    -1.704650000000     1.150380000000     1.007825032070
           H         -4.011260000000     0.785860000000     0.316710000000     1.007825032070
           H         -3.122020000000     0.325430000000     1.772290000000     1.007825032070
           H         -3.816300000000    -1.391550000000    -0.560870000000     1.007825032070
           H         -2.962860000000    -1.927070000000     0.891270000000     1.007825032070

  Charge       = 0
  Multiplicity = 1
  Basis Set: JUN-CC-PVDZ
    Blend: JUN-CC-PVDZ
  Basis Set: (JUN-CC-PVDZ AUX)
    Blend: JUN-CC-PVDZ-JKFIT

    Orbital Energies (a.u.)
    -----------------------

    Doubly Occupied:

       1A    -20.610536     2A    -20.609817     3A    -20.565592
       4A    -20.558937     5A    -20.556512     6A    -11.391502
       7A    -11.391097     8A    -11.297683     9A    -11.294685
      10A    -11.294424    11A    -11.293847    12A    -11.270771
      13A    -11.270202    14A    -11.242947    15A    -11.241972
      16A     -1.470072    17A     -1.465545    18A     -1.404034
      19A     -1.367836    20A     -1.365226    21A     -1.114747
      22A     -1.051745    23A     -1.040185    24A     -0.982714
      25A     -0.968817    26A     -0.888329    27A     -0.827405
      28A     -0.806006    29A     -0.779988    30A     -0.763300
      31A     -0.739142    32A     -0.706650    33A     -0.688098
      34A     -0.681583    35A     -0.672751    36A     -0.670534
      37A     -0.660346    38A     -0.656321    39A     -0.626917
      40A     -0.585944    41A     -0.584230    42A     -0.573989
      43A     -0.556660    44A     -0.545963    45A     -0.532890
      46A     -0.530708    47A     -0.524864    48A     -0.513268
      49A     -0.504312    50A     -0.502739    51A     -0.485230
      52A     -0.480585    53A     -0.468094    54A     -0.456099
      55A     -0.452152    56A     -0.433983    57A     -0.429008

  @DF-RHF Final Energy:  -761.22440157740573

   => Energetics <=

    Nuclear Repulsion Energy =           1118.4918692156286397
    One-Electron Energy =               -3264.5334793913543763
    Two-Electron Energy =                1384.8172085983196666
    DFT Exchange-Correlation Energy =       0.0000000000000000
    Empirical Dispersion Energy =           0.0000000000000000
    PCM Polarization Energy =               0.0000000000000000
    EFP Energy =                            0.0000000000000000
    Total Energy =                       -761.2244015774058425
  Basis Set: (JUN-CC-PVDZ AUX)
    Blend: JUN-CC-PVDZ-JKFIT
  Basis Set: (JUN-CC-PVDZ AUX)
    Blend: JUN-CC-PVDZ-JKFIT
  Basis Set: (JUN-CC-PVDZ AUX)
    Blend: JUN-CC-PVDZ-JKFIT
  Basis Set: (JUN-CC-PVDZ AUX)
    Blend: JUN-CC-PVDZ-JKFIT
  Basis Set: (JUN-CC-PVDZ AUX)
    Blend: JUN-CC-PVDZ-RI

    SAPT Results
  --------------------------------------------------------------------------------------------------------
    Electrostatics                 19.10903371 [mEh]      11.99110019 [kcal/mol]      50.17076801 [kJ/mol]
      Elst10,r                     19.10903371 [mEh]      11.99110019 [kcal/mol]      50.17076801 [kJ/mol]

    Exchange                        2.52095925 [mEh]       1.58192588 [kcal/mol]       6.61877852 [kJ/mol]
      Exch10                        2.52095925 [mEh]       1.58192588 [kcal/mol]       6.61877852 [kJ/mol]
      Exch10(S^2)                   2.51944574 [mEh]       1.58097613 [kcal/mol]       6.61480478 [kJ/mol]

    Induction                      -1.73891600 [mEh]      -1.09118631 [kcal/mol]      -4.56552396 [kJ/mol]
      Ind20,r                      -2.51227525 [mEh]      -1.57647659 [kcal/mol]      -6.59597868 [kJ/mol]
      Exch-Ind20,r                  0.87109699 [mEh]       0.54662164 [kcal/mol]       2.28706516 [kJ/mol]
      delta HF,r (2)               -0.09773774 [mEh]      -0.06133136 [kcal/mol]      -0.25661044 [kJ/mol]
      Induction (A<-B)             -0.81837963 [mEh]      -0.51354099 [kcal/mol]      -2.14865571 [kJ/mol]
      Induction (B<-A)             -0.92053637 [mEh]      -0.57764532 [kcal/mol]      -2.41686825 [kJ/mol]

    Dispersion                     -3.02130904 [mEh]      -1.89590012 [kcal/mol]      -7.93244688 [kJ/mol]
      Disp20                       -3.25042303 [mEh]      -2.03967133 [kcal/mol]      -8.53398566 [kJ/mol]
      Exch-Disp20                   0.22911399 [mEh]       0.14377120 [kcal/mol]       0.60153877 [kJ/mol]

  Total HF                         19.89107697 [mEh]      12.48183976 [kcal/mol]      52.22402258 [kJ/mol]
  Total SAPT0                      16.86976793 [mEh]      10.58593964 [kcal/mol]      44.29157569 [kJ/mol]

  --------------------------------------------------------------------------------------------------------

*** Psi4 exiting successfully. Buy a developer a beer!
