 Q-Chem 5.0, Q-Chem, Inc., Pleasanton, CA (2017)
 Q-Chem 5.0.1 for Intel X86 EM64T Linux

User input:
--------------------------------------------------------------
$molecule
0  1
C        +0.22270000        +1.04488000        +0.58595000
C        +0.62626000        -0.41353000        +0.99871000
C        +1.33008000        +1.39974000        -0.43491000
C        +2.63070000        +1.71700000        +0.32855000
C        +3.04336000        +0.29351000        +0.80300000
C        +1.94423000        -0.59299000        +0.15262000
O        +1.62840000        +0.13663000        -1.04376000
H        +3.37234000        +2.13782000        -0.35195000
H        +2.48236000        +2.42488000        +1.14651000
H        +4.02182000        +0.00994000        +0.41161000
H        +3.07359000        +0.18738000        +1.88928000
H        +1.03270000        +2.19943000        -1.08064000
H        +2.24339000        -1.61496000        +0.04786000
H        +0.81693000        -0.48905000        +2.04887000
H        -0.12524000        -1.15356000        +0.81843000
H        -0.74673000        +1.06811000        +0.13365000
H        +0.15552000        +1.72617000        +1.40828000
@C        +2.86397000        +2.58252000        +3.00863000
@C        +3.26753000        +1.12411000        +3.42139000
@C        +3.97135000        +2.93738000        +1.98777000
@C        +5.27197000        +3.25464000        +2.75123000
@C        +5.68463000        +1.83115000        +3.22568000
@C        +4.58550000        +0.94465000        +2.57530000
@O        +4.26967000        +1.67427000        +1.37892000
@H        +6.01361000        +3.67546000        +2.07073000
@H        +5.12363000        +3.96252000        +3.56919000
@H        +6.66309000        +1.54758000        +2.83429000
@H        +5.71486000        +1.72502000        +4.31196000
@H        +3.67397000        +3.73707000        +1.34204000
@H        +4.88466000        -0.07732000        +2.47054000
@H        +3.45820000        +1.04859000        +4.47155000
@H        +2.51603000        +0.38408000        +3.24111000
@H        +1.89454000        +2.60575000        +2.55633000
@H        +2.79679000        +3.26381000        +3.83096000
$end

$rem
JOBTYPE                   SP
METHOD                    B3LYP
DFT_D                     d3_op
BASIS                     6-311++G(d,p)
SYMMETRY                  False
THRESH                    12
SCF_CONVERGENCE           8
MAX_SUB_FILE_NUM          128
MEM_STATIC                400
MEM_TOTAL                 4000
$end
--------------------------------------------------------------

             Standard Nuclear Orientation (Angstroms)
    I     Atom           X                Y                Z
 ----------------------------------------------------------------
    1      C       0.2227000000     1.0448800000     0.5859500000
    2      C       0.6262600000    -0.4135300000     0.9987100000
    3      C       1.3300800000     1.3997400000    -0.4349100000
    4      C       2.6307000000     1.7170000000     0.3285500000
    5      C       3.0433600000     0.2935100000     0.8030000000
    6      C       1.9442300000    -0.5929900000     0.1526200000
    7      O       1.6284000000     0.1366300000    -1.0437600000
    8      H       3.3723400000     2.1378200000    -0.3519500000
    9      H       2.4823600000     2.4248800000     1.1465100000
   10      H       4.0218200000     0.0099400000     0.4116100000
   11      H       3.0735900000     0.1873800000     1.8892800000
   12      H       1.0327000000     2.1994300000    -1.0806400000
   13      H       2.2433900000    -1.6149600000     0.0478600000
   14      H       0.8169300000    -0.4890500000     2.0488700000
   15      H      -0.1252400000    -1.1535600000     0.8184300000
   16      H      -0.7467300000     1.0681100000     0.1336500000
   17      H       0.1555200000     1.7261700000     1.4082800000
   18      GH      2.8639700000     2.5825200000     3.0086300000
   19      GH      3.2675300000     1.1241100000     3.4213900000
   20      GH      3.9713500000     2.9373800000     1.9877700000
   21      GH      5.2719700000     3.2546400000     2.7512300000
   22      GH      5.6846300000     1.8311500000     3.2256800000
   23      GH      4.5855000000     0.9446500000     2.5753000000
   24      GH      4.2696700000     1.6742700000     1.3789200000
   25      GH      6.0136100000     3.6754600000     2.0707300000
   26      GH      5.1236300000     3.9625200000     3.5691900000
   27      GH      6.6630900000     1.5475800000     2.8342900000
   28      GH      5.7148600000     1.7250200000     4.3119600000
   29      GH      3.6739700000     3.7370700000     1.3420400000
   30      GH      4.8846600000    -0.0773200000     2.4705400000
   31      GH      3.4582000000     1.0485900000     4.4715500000
   32      GH      2.5160300000     0.3840800000     3.2411100000
   33      GH      1.8945400000     2.6057500000     2.5563300000
   34      GH      2.7967900000     3.2638100000     3.8309600000
 ----------------------------------------------------------------

   12    -309.9601089453      6.45E-09 Convergence criterion met
 Total energy in the final basis set = -309.96010895

                    Orbital Energies (a.u.)
 --------------------------------------------------------------

 Alpha MOs
 -- Occupied --
-19.123 -10.221 -10.218 -10.168 -10.167 -10.165 -10.163  -1.050
 -0.798  -0.749  -0.747  -0.614  -0.578  -0.574  -0.527  -0.478
 -0.465  -0.431  -0.406  -0.395  -0.364  -0.360  -0.351  -0.339
 -0.317  -0.304  -0.264

          Ground-State Mulliken Net Atomic Charges

     Atom                 Charge (a.u.)
  ----------------------------------------
      1 C                    -0.311132
      2 C                    -0.331637
      3 C                    -0.225842
      4 C                    -0.213628
      5 C                    -0.235743
      6 C                    -0.191073
      7 O                    -0.108482
      8 H                     0.197567
      9 H                     0.059683
     10 H                     0.195434
     11 H                     0.059192
     12 H                     0.227387
     13 H                     0.224425
     14 H                     0.095941
     15 H                     0.193986
     16 H                     0.185316
     17 H                     0.109804
     18 GH                   -0.024121
     19 GH                   -0.016576
     20 GH                   -0.004146
     21 GH                    0.014507
     22 GH                   -0.002579
     23 GH                    0.006181
     24 GH                    0.044390
     25 GH                   -0.000108
     26 GH                    0.000699
     27 GH                   -0.000037
     28 GH                    0.000630
     29 GH                    0.008280
     30 GH                    0.006324
     31 GH                   -0.002275
     32 GH                    0.027290
     33 GH                    0.011387
     34 GH                   -0.001044
  ----------------------------------------
  Sum of atomic charges =     0.000000

                    Cartesian Multipole Moments
 -----------------------------------------------------------------
    Charge (ESU x 10^10)
                 0.0000
    Dipole Moment (Debye)
         X      -0.0144      Y       0.5147      Z       1.7133
       Tot       1.7890
    Quadrupole Moments (Debye-Ang)
        XX     -43.2358     XY      -0.0509     YY     -40.6358
        XZ       2.7799     YZ      -0.8458     ZZ     -46.2054

 Total job time:  175.78s(wall), 698.95s(cpu)
        *  Thank you very much for using Q-Chem.  Have a nice day.  *
