 Q-Chem 5.0, Q-Chem, Inc., Pleasanton, CA (2017)
 Q-Chem 5.0.1 for Intel X86 EM64T Linux

User input:
--------------------------------------------------------------
$molecule
0  1
--
0  1
C        +0.22270000        +1.04488000        +0.58595000
C        +0.62626000        -0.41353000        +0.99871000
C        +1.33008000        +1.39974000        -0.43491000
C        +2.63070000        +1.71700000        +0.32855000
C        +3.04336000        +0.29351000        +0.80300000
C        +1.94423000        -0.59299000        +0.15262000
O        +1.62840000        +0.13663000        -1.04376000
H        +3.37234000        +2.13782000        -0.35195000
H        +2.48236000        +2.42488000        +1.14651000
H        +4.02182000        +0.00994000        +0.41161000
H        +3.07359000        +0.18738000        +1.88928000
H        +1.03270000        +2.19943000        -1.08064000
H        +2.24339000        -1.61496000        +0.04786000
H        +0.81693000        -0.48905000        +2.04887000
H        -0.12524000        -1.15356000        +0.81843000
H        -0.74673000        +1.06811000        +0.13365000
H        +0.15552000        +1.72617000        +1.40828000
--
0  1
C        +2.86397000        +2.58252000        +3.00863000
C        +3.26753000        +1.12411000        +3.42139000
C        +3.97135000        +2.93738000        +1.98777000
C        +5.27197000        +3.25464000        +2.75123000
C        +5.68463000        +1.83115000        +3.22568000
C        +4.58550000        +0.94465000        +2.57530000
O        +4.26967000        +1.67427000        +1.37892000
H        +6.01361000        +3.67546000        +2.07073000
H        +5.12363000        +3.96252000        +3.56919000
H        +6.66309000        +1.54758000        +2.83429000
H        +5.71486000        +1.72502000        +4.31196000
H        +3.67397000        +3.73707000        +1.34204000
H        +4.88466000        -0.07732000        +2.47054000
H        +3.45820000        +1.04859000        +4.47155000
H        +2.51603000        +0.38408000        +3.24111000
H        +1.89454000        +2.60575000        +2.55633000
H        +2.79679000        +3.26381000        +3.83096000
$end

$rem
JOBTYPE                   SP
METHOD                    B3LYP
DFT_D                     d3_op
BASIS                     6-311++G(d,p)
SYMMETRY                  False
THRESH                    12
SCF_CONVERGENCE           8
MAX_SUB_FILE_NUM          128
MEM_STATIC                400
MEM_TOTAL                 4000
$end
--------------------------------------------------------------

             Standard Nuclear Orientation (Angstroms)
    I     Atom           X                Y                Z
 ----------------------------------------------------------------
    1      C       2.5651163462    -0.6001891508     1.1472689356
    2      C       2.6153426473     0.9460127026     0.8885637623
    3      C       2.1953955282    -1.1409406620    -0.2546103542
    4      C       0.6959020359    -0.8905187474    -0.5074850164
    5      C       0.6910156378     0.6509514221    -0.7209345375
    6      C       2.2052079217     0.9921705907    -0.6328757063
    7      O       2.8199635778    -0.2027346313    -1.1405134032
    8      H       0.3741996006    -1.4157493103    -1.4079515682
    9      H       0.0638633704    -1.2196207181     0.3197854532
   10      H       0.3126211671     0.9161900527    -1.7095943080
   11      H       0.0995565343     1.1921645103     0.0203118387
   12      H       2.4591720776    -2.1721179251    -0.3641620654
   13      H       2.4502712644     1.9186411940    -1.1087855963
   14      H       1.9156122059     1.4729032851     1.5031025881
   15      H       3.5546709705     1.4067587279     1.1127800210
   16      H       3.5145634362    -0.9725360312     1.4710242007
   17      H       1.8821707149    -0.8895917526     1.9184545451
   18      C      -1.3235610859    -0.5394514439     1.4379941066
   19      C      -1.2733347848     1.0067504095     1.1792889333
   20      C      -1.6932819039    -1.0802029551     0.0361148167
   21      C      -3.1927753962    -0.8297810405    -0.2167598455
   22      C      -3.1976617943     0.7116891290    -0.4302093665
   23      C      -1.6834695104     1.0529082976    -0.3421505354
   24      O      -1.0687138543    -0.1419969244    -0.8497882323
   25      H      -3.5144778315    -1.3550116034    -1.1172263973
   26      H      -3.8248140617    -1.1588830112     0.6105106241
   27      H      -3.5760562650     0.9769277596    -1.4188691371
   28      H      -3.7891208978     1.2529022172     0.3110370096
   29      H      -1.4295053544    -2.1113802182    -0.0734368945
   30      H      -1.4384061677     1.9793789009    -0.8180604253
   31      H      -1.9730652262     1.5336409920     1.7938277590
   32      H      -0.3340064616     1.4674964348     1.4035051919
   33      H      -0.3741139959    -0.9117983243     1.7617493717
   34      H      -2.0065067172    -0.8288540457     2.2091797160
 ----------------------------------------------------------------

   13    -619.7417776824      9.60E-09 Convergence criterion met
 Total energy in the final basis set = -619.74177768

                    Orbital Energies (a.u.)
 --------------------------------------------------------------

 Alpha MOs
 -- Occupied --
-19.128 -19.098 -10.235 -10.232 -10.189 -10.187 -10.181 -10.180
-10.179 -10.178 -10.149 -10.148 -10.134 -10.133  -1.086  -1.024
 -0.821  -0.788  -0.780  -0.763  -0.728  -0.722  -0.639  -0.617
 -0.600  -0.583  -0.582  -0.545  -0.536  -0.519  -0.507  -0.488
 -0.453  -0.450  -0.429  -0.421  -0.415  -0.406  -0.398  -0.394
 -0.375  -0.373  -0.360  -0.352  -0.349  -0.339  -0.330  -0.319
 -0.316  -0.305  -0.291  -0.279  -0.258  -0.211

          Ground-State Mulliken Net Atomic Charges

     Atom                 Charge (a.u.)
  ----------------------------------------
      1 C                    -0.302385
      2 C                    -0.315732
      3 C                    -0.272357
      4 C                    -0.168251
      5 C                    -0.258141
      6 C                    -0.270077
      7 O                    -0.122589
      8 H                     0.177427
      9 H                     0.099984
     10 H                     0.151399
     11 H                     0.097796
     12 H                     0.201472
     13 H                     0.199290
     14 H                     0.065264
     15 H                     0.187044
     16 H                     0.179247
     17 H                     0.084697
     18 C                    -0.432832
     19 C                    -0.422184
     20 C                     0.104773
     21 C                    -0.566670
     22 C                    -0.591060
     23 C                     0.177515
     24 O                     0.233095
     25 H                     0.168416
     26 H                     0.128207
     27 H                     0.175788
     28 H                     0.121922
     29 H                     0.236382
     30 H                     0.241793
     31 H                     0.186877
     32 H                     0.168852
     33 H                     0.141932
     34 H                     0.193107
  ----------------------------------------
  Sum of atomic charges =     0.000000

                    Cartesian Multipole Moments
 -----------------------------------------------------------------
    Charge (ESU x 10^10)
                 0.0000
    Dipole Moment (Debye)
         X      -4.1953      Y       0.4246      Z       2.4693
       Tot       4.8866
    Quadrupole Moments (Debye-Ang)
        XX     -94.1384     XY       0.8558     YY     -81.8548
        XZ       4.2445     YZ      -1.7786     ZZ     -90.8810

 Total job time:  184.87s(wall), 735.82s(cpu)
        *  Thank you very much for using Q-Chem.  Have a nice day.  *
