 Q-Chem 5.0, Q-Chem, Inc., Pleasanton, CA (2017)
 Q-Chem 5.0.1 for Intel X86 EM64T Linux

User input:
--------------------------------------------------------------
$molecule
0  1
C        +0.22270000        +1.04488000        +0.58595000
C        +0.62626000        -0.41353000        +0.99871000
C        +1.33008000        +1.39974000        -0.43491000
C        +2.63070000        +1.71700000        +0.32855000
C        +3.04336000        +0.29351000        +0.80300000
C        +1.94423000        -0.59299000        +0.15262000
O        +1.62840000        +0.13663000        -1.04376000
H        +3.37234000        +2.13782000        -0.35195000
H        +2.48236000        +2.42488000        +1.14651000
H        +4.02182000        +0.00994000        +0.41161000
H        +3.07359000        +0.18738000        +1.88928000
H        +1.03270000        +2.19943000        -1.08064000
H        +2.24339000        -1.61496000        +0.04786000
H        +0.81693000        -0.48905000        +2.04887000
H        -0.12524000        -1.15356000        +0.81843000
H        -0.74673000        +1.06811000        +0.13365000
H        +0.15552000        +1.72617000        +1.40828000
@C        +3.67666000        +3.05564000        +3.75407000
@C        +4.08022000        +1.59723000        +4.16683000
@C        +4.78404000        +3.41050000        +2.73321000
@C        +6.08466000        +3.72776000        +3.49667000
@C        +6.49732000        +2.30427000        +3.97112000
@C        +5.39819000        +1.41777000        +3.32074000
@O        +5.08236000        +2.14739000        +2.12436000
@H        +6.82630000        +4.14858000        +2.81617000
@H        +5.93632000        +4.43564000        +4.31463000
@H        +7.47578000        +2.02070000        +3.57973000
@H        +6.52755000        +2.19814000        +5.05740000
@H        +4.48666000        +4.21019000        +2.08748000
@H        +5.69735000        +0.39580000        +3.21598000
@H        +4.27089000        +1.52171000        +5.21699000
@H        +3.32872000        +0.85720000        +3.98655000
@H        +2.70723000        +3.07887000        +3.30177000
@H        +3.60948000        +3.73693000        +4.57640000
$end

$rem
JOBTYPE                   SP
METHOD                    B3LYP
DFT_D                     d3_op
BASIS                     6-311++G(d,p)
SYMMETRY                  False
THRESH                    12
SCF_CONVERGENCE           8
MAX_SUB_FILE_NUM          128
MEM_STATIC                400
MEM_TOTAL                 4000
$end
--------------------------------------------------------------

             Standard Nuclear Orientation (Angstroms)
    I     Atom           X                Y                Z
 ----------------------------------------------------------------
    1      C       0.2227000000     1.0448800000     0.5859500000
    2      C       0.6262600000    -0.4135300000     0.9987100000
    3      C       1.3300800000     1.3997400000    -0.4349100000
    4      C       2.6307000000     1.7170000000     0.3285500000
    5      C       3.0433600000     0.2935100000     0.8030000000
    6      C       1.9442300000    -0.5929900000     0.1526200000
    7      O       1.6284000000     0.1366300000    -1.0437600000
    8      H       3.3723400000     2.1378200000    -0.3519500000
    9      H       2.4823600000     2.4248800000     1.1465100000
   10      H       4.0218200000     0.0099400000     0.4116100000
   11      H       3.0735900000     0.1873800000     1.8892800000
   12      H       1.0327000000     2.1994300000    -1.0806400000
   13      H       2.2433900000    -1.6149600000     0.0478600000
   14      H       0.8169300000    -0.4890500000     2.0488700000
   15      H      -0.1252400000    -1.1535600000     0.8184300000
   16      H      -0.7467300000     1.0681100000     0.1336500000
   17      H       0.1555200000     1.7261700000     1.4082800000
   18      GH      3.6766600000     3.0556400000     3.7540700000
   19      GH      4.0802200000     1.5972300000     4.1668300000
   20      GH      4.7840400000     3.4105000000     2.7332100000
   21      GH      6.0846600000     3.7277600000     3.4966700000
   22      GH      6.4973200000     2.3042700000     3.9711200000
   23      GH      5.3981900000     1.4177700000     3.3207400000
   24      GH      5.0823600000     2.1473900000     2.1243600000
   25      GH      6.8263000000     4.1485800000     2.8161700000
   26      GH      5.9363200000     4.4356400000     4.3146300000
   27      GH      7.4757800000     2.0207000000     3.5797300000
   28      GH      6.5275500000     2.1981400000     5.0574000000
   29      GH      4.4866600000     4.2101900000     2.0874800000
   30      GH      5.6973500000     0.3958000000     3.2159800000
   31      GH      4.2708900000     1.5217100000     5.2169900000
   32      GH      3.3287200000     0.8572000000     3.9865500000
   33      GH      2.7072300000     3.0788700000     3.3017700000
   34      GH      3.6094800000     3.7369300000     4.5764000000
 ----------------------------------------------------------------

   12    -309.9597093900      6.26E-09 Convergence criterion met
 Total energy in the final basis set = -309.95970939

                    Orbital Energies (a.u.)
 --------------------------------------------------------------

 Alpha MOs
 -- Occupied --
-19.123 -10.221 -10.218 -10.168 -10.167 -10.165 -10.163  -1.050
 -0.798  -0.749  -0.747  -0.614  -0.578  -0.574  -0.527  -0.478
 -0.465  -0.431  -0.406  -0.395  -0.364  -0.360  -0.351  -0.339
 -0.317  -0.304  -0.264

          Ground-State Mulliken Net Atomic Charges

     Atom                 Charge (a.u.)
  ----------------------------------------
      1 C                    -0.449991
      2 C                    -0.430005
      3 C                     0.022955
      4 C                    -0.322434
      5 C                    -0.266021
      6 C                    -0.007481
      7 O                    -0.126703
      8 H                     0.189427
      9 H                     0.075976
     10 H                     0.180884
     11 H                     0.068618
     12 H                     0.231397
     13 H                     0.232651
     14 H                     0.104999
     15 H                     0.181883
     16 H                     0.174250
     17 H                     0.112911
     18 GH                   -0.003433
     19 GH                    0.007510
     20 GH                   -0.011277
     21 GH                    0.001134
     22 GH                   -0.005547
     23 GH                   -0.011456
     24 GH                    0.020595
     25 GH                   -0.000407
     26 GH                    0.000414
     27 GH                   -0.000263
     28 GH                    0.000188
     29 GH                    0.003973
     30 GH                    0.004318
     31 GH                   -0.001076
     32 GH                    0.012636
     33 GH                    0.010959
     34 GH                   -0.001586
  ----------------------------------------
  Sum of atomic charges =    -0.000000

                    Cartesian Multipole Moments
 -----------------------------------------------------------------
    Charge (ESU x 10^10)
                -0.0000
    Dipole Moment (Debye)
         X      -0.0151      Y       0.5159      Z       1.7188
       Tot       1.7947
    Quadrupole Moments (Debye-Ang)
        XX     -43.2376     XY      -0.0574     YY     -40.6254
        XZ       2.7795     YZ      -0.8592     ZZ     -46.2296

 Total job time:  132.95s(wall), 528.81s(cpu)
        *  Thank you very much for using Q-Chem.  Have a nice day.  *
