 Q-Chem 5.0, Q-Chem, Inc., Pleasanton, CA (2017)
 Q-Chem 5.0.1 for Intel X86 EM64T Linux

User input:
--------------------------------------------------------------
$molecule
0  1
C        +0.24102000        +2.21330000        +4.31281000
C        +0.67683000        +0.78172000        +4.75660000
C        +1.36366000        +2.56906000        +3.31380000
C        +2.66888000        +2.88196000        +4.07809000
C        +3.10708000        +1.45110000        +4.52178000
C        +1.96743000        +0.59410000        +3.92878000
O        +1.65579000        +1.29408000        +2.70743000
H        +3.40635000        +3.33370000        +3.41239000
H        +2.50769000        +3.56315000        +4.91648000
H        +4.06513000        +1.17544000        +4.07821000
H        +3.19004000        +1.34230000        +5.60546000
H        +1.09196000        +3.28374000        +2.53898000
H        +2.22884000        -0.43675000        +3.69680000
H        +0.85402000        +0.69904000        +5.83113000
H        -0.06894000        +0.03532000        +4.47744000
H        -0.72758000        +2.19408000        +3.81047000
H        +0.18107000        +2.92194000        +5.14142000
@C        +0.20238000        +1.04766000        +0.59128000
@C        +0.63819000        -0.38392000        +1.03507000
@C        +1.32502000        +1.40342000        -0.40773000
@C        +2.63024000        +1.71632000        +0.35656000
@C        +3.06844000        +0.28546000        +0.80025000
@C        +1.92879000        -0.57154000        +0.20725000
@O        +1.61715000        +0.12844000        -1.01410000
@H        +3.36771000        +2.16806000        -0.30914000
@H        +2.46905000        +2.39751000        +1.19495000
@H        +4.02649000        +0.00980000        +0.35668000
@H        +3.15140000        +0.17666000        +1.88393000
@H        +1.05332000        +2.11810000        -1.18255000
@H        +2.19020000        -1.60239000        -0.02473000
@H        +0.81538000        -0.46660000        +2.10960000
@H        -0.10758000        -1.13032000        +0.75591000
@H        -0.76622000        +1.02844000        +0.08894000
@H        +0.14243000        +1.75630000        +1.41989000
$end

$rem
JOBTYPE                   SP
METHOD                    B3LYP
DFT_D                     d3_op
BASIS                     6-311++G(d,p)
SYMMETRY                  False
THRESH                    12
SCF_CONVERGENCE           8
MAX_SUB_FILE_NUM          128
MEM_STATIC                400
MEM_TOTAL                 4000
$end
--------------------------------------------------------------

             Standard Nuclear Orientation (Angstroms)
    I     Atom           X                Y                Z
 ----------------------------------------------------------------
    1      C       0.2410200000     2.2133000000     4.3128100000
    2      C       0.6768300000     0.7817200000     4.7566000000
    3      C       1.3636600000     2.5690600000     3.3138000000
    4      C       2.6688800000     2.8819600000     4.0780900000
    5      C       3.1070800000     1.4511000000     4.5217800000
    6      C       1.9674300000     0.5941000000     3.9287800000
    7      O       1.6557900000     1.2940800000     2.7074300000
    8      H       3.4063500000     3.3337000000     3.4123900000
    9      H       2.5076900000     3.5631500000     4.9164800000
   10      H       4.0651300000     1.1754400000     4.0782100000
   11      H       3.1900400000     1.3423000000     5.6054600000
   12      H       1.0919600000     3.2837400000     2.5389800000
   13      H       2.2288400000    -0.4367500000     3.6968000000
   14      H       0.8540200000     0.6990400000     5.8311300000
   15      H      -0.0689400000     0.0353200000     4.4774400000
   16      H      -0.7275800000     2.1940800000     3.8104700000
   17      H       0.1810700000     2.9219400000     5.1414200000
   18      GH      0.2023800000     1.0476600000     0.5912800000
   19      GH      0.6381900000    -0.3839200000     1.0350700000
   20      GH      1.3250200000     1.4034200000    -0.4077300000
   21      GH      2.6302400000     1.7163200000     0.3565600000
   22      GH      3.0684400000     0.2854600000     0.8002500000
   23      GH      1.9287900000    -0.5715400000     0.2072500000
   24      GH      1.6171500000     0.1284400000    -1.0141000000
   25      GH      3.3677100000     2.1680600000    -0.3091400000
   26      GH      2.4690500000     2.3975100000     1.1949500000
   27      GH      4.0264900000     0.0098000000     0.3566800000
   28      GH      3.1514000000     0.1766600000     1.8839300000
   29      GH      1.0533200000     2.1181000000    -1.1825500000
   30      GH      2.1902000000    -1.6023900000    -0.0247300000
   31      GH      0.8153800000    -0.4666000000     2.1096000000
   32      GH     -0.1075800000    -1.1303200000     0.7559100000
   33      GH     -0.7662200000     1.0284400000     0.0889400000
   34      GH      0.1424300000     1.7563000000     1.4198900000
 ----------------------------------------------------------------

   11    -309.9691496490      9.80E-09 Convergence criterion met
 Total energy in the final basis set = -309.96914965

                    Orbital Energies (a.u.)
 --------------------------------------------------------------

 Alpha MOs
 -- Occupied --
-19.118 -10.219 -10.219 -10.170 -10.170 -10.170 -10.169  -1.046
 -0.798  -0.751  -0.745  -0.612  -0.572  -0.571  -0.524  -0.478
 -0.468  -0.418  -0.408  -0.388  -0.367  -0.361  -0.348  -0.342
 -0.323  -0.306  -0.263

          Ground-State Mulliken Net Atomic Charges

     Atom                 Charge (a.u.)
  ----------------------------------------
      1 C                    -0.531545
      2 C                    -0.538793
      3 C                     0.343761
      4 C                    -0.533986
      5 C                    -0.536279
      6 C                     0.348385
      7 O                    -0.040397
      8 H                     0.154484
      9 H                     0.134722
     10 H                     0.154295
     11 H                     0.134668
     12 H                     0.200015
     13 H                     0.199315
     14 H                     0.134590
     15 H                     0.154384
     16 H                     0.153703
     17 H                     0.134469
     18 GH                    0.034586
     19 GH                    0.034229
     20 GH                   -0.048329
     21 GH                    0.032951
     22 GH                    0.035075
     23 GH                   -0.049999
     24 GH                    0.003867
     25 GH                   -0.000292
     26 GH                   -0.028058
     27 GH                   -0.000094
     28 GH                   -0.026311
     29 GH                    0.000998
     30 GH                    0.000804
     31 GH                   -0.026445
     32 GH                   -0.000139
     33 GH                   -0.000156
     34 GH                   -0.028477
  ----------------------------------------
  Sum of atomic charges =     0.000000

                    Cartesian Multipole Moments
 -----------------------------------------------------------------
    Charge (ESU x 10^10)
                 0.0000
    Dipole Moment (Debye)
         X       0.0188      Y       0.5202      Z       1.6544
       Tot       1.7344
    Quadrupole Moments (Debye-Ang)
        XX     -43.1282     XY       0.3253     YY     -40.0929
        XZ       2.9771     YZ       3.1842     ZZ     -33.5584

 Total job time:  133.47s(wall), 531.02s(cpu)
        *  Thank you very much for using Q-Chem.  Have a nice day.  *
