 Q-Chem 5.0, Q-Chem, Inc., Pleasanton, CA (2017)
 Q-Chem 5.0.1 for Intel X86 EM64T Linux

User input:
--------------------------------------------------------------
$molecule
0  1
--
0  1
C        +0.22270000        +1.04488000        +0.58595000
C        +0.62626000        -0.41353000        +0.99871000
C        +1.33008000        +1.39974000        -0.43491000
C        +2.63070000        +1.71700000        +0.32855000
C        +3.04336000        +0.29351000        +0.80300000
C        +1.94423000        -0.59299000        +0.15262000
O        +1.62840000        +0.13663000        -1.04376000
H        +3.37234000        +2.13782000        -0.35195000
H        +2.48236000        +2.42488000        +1.14651000
H        +4.02182000        +0.00994000        +0.41161000
H        +3.07359000        +0.18738000        +1.88928000
H        +1.03270000        +2.19943000        -1.08064000
H        +2.24339000        -1.61496000        +0.04786000
H        +0.81693000        -0.48905000        +2.04887000
H        -0.12524000        -1.15356000        +0.81843000
H        -0.74673000        +1.06811000        +0.13365000
H        +0.15552000        +1.72617000        +1.40828000
--
0  1
C        +3.67666000        +3.05564000        +3.75407000
C        +4.08022000        +1.59723000        +4.16683000
C        +4.78404000        +3.41050000        +2.73321000
C        +6.08466000        +3.72776000        +3.49667000
C        +6.49732000        +2.30427000        +3.97112000
C        +5.39819000        +1.41777000        +3.32074000
O        +5.08236000        +2.14739000        +2.12436000
H        +6.82630000        +4.14858000        +2.81617000
H        +5.93632000        +4.43564000        +4.31463000
H        +7.47578000        +2.02070000        +3.57973000
H        +6.52755000        +2.19814000        +5.05740000
H        +4.48666000        +4.21019000        +2.08748000
H        +5.69735000        +0.39580000        +3.21598000
H        +4.27089000        +1.52171000        +5.21699000
H        +3.32872000        +0.85720000        +3.98655000
H        +2.70723000        +3.07887000        +3.30177000
H        +3.60948000        +3.73693000        +4.57640000
$end

$rem
JOBTYPE                   SP
METHOD                    B3LYP
DFT_D                     d3_op
BASIS                     6-311++G(d,p)
SYMMETRY                  False
THRESH                    12
SCF_CONVERGENCE           8
MAX_SUB_FILE_NUM          128
MEM_STATIC                400
MEM_TOTAL                 4000
$end
--------------------------------------------------------------

             Standard Nuclear Orientation (Angstroms)
    I     Atom           X                Y                Z
 ----------------------------------------------------------------
    1      C       3.1317097579    -0.5358723054     1.2244491877
    2      C       3.1798480064     0.9978800463     0.8996759558
    3      C       2.8089816001    -1.1403121835    -0.1629477250
    4      C       1.3164162258    -0.9129693180    -0.4723039734
    5      C       1.3081024027     0.6176029631    -0.7533630971
    6      C       2.8166026385     0.9742227373    -0.6341467963
    7      O       3.4544974480    -0.2368812275    -1.0697342572
    8      H       1.0260969774    -1.4795940643    -1.3582219960
    9      H       0.6612841868    -1.2105213082     0.3489281717
   10      H       0.9587038381     0.8363637341    -1.7638315116
   11      H       0.6905281013     1.1860619004    -0.0550522157
   12      H       3.0827139707    -2.1731920965    -0.2189465463
   13      H       3.0702176846     1.8808846322    -1.1426127844
   14      H       2.4580624011     1.5456383460     1.4687811569
   15      H       4.1087887226     1.4753518494     1.1320277418
   16      H       4.0731064501    -0.8862369225     1.5931310979
   17      H       2.4271700262    -0.7966169909     1.9863755757
   18      C      -1.9632019358    -0.4798130794     1.4451571158
   19      C      -1.9150636873     1.0539392722     1.1203838839
   20      C      -2.2859300936    -1.0842529575     0.0577602030
   21      C      -3.7784954680    -0.8569100920    -0.2515960453
   22      C      -3.7868092911     0.6736621890    -0.5326551690
   23      C      -2.2783090553     1.0302819633    -0.4134388683
   24      O      -1.6404142458    -0.1808220015    -0.8490263292
   25      H      -4.0688147164    -1.4235348383    -1.1375140680
   26      H      -4.4336275070    -1.1544620823     0.5696360998
   27      H      -4.1362078556     0.8924229601    -1.5431235835
   28      H      -4.4043835925     1.2421211264     0.1656557124
   29      H      -2.0121977231    -2.1171328705     0.0017613818
   30      H      -2.0246940092     1.9369438581    -0.9219048563
   31      H      -2.6368492927     1.6016975720     1.6894890849
   32      H      -0.9861229712     1.5314110754     1.3527356698
   33      H      -1.0218052437    -0.8301776966     1.8138390259
   34      H      -2.6677416676    -0.7405577650     2.2070835038
 ----------------------------------------------------------------

   13    -619.9212995546      6.41E-09 Convergence criterion met
 Total energy in the final basis set = -619.92129955

                    Orbital Energies (a.u.)
 --------------------------------------------------------------

 Alpha MOs
 -- Occupied --
-19.127 -19.114 -10.226 -10.223 -10.212 -10.209 -10.172 -10.171
-10.170 -10.169 -10.158 -10.157 -10.155 -10.155  -1.055  -1.041
 -0.802  -0.788  -0.754  -0.752  -0.739  -0.738  -0.619  -0.605
 -0.583  -0.578  -0.569  -0.564  -0.532  -0.517  -0.484  -0.472
 -0.466  -0.455  -0.436  -0.422  -0.411  -0.401  -0.396  -0.386
 -0.371  -0.364  -0.356  -0.354  -0.350  -0.344  -0.342  -0.329
 -0.322  -0.309  -0.308  -0.294  -0.269  -0.253

          Ground-State Mulliken Net Atomic Charges

     Atom                 Charge (a.u.)
  ----------------------------------------
      1 C                    -0.453630
      2 C                    -0.435001
      3 C                     0.012913
      4 C                    -0.297181
      5 C                    -0.247000
      6 C                    -0.033038
      7 O                    -0.131220
      8 H                     0.201038
      9 H                     0.055842
     10 H                     0.196319
     11 H                     0.043020
     12 H                     0.226582
     13 H                     0.227376
     14 H                     0.098833
     15 H                     0.178107
     16 H                     0.171214
     17 H                     0.107646
     18 C                    -0.328686
     19 C                    -0.371242
     20 C                     0.107212
     21 C                    -0.588654
     22 C                    -0.518699
     23 C                     0.145330
     24 O                     0.007853
     25 H                     0.169467
     26 H                     0.126507
     27 H                     0.169760
     28 H                     0.124926
     29 H                     0.221779
     30 H                     0.227069
     31 H                     0.150397
     32 H                     0.143157
     33 H                     0.130077
     34 H                     0.161927
  ----------------------------------------
  Sum of atomic charges =     0.000000

                    Cartesian Multipole Moments
 -----------------------------------------------------------------
    Charge (ESU x 10^10)
                 0.0000
    Dipole Moment (Debye)
         X      -2.9181      Y       0.5153      Z       2.3556
       Tot       3.7854
    Quadrupole Moments (Debye-Ang)
        XX     -92.2047     XY       0.9819     YY     -81.6514
        XZ       3.8304     YZ      -2.2242     ZZ     -90.3612

 Total job time:  137.12s(wall), 545.92s(cpu)
        *  Thank you very much for using Q-Chem.  Have a nice day.  *
