 Q-Chem 5.0, Q-Chem, Inc., Pleasanton, CA (2017)
 Q-Chem 5.0.1 for Intel X86 EM64T Linux

User input:
--------------------------------------------------------------
$molecule
0  1
C        +6.99518000        +4.98754000        +6.79795000
C        +7.39874000        +3.52913000        +7.21071000
C        +8.10256000        +5.34240000        +5.77709000
C        +9.40318000        +5.65966000        +6.54055000
C        +9.81584000        +4.23617000        +7.01500000
C        +8.71671000        +3.34967000        +6.36462000
O        +8.40088000        +4.07929000        +5.16824000
H       +10.14482000        +6.08048000        +5.86005000
H        +9.25484000        +6.36754000        +7.35851000
H       +10.79430000        +3.95260000        +6.62361000
H        +9.84607000        +4.13004000        +8.10128000
H        +7.80518000        +6.14209000        +5.13136000
H        +9.01587000        +2.32770000        +6.25986000
H        +7.58941000        +3.45361000        +8.26087000
H        +6.64724000        +2.78910000        +7.03043000
H        +6.02575000        +5.01077000        +6.34565000
H        +6.92800000        +5.66883000        +7.62028000
@C        +0.22270000        +1.04488000        +0.58595000
@C        +0.62626000        -0.41353000        +0.99871000
@C        +1.33008000        +1.39974000        -0.43491000
@C        +2.63070000        +1.71700000        +0.32855000
@C        +3.04336000        +0.29351000        +0.80300000
@C        +1.94423000        -0.59299000        +0.15262000
@O        +1.62840000        +0.13663000        -1.04376000
@H        +3.37234000        +2.13782000        -0.35195000
@H        +2.48236000        +2.42488000        +1.14651000
@H        +4.02182000        +0.00994000        +0.41161000
@H        +3.07359000        +0.18738000        +1.88928000
@H        +1.03270000        +2.19943000        -1.08064000
@H        +2.24339000        -1.61496000        +0.04786000
@H        +0.81693000        -0.48905000        +2.04887000
@H        -0.12524000        -1.15356000        +0.81843000
@H        -0.74673000        +1.06811000        +0.13365000
@H        +0.15552000        +1.72617000        +1.40828000
$end

$rem
JOBTYPE                   SP
METHOD                    B3LYP
DFT_D                     d3_op
BASIS                     6-311++G(d,p)
SYMMETRY                  False
THRESH                    12
SCF_CONVERGENCE           8
MAX_SUB_FILE_NUM          128
MEM_STATIC                400
MEM_TOTAL                 4000
$end
--------------------------------------------------------------

             Standard Nuclear Orientation (Angstroms)
    I     Atom           X                Y                Z
 ----------------------------------------------------------------
    1      C       6.9951800000     4.9875400000     6.7979500000
    2      C       7.3987400000     3.5291300000     7.2107100000
    3      C       8.1025600000     5.3424000000     5.7770900000
    4      C       9.4031800000     5.6596600000     6.5405500000
    5      C       9.8158400000     4.2361700000     7.0150000000
    6      C       8.7167100000     3.3496700000     6.3646200000
    7      O       8.4008800000     4.0792900000     5.1682400000
    8      H      10.1448200000     6.0804800000     5.8600500000
    9      H       9.2548400000     6.3675400000     7.3585100000
   10      H      10.7943000000     3.9526000000     6.6236100000
   11      H       9.8460700000     4.1300400000     8.1012800000
   12      H       7.8051800000     6.1420900000     5.1313600000
   13      H       9.0158700000     2.3277000000     6.2598600000
   14      H       7.5894100000     3.4536100000     8.2608700000
   15      H       6.6472400000     2.7891000000     7.0304300000
   16      H       6.0257500000     5.0107700000     6.3456500000
   17      H       6.9280000000     5.6688300000     7.6202800000
   18      GH      0.2227000000     1.0448800000     0.5859500000
   19      GH      0.6262600000    -0.4135300000     0.9987100000
   20      GH      1.3300800000     1.3997400000    -0.4349100000
   21      GH      2.6307000000     1.7170000000     0.3285500000
   22      GH      3.0433600000     0.2935100000     0.8030000000
   23      GH      1.9442300000    -0.5929900000     0.1526200000
   24      GH      1.6284000000     0.1366300000    -1.0437600000
   25      GH      3.3723400000     2.1378200000    -0.3519500000
   26      GH      2.4823600000     2.4248800000     1.1465100000
   27      GH      4.0218200000     0.0099400000     0.4116100000
   28      GH      3.0735900000     0.1873800000     1.8892800000
   29      GH      1.0327000000     2.1994300000    -1.0806400000
   30      GH      2.2433900000    -1.6149600000     0.0478600000
   31      GH      0.8169300000    -0.4890500000     2.0488700000
   32      GH     -0.1252400000    -1.1535600000     0.8184300000
   33      GH     -0.7467300000     1.0681100000     0.1336500000
   34      GH      0.1555200000     1.7261700000     1.4082800000
 ----------------------------------------------------------------

   12    -309.9593945416      6.18E-09 Convergence criterion met
 Total energy in the final basis set = -309.95939454

                    Orbital Energies (a.u.)
 --------------------------------------------------------------

 Alpha MOs
 -- Occupied --
-19.123 -10.221 -10.218 -10.168 -10.167 -10.165 -10.163  -1.050
 -0.798  -0.749  -0.747  -0.614  -0.578  -0.574  -0.527  -0.478
 -0.465  -0.431  -0.406  -0.395  -0.364  -0.360  -0.352  -0.339
 -0.317  -0.304  -0.264

          Ground-State Mulliken Net Atomic Charges

     Atom                 Charge (a.u.)
  ----------------------------------------
      1 C                    -0.428636
      2 C                    -0.427506
      3 C                     0.162989
      4 C                    -0.469648
      5 C                    -0.417070
      6 C                     0.160772
      7 O                    -0.160395
      8 H                     0.162130
      9 H                     0.122818
     10 H                     0.157968
     11 H                     0.124135
     12 H                     0.222489
     13 H                     0.226675
     14 H                     0.119774
     15 H                     0.160827
     16 H                     0.154546
     17 H                     0.128090
     18 GH                    0.000000
     19 GH                   -0.000000
     20 GH                    0.000003
     21 GH                   -0.000002
     22 GH                    0.000002
     23 GH                    0.000003
     24 GH                    0.000000
     25 GH                    0.000001
     26 GH                    0.000018
     27 GH                    0.000003
     28 GH                    0.000014
     29 GH                    0.000000
     30 GH                    0.000000
     31 GH                   -0.000001
     32 GH                    0.000000
     33 GH                    0.000000
     34 GH                   -0.000001
  ----------------------------------------
  Sum of atomic charges =     0.000000

                    Cartesian Multipole Moments
 -----------------------------------------------------------------
    Charge (ESU x 10^10)
                 0.0000
    Dipole Moment (Debye)
         X      -0.0137      Y       0.5185      Z       1.7267
       Tot       1.8029
    Quadrupole Moments (Debye-Ang)
        XX     -43.4092     XY       3.4024     YY     -36.5300
        XZ      14.3917     YZ       9.1642     ZZ     -24.7881

 Total job time:  61.09s(wall), 242.92s(cpu)
        *  Thank you very much for using Q-Chem.  Have a nice day.  *
