 Q-Chem 5.0, Q-Chem, Inc., Pleasanton, CA (2017)
 Q-Chem 5.0.1 for Intel X86 EM64T Linux

User input:
--------------------------------------------------------------
$molecule
0  1
--
0  1
C        +0.22270000        +1.04488000        +0.58595000
C        +0.62626000        -0.41353000        +0.99871000
C        +1.33008000        +1.39974000        -0.43491000
C        +2.63070000        +1.71700000        +0.32855000
C        +3.04336000        +0.29351000        +0.80300000
C        +1.94423000        -0.59299000        +0.15262000
O        +1.62840000        +0.13663000        -1.04376000
H        +3.37234000        +2.13782000        -0.35195000
H        +2.48236000        +2.42488000        +1.14651000
H        +4.02182000        +0.00994000        +0.41161000
H        +3.07359000        +0.18738000        +1.88928000
H        +1.03270000        +2.19943000        -1.08064000
H        +2.24339000        -1.61496000        +0.04786000
H        +0.81693000        -0.48905000        +2.04887000
H        -0.12524000        -1.15356000        +0.81843000
H        -0.74673000        +1.06811000        +0.13365000
H        +0.15552000        +1.72617000        +1.40828000
--
0  1
C        +6.99518000        +4.98754000        +6.79795000
C        +7.39874000        +3.52913000        +7.21071000
C        +8.10256000        +5.34240000        +5.77709000
C        +9.40318000        +5.65966000        +6.54055000
C        +9.81584000        +4.23617000        +7.01500000
C        +8.71671000        +3.34967000        +6.36462000
O        +8.40088000        +4.07929000        +5.16824000
H       +10.14482000        +6.08048000        +5.86005000
H        +9.25484000        +6.36754000        +7.35851000
H       +10.79430000        +3.95260000        +6.62361000
H        +9.84607000        +4.13004000        +8.10128000
H        +7.80518000        +6.14209000        +5.13136000
H        +9.01587000        +2.32770000        +6.25986000
H        +7.58941000        +3.45361000        +8.26087000
H        +6.64724000        +2.78910000        +7.03043000
H        +6.02575000        +5.01077000        +6.34565000
H        +6.92800000        +5.66883000        +7.62028000
$end

$rem
JOBTYPE                   SP
METHOD                    B3LYP
DFT_D                     d3_op
BASIS                     6-311++G(d,p)
SYMMETRY                  False
THRESH                    12
SCF_CONVERGENCE           8
MAX_SUB_FILE_NUM          128
MEM_STATIC                400
MEM_TOTAL                 4000
$end
--------------------------------------------------------------

             Standard Nuclear Orientation (Angstroms)
    I     Atom           X                Y                Z
 ----------------------------------------------------------------
    1      C       5.5449837388    -0.4282632567     1.3287588359
    2      C       5.5909979601     1.0803940266     0.9021124810
    3      C       5.2717955301    -1.1285477501    -0.0237725147
    4      C       3.7881012040    -0.9380656895    -0.3945894437
    5      C       3.7763199745     0.5697970486    -0.7792009670
    6      C       5.2772712525     0.9491966322    -0.6371996697
    7      O       5.9386396294    -0.2819828592    -0.9691755238
    8      H       3.5309339430    -1.5663356410    -1.2486043615
    9      H       3.1094485332    -1.1860660788     0.4239970031
   10      H       3.4576940862     0.7160265881    -1.8126788399
   11      H       3.1320836635     1.1778384079    -0.1409009207
   12      H       5.5555898977    -2.1599731439    -0.0007810494
   13      H       5.5396443484     1.8219158575    -1.1979273723
   14      H       4.8469143648     1.6579611642     1.4097049845
   15      H       6.5080977324     1.5820496489     1.1305138245
   16      H       6.4769129441    -0.7431412255     1.7497924082
   17      H       4.8185499162    -0.6440674035     2.0841516589
   18      C      -4.4543423510    -0.3922414555     1.4391101146
   19      C      -4.4083281297     1.1164158278     1.0124637597
   20      C      -4.7275305597    -1.0925259489     0.0865787640
   21      C      -6.2112248859    -0.9020438882    -0.2842381650
   22      C      -6.2230061153     0.6058188499    -0.6688496883
   23      C      -4.7220548373     0.9852184334    -0.5268483910
   24      O      -4.0606864604    -0.2459610580    -0.8588242451
   25      H      -6.4683921468    -1.5303138398    -1.1382530828
   26      H      -6.8898775567    -1.1500442776     0.5343482818
   27      H      -6.5416320036     0.7520483893    -1.7023275612
   28      H      -6.8672424264     1.2138602091    -0.0305496420
   29      H      -4.4437361921    -2.1239513427     0.1095702293
   30      H      -4.4596817414     1.8579376587    -1.0875760936
   31      H      -5.1524117250     1.6939829654     1.5200562632
   32      H      -3.4912283575     1.6180714501     1.2408651032
   33      H      -3.5224131458    -0.7071194242     1.8601436869
   34      H      -5.1807761736    -0.6080456022     2.1945029376
 ----------------------------------------------------------------

   12    -619.9188116074      8.80E-09 Convergence criterion met
 Total energy in the final basis set = -619.91881161

                    Orbital Energies (a.u.)
 --------------------------------------------------------------

 Alpha MOs
 -- Occupied --
-19.124 -19.121 -10.223 -10.220 -10.220 -10.217 -10.169 -10.168
-10.166 -10.166 -10.165 -10.165 -10.163 -10.162  -1.051  -1.049
 -0.799  -0.796  -0.750  -0.748  -0.747  -0.746  -0.615  -0.612
 -0.579  -0.576  -0.575  -0.572  -0.528  -0.525  -0.479  -0.476
 -0.466  -0.463  -0.432  -0.429  -0.407  -0.404  -0.396  -0.393
 -0.366  -0.363  -0.361  -0.358  -0.353  -0.350  -0.340  -0.337
 -0.318  -0.316  -0.305  -0.302  -0.265  -0.262

          Ground-State Mulliken Net Atomic Charges

     Atom                 Charge (a.u.)
  ----------------------------------------
      1 C                    -0.433908
      2 C                    -0.425947
      3 C                     0.157466
      4 C                    -0.452561
      5 C                    -0.412214
      6 C                     0.158578
      7 O                    -0.162167
      8 H                     0.163080
      9 H                     0.116174
     10 H                     0.157821
     11 H                     0.117631
     12 H                     0.223697
     13 H                     0.227272
     14 H                     0.118605
     15 H                     0.162080
     16 H                     0.157444
     17 H                     0.126910
     18 C                    -0.429810
     19 C                    -0.427593
     20 C                     0.165138
     21 C                    -0.469835
     22 C                    -0.418305
     23 C                     0.162297
     24 O                    -0.161017
     25 H                     0.162430
     26 H                     0.122716
     27 H                     0.158223
     28 H                     0.124316
     29 H                     0.222671
     30 H                     0.226711
     31 H                     0.119880
     32 H                     0.159807
     33 H                     0.153845
     34 H                     0.128564
  ----------------------------------------
  Sum of atomic charges =     0.000000

                    Cartesian Multipole Moments
 -----------------------------------------------------------------
    Charge (ESU x 10^10)
                 0.0000
    Dipole Moment (Debye)
         X      -2.5593      Y       0.7065      Z       2.4617
       Tot       3.6206
    Quadrupole Moments (Debye-Ang)
        XX     -91.6585     XY       1.2927     YY     -81.5993
        XZ       3.9145     YZ      -2.8185     ZZ     -89.7262

 Total job time:  69.86s(wall), 277.90s(cpu)
        *  Thank you very much for using Q-Chem.  Have a nice day.  *
