 Q-Chem 5.0, Q-Chem, Inc., Pleasanton, CA (2017)
 Q-Chem 5.0.1 for Intel X86 EM64T Linux

User input:
--------------------------------------------------------------
$molecule
0  1
--
0  1
C        +0.20238000        +1.04766000        +0.59128000
C        +0.63819000        -0.38392000        +1.03507000
C        +1.32502000        +1.40342000        -0.40773000
C        +2.63024000        +1.71632000        +0.35656000
C        +3.06844000        +0.28546000        +0.80025000
C        +1.92879000        -0.57154000        +0.20725000
O        +1.61715000        +0.12844000        -1.01410000
H        +3.36771000        +2.16806000        -0.30914000
H        +2.46905000        +2.39751000        +1.19495000
H        +4.02649000        +0.00980000        +0.35668000
H        +3.15140000        +0.17666000        +1.88393000
H        +1.05332000        +2.11810000        -1.18255000
H        +2.19020000        -1.60239000        -0.02473000
H        +0.81538000        -0.46660000        +2.10960000
H        -0.10758000        -1.13032000        +0.75591000
H        -0.76622000        +1.02844000        +0.08894000
H        +0.14243000        +1.75630000        +1.41989000
--
0  1
C        +0.24102000        +2.21330000        +4.31281000
C        +0.67683000        +0.78172000        +4.75660000
C        +1.36366000        +2.56906000        +3.31380000
C        +2.66888000        +2.88196000        +4.07809000
C        +3.10708000        +1.45110000        +4.52178000
C        +1.96743000        +0.59410000        +3.92878000
O        +1.65579000        +1.29408000        +2.70743000
H        +3.40635000        +3.33370000        +3.41239000
H        +2.50769000        +3.56315000        +4.91648000
H        +4.06513000        +1.17544000        +4.07821000
H        +3.19004000        +1.34230000        +5.60546000
H        +1.09196000        +3.28374000        +2.53898000
H        +2.22884000        -0.43675000        +3.69680000
H        +0.85402000        +0.69904000        +5.83113000
H        -0.06894000        +0.03532000        +4.47744000
H        -0.72758000        +2.19408000        +3.81047000
H        +0.18107000        +2.92194000        +5.14142000
$end

$rem
JOBTYPE                   SP
METHOD                    B3LYP
DFT_D                     d3_op
BASIS                     6-311++G(d,p)
SYMMETRY                  False
THRESH                    12
SCF_CONVERGENCE           8
MAX_SUB_FILE_NUM          128
MEM_STATIC                400
MEM_TOTAL                 4000
$end
--------------------------------------------------------------

             Standard Nuclear Orientation (Angstroms)
    I     Atom           X                Y                Z
 ----------------------------------------------------------------
    1      C      -1.4860665485    -1.2641647952     0.7815103402
    2      C      -1.4862425573    -1.2659758614    -0.7793541336
    3      C      -2.3218155353     0.0003924741     1.0770188359
    4      C      -1.4859952672     1.2650056612     0.7807034140
    5      C      -1.4860276810     1.2656884947    -0.7801424876
    6      C      -2.3194165061     0.0000782329    -1.0777896848
    7      O      -3.2786818726    -0.0003003313    -0.0014081884
    8      H      -1.9788313779     2.1542864637     1.1774145692
    9      H      -0.4839475793     1.2126673501     1.2120512512
   10      H      -1.9821718451     2.1535367949    -1.1753246572
   11      H      -0.4836657604     1.2158240638    -1.2112645849
   12      H      -2.8502035336     0.0007482178     2.0287227927
   13      H      -2.8463554975    -0.0002783736    -2.0302269810
   14      H      -0.4838658697    -1.2176300504    -1.2103421360
   15      H      -1.9831790190    -2.1534101460    -1.1752464195
   16      H      -1.9807850281    -2.1522869049     1.1782389480
   17      H      -0.4841379248    -1.2111537480     1.2124256986
   18      C       2.4139328214    -1.2643887306     0.7812562410
   19      C       2.4137568126    -1.2661997967    -0.7796082328
   20      C       1.5781838347     0.0001685388     1.0767647367
   21      C       2.4140041027     1.2647817258     0.7804493148
   22      C       2.4139716890     1.2654645593    -0.7803965868
   23      C       1.5805828638    -0.0001457025    -1.0780437840
   24      O       0.6213174973    -0.0005242667    -0.0016622876
   25      H       1.9211679920     2.1540625284     1.1771604700
   26      H       3.4160517906     1.2124434147     1.2117971520
   27      H       1.9178275249     2.1533128595    -1.1755787564
   28      H       3.4163336095     1.2156001284    -1.2115186841
   29      H       1.0497958363     0.0005242824     2.0284686935
   30      H       1.0536438725    -0.0005023089    -2.0304810802
   31      H       3.4161335002    -1.2178539858    -1.2105962352
   32      H       1.9168203510    -2.1536340813    -1.1755005187
   33      H       1.9192143419    -2.1525108403     1.1779848488
   34      H       3.4158614451    -1.2113776834     1.2121715994
 ----------------------------------------------------------------

   13    -619.9059680924      6.48E-09 Convergence criterion met
 Total energy in the final basis set = -619.90596809

                    Orbital Energies (a.u.)
 --------------------------------------------------------------

 Alpha MOs
 -- Occupied --
-19.125 -19.101 -10.231 -10.231 -10.202 -10.202 -10.181 -10.181
-10.180 -10.180 -10.148 -10.148 -10.148 -10.148  -1.065  -1.029
 -0.813  -0.777  -0.763  -0.762  -0.732  -0.728  -0.624  -0.594
 -0.592  -0.586  -0.559  -0.550  -0.540  -0.508  -0.499  -0.483
 -0.455  -0.444  -0.433  -0.419  -0.404  -0.400  -0.391  -0.381
 -0.372  -0.371  -0.356  -0.352  -0.347  -0.342  -0.340  -0.327
 -0.318  -0.317  -0.299  -0.288  -0.275  -0.243

          Ground-State Mulliken Net Atomic Charges

     Atom                 Charge (a.u.)
  ----------------------------------------
      1 C                    -0.191129
      2 C                    -0.195215
      3 C                    -0.275587
      4 C                    -0.191545
      5 C                    -0.194052
      6 C                    -0.275288
      7 O                    -0.160441
      8 H                     0.192836
      9 H                     0.071448
     10 H                     0.193380
     11 H                     0.072429
     12 H                     0.214175
     13 H                     0.213904
     14 H                     0.072644
     15 H                     0.193265
     16 H                     0.192997
     17 H                     0.071141
     18 C                    -0.519109
     19 C                    -0.522865
     20 C                     0.229856
     21 C                    -0.520114
     22 C                    -0.522377
     23 C                     0.233409
     24 O                    -0.033496
     25 H                     0.162174
     26 H                     0.140744
     27 H                     0.161963
     28 H                     0.140954
     29 H                     0.219349
     30 H                     0.218900
     31 H                     0.140870
     32 H                     0.161925
     33 H                     0.162032
     34 H                     0.140819
  ----------------------------------------
  Sum of atomic charges =     0.000000

                    Cartesian Multipole Moments
 -----------------------------------------------------------------
    Charge (ESU x 10^10)
                 0.0000
    Dipole Moment (Debye)
         X       4.6217      Y       0.0032      Z       0.0019
       Tot       4.6217
    Quadrupole Moments (Debye-Ang)
        XX     -95.9575     XY       0.0034     YY     -87.9783
        XZ      -0.0078     YZ       0.0057     ZZ     -83.2780

 Total job time:  160.83s(wall), 638.21s(cpu)
        *  Thank you very much for using Q-Chem.  Have a nice day.  *
