 Q-Chem 5.0, Q-Chem, Inc., Pleasanton, CA (2017)
 Q-Chem 5.0.1 for Intel X86 EM64T Linux

User input:
--------------------------------------------------------------
$molecule
0  1
C        +0.22270000        +1.04488000        +0.58595000
C        +0.62626000        -0.41353000        +0.99871000
C        +1.33008000        +1.39974000        -0.43491000
C        +2.63070000        +1.71700000        +0.32855000
C        +3.04336000        +0.29351000        +0.80300000
C        +1.94423000        -0.59299000        +0.15262000
O        +1.62840000        +0.13663000        -1.04376000
H        +3.37234000        +2.13782000        -0.35195000
H        +2.48236000        +2.42488000        +1.14651000
H        +4.02182000        +0.00994000        +0.41161000
H        +3.07359000        +0.18738000        +1.88928000
H        +1.03270000        +2.19943000        -1.08064000
C        +2.35450000        -2.01267000        -0.16812000
H        +3.25743000        -2.00195000        -0.74215000
H        +1.57951000        -2.48932000        -0.73123000
H        +2.51687000        -2.55129000        +0.74206000
H        -0.74673000        +1.06811000        +0.13365000
H        +0.15552000        +1.72617000        +1.40828000
H        +0.81693000        -0.48905000        +2.04887000
H        -0.12524000        -1.15356000        +0.81843000
@C        +3.04308000        +2.43503000        +2.89310000
@C        +3.44664000        +0.97662000        +3.30586000
@C        +4.15046000        +2.78989000        +1.87224000
@C        +5.45108000        +3.10715000        +2.63570000
@C        +5.86374000        +1.68366000        +3.11015000
@C        +4.76461000        +0.79716000        +2.45977000
@O        +4.44878000        +1.52678000        +1.26339000
@H        +6.19272000        +3.52797000        +1.95520000
@H        +5.30274000        +3.81503000        +3.45366000
@H        +6.84220000        +1.40009000        +2.71876000
@H        +5.89397000        +1.57753000        +4.19643000
@H        +3.85308000        +3.58958000        +1.22651000
@C        +5.17488000        -0.62252000        +2.13903000
@H        +6.07781000        -0.61180000        +1.56500000
@H        +4.39989000        -1.09917000        +1.57592000
@H        +5.33725000        -1.16114000        +3.04921000
@H        +2.07365000        +2.45826000        +2.44080000
@H        +2.97590000        +3.11632000        +3.71543000
@H        +3.63731000        +0.90110000        +4.35602000
@H        +2.69514000        +0.23659000        +3.12558000
$end

$rem
JOBTYPE                   SP
METHOD                    B3LYP
DFT_D                     d3_op
BASIS                     6-311++G(d,p)
SYMMETRY                  False
THRESH                    12
SCF_CONVERGENCE           8
MAX_SUB_FILE_NUM          128
MEM_STATIC                400
MEM_TOTAL                 4000
$end
--------------------------------------------------------------

             Standard Nuclear Orientation (Angstroms)
    I     Atom           X                Y                Z
 ----------------------------------------------------------------
    1      C       0.2227000000     1.0448800000     0.5859500000
    2      C       0.6262600000    -0.4135300000     0.9987100000
    3      C       1.3300800000     1.3997400000    -0.4349100000
    4      C       2.6307000000     1.7170000000     0.3285500000
    5      C       3.0433600000     0.2935100000     0.8030000000
    6      C       1.9442300000    -0.5929900000     0.1526200000
    7      O       1.6284000000     0.1366300000    -1.0437600000
    8      H       3.3723400000     2.1378200000    -0.3519500000
    9      H       2.4823600000     2.4248800000     1.1465100000
   10      H       4.0218200000     0.0099400000     0.4116100000
   11      H       3.0735900000     0.1873800000     1.8892800000
   12      H       1.0327000000     2.1994300000    -1.0806400000
   13      C       2.3545000000    -2.0126700000    -0.1681200000
   14      H       3.2574300000    -2.0019500000    -0.7421500000
   15      H       1.5795100000    -2.4893200000    -0.7312300000
   16      H       2.5168700000    -2.5512900000     0.7420600000
   17      H      -0.7467300000     1.0681100000     0.1336500000
   18      H       0.1555200000     1.7261700000     1.4082800000
   19      H       0.8169300000    -0.4890500000     2.0488700000
   20      H      -0.1252400000    -1.1535600000     0.8184300000
   21      GH      3.0430800000     2.4350300000     2.8931000000
   22      GH      3.4466400000     0.9766200000     3.3058600000
   23      GH      4.1504600000     2.7898900000     1.8722400000
   24      GH      5.4510800000     3.1071500000     2.6357000000
   25      GH      5.8637400000     1.6836600000     3.1101500000
   26      GH      4.7646100000     0.7971600000     2.4597700000
   27      GH      4.4487800000     1.5267800000     1.2633900000
   28      GH      6.1927200000     3.5279700000     1.9552000000
   29      GH      5.3027400000     3.8150300000     3.4536600000
   30      GH      6.8422000000     1.4000900000     2.7187600000
   31      GH      5.8939700000     1.5775300000     4.1964300000
   32      GH      3.8530800000     3.5895800000     1.2265100000
   33      GH      5.1748800000    -0.6225200000     2.1390300000
   34      GH      6.0778100000    -0.6118000000     1.5650000000
   35      GH      4.3998900000    -1.0991700000     1.5759200000
   36      GH      5.3372500000    -1.1611400000     3.0492100000
   37      GH      2.0736500000     2.4582600000     2.4408000000
   38      GH      2.9759000000     3.1163200000     3.7154300000
   39      GH      3.6373100000     0.9011000000     4.3560200000
   40      GH      2.6951400000     0.2365900000     3.1255800000
 ----------------------------------------------------------------

   13    -349.2967267049      2.64E-09 Convergence criterion met
 Total energy in the final basis set = -349.29672670

                    Orbital Energies (a.u.)
 --------------------------------------------------------------

 Alpha MOs
 -- Occupied --
-19.119 -10.225 -10.216 -10.166 -10.166 -10.163 -10.162 -10.154
 -1.049  -0.798  -0.775  -0.748  -0.684  -0.614  -0.575  -0.556
 -0.503  -0.482  -0.464  -0.440  -0.418  -0.405  -0.392  -0.377
 -0.360  -0.348  -0.344  -0.336  -0.316  -0.301  -0.262

          Ground-State Mulliken Net Atomic Charges

     Atom                 Charge (a.u.)
  ----------------------------------------
      1 C                    -0.477355
      2 C                    -0.095886
      3 C                    -0.018577
      4 C                    -0.236984
      5 C                    -0.389827
      6 C                    -0.246651
      7 O                     0.003484
      8 H                     0.192249
      9 H                     0.089280
     10 H                     0.226251
     11 H                     0.031402
     12 H                     0.242734
     13 C                    -0.551730
     14 H                     0.150955
     15 H                     0.169198
     16 H                     0.159059
     17 H                     0.183829
     18 H                     0.122069
     19 H                     0.130378
     20 H                     0.178331
     21 GH                   -0.047129
     22 GH                    0.071144
     23 GH                   -0.042459
     24 GH                   -0.008513
     25 GH                    0.000683
     26 GH                    0.087460
     27 GH                    0.060856
     28 GH                   -0.001431
     29 GH                    0.001411
     30 GH                    0.000824
     31 GH                   -0.000593
     32 GH                    0.008872
     33 GH                   -0.053789
     34 GH                   -0.001012
     35 GH                    0.033406
     36 GH                   -0.000695
     37 GH                    0.012616
     38 GH                   -0.003544
     39 GH                    0.004782
     40 GH                    0.014902
  ----------------------------------------
  Sum of atomic charges =     0.000000

                    Cartesian Multipole Moments
 -----------------------------------------------------------------
    Charge (ESU x 10^10)
                 0.0000
    Dipole Moment (Debye)
         X      -0.0029      Y       0.4031      Z       1.6104
       Tot       1.6601
    Quadrupole Moments (Debye-Ang)
        XX     -49.7780     XY      -0.0658     YY     -47.6257
        XZ       2.5701     YZ      -0.6640     ZZ     -52.6268

 Total job time:  304.77s(wall), 1209.98s(cpu)
        *  Thank you very much for using Q-Chem.  Have a nice day.  *
