 Q-Chem 5.0, Q-Chem, Inc., Pleasanton, CA (2017)
 Q-Chem 5.0.1 for Intel X86 EM64T Linux

User input:
--------------------------------------------------------------
$molecule
0  1
C        +0.22270000        +1.04488000        +0.58595000
C        +0.62626000        -0.41353000        +0.99871000
C        +1.33008000        +1.39974000        -0.43491000
C        +2.63070000        +1.71700000        +0.32855000
C        +3.04336000        +0.29351000        +0.80300000
C        +1.94423000        -0.59299000        +0.15262000
O        +1.62840000        +0.13663000        -1.04376000
H        +3.37234000        +2.13782000        -0.35195000
H        +2.48236000        +2.42488000        +1.14651000
H        +4.02182000        +0.00994000        +0.41161000
H        +3.07359000        +0.18738000        +1.88928000
H        +1.03270000        +2.19943000        -1.08064000
C        +2.35450000        -2.01267000        -0.16812000
H        +3.25743000        -2.00195000        -0.74215000
H        +1.57951000        -2.48932000        -0.73123000
H        +2.51687000        -2.55129000        +0.74206000
H        -0.74673000        +1.06811000        +0.13365000
H        +0.15552000        +1.72617000        +1.40828000
H        +0.81693000        -0.48905000        +2.04887000
H        -0.12524000        -1.15356000        +0.81843000
@C        +7.45445000        +4.60936000        +6.50171000
@C        +7.85801000        +3.15095000        +6.91447000
@C        +8.56183000        +4.96422000        +5.48085000
@C        +9.86245000        +5.28148000        +6.24431000
@C       +10.27511000        +3.85799000        +6.71876000
@C        +9.17598000        +2.97149000        +6.06838000
@O        +8.86015000        +3.70111000        +4.87200000
@H       +10.60409000        +5.70230000        +5.56381000
@H        +9.71411000        +5.98936000        +7.06227000
@H       +11.25357000        +3.57442000        +6.32737000
@H       +10.30534000        +3.75186000        +7.80504000
@H        +8.26445000        +5.76391000        +4.83512000
@C        +9.58625000        +1.55181000        +5.74764000
@H       +10.48918000        +1.56253000        +5.17361000
@H        +8.81126000        +1.07516000        +5.18453000
@H        +9.74862000        +1.01319000        +6.65782000
@H        +6.48502000        +4.63259000        +6.04941000
@H        +7.38727000        +5.29065000        +7.32404000
@H        +8.04868000        +3.07543000        +7.96463000
@H        +7.10651000        +2.41092000        +6.73419000
$end

$rem
JOBTYPE                   SP
METHOD                    B3LYP
DFT_D                     d3_op
BASIS                     6-311++G(d,p)
SYMMETRY                  False
THRESH                    12
SCF_CONVERGENCE           8
MAX_SUB_FILE_NUM          128
MEM_STATIC                400
MEM_TOTAL                 4000
$end
--------------------------------------------------------------

             Standard Nuclear Orientation (Angstroms)
    I     Atom           X                Y                Z
 ----------------------------------------------------------------
    1      C       0.2227000000     1.0448800000     0.5859500000
    2      C       0.6262600000    -0.4135300000     0.9987100000
    3      C       1.3300800000     1.3997400000    -0.4349100000
    4      C       2.6307000000     1.7170000000     0.3285500000
    5      C       3.0433600000     0.2935100000     0.8030000000
    6      C       1.9442300000    -0.5929900000     0.1526200000
    7      O       1.6284000000     0.1366300000    -1.0437600000
    8      H       3.3723400000     2.1378200000    -0.3519500000
    9      H       2.4823600000     2.4248800000     1.1465100000
   10      H       4.0218200000     0.0099400000     0.4116100000
   11      H       3.0735900000     0.1873800000     1.8892800000
   12      H       1.0327000000     2.1994300000    -1.0806400000
   13      C       2.3545000000    -2.0126700000    -0.1681200000
   14      H       3.2574300000    -2.0019500000    -0.7421500000
   15      H       1.5795100000    -2.4893200000    -0.7312300000
   16      H       2.5168700000    -2.5512900000     0.7420600000
   17      H      -0.7467300000     1.0681100000     0.1336500000
   18      H       0.1555200000     1.7261700000     1.4082800000
   19      H       0.8169300000    -0.4890500000     2.0488700000
   20      H      -0.1252400000    -1.1535600000     0.8184300000
   21      GH      7.4544500000     4.6093600000     6.5017100000
   22      GH      7.8580100000     3.1509500000     6.9144700000
   23      GH      8.5618300000     4.9642200000     5.4808500000
   24      GH      9.8624500000     5.2814800000     6.2443100000
   25      GH     10.2751100000     3.8579900000     6.7187600000
   26      GH      9.1759800000     2.9714900000     6.0683800000
   27      GH      8.8601500000     3.7011100000     4.8720000000
   28      GH     10.6040900000     5.7023000000     5.5638100000
   29      GH      9.7141100000     5.9893600000     7.0622700000
   30      GH     11.2535700000     3.5744200000     6.3273700000
   31      GH     10.3053400000     3.7518600000     7.8050400000
   32      GH      8.2644500000     5.7639100000     4.8351200000
   33      GH      9.5862500000     1.5518100000     5.7476400000
   34      GH     10.4891800000     1.5625300000     5.1736100000
   35      GH      8.8112600000     1.0751600000     5.1845300000
   36      GH      9.7486200000     1.0131900000     6.6578200000
   37      GH      6.4850200000     4.6325900000     6.0494100000
   38      GH      7.3872700000     5.2906500000     7.3240400000
   39      GH      8.0486800000     3.0754300000     7.9646300000
   40      GH      7.1065100000     2.4109200000     6.7341900000
 ----------------------------------------------------------------

   13    -349.2959190037      2.61E-09 Convergence criterion met
 Total energy in the final basis set = -349.29591900

                    Orbital Energies (a.u.)
 --------------------------------------------------------------

 Alpha MOs
 -- Occupied --
-19.119 -10.225 -10.216 -10.166 -10.166 -10.163 -10.162 -10.154
 -1.049  -0.798  -0.775  -0.748  -0.684  -0.615  -0.575  -0.556
 -0.503  -0.482  -0.465  -0.441  -0.418  -0.405  -0.393  -0.378
 -0.360  -0.348  -0.344  -0.336  -0.316  -0.301  -0.263

          Ground-State Mulliken Net Atomic Charges

     Atom                 Charge (a.u.)
  ----------------------------------------
      1 C                    -0.547020
      2 C                    -0.359213
      3 C                     0.312293
      4 C                    -0.561181
      5 C                    -0.339030
      6 C                     0.106751
      7 O                    -0.103387
      8 H                     0.160073
      9 H                     0.118435
     10 H                     0.147610
     11 H                     0.137702
     12 H                     0.241011
     13 C                    -0.336914
     14 H                     0.147279
     15 H                     0.156733
     16 H                     0.133736
     17 H                     0.160498
     18 H                     0.126494
     19 H                     0.134449
     20 H                     0.163550
     21 GH                   -0.000012
     22 GH                   -0.000011
     23 GH                   -0.000001
     24 GH                   -0.000002
     25 GH                    0.000003
     26 GH                   -0.000004
     27 GH                   -0.000001
     28 GH                   -0.000000
     29 GH                    0.000000
     30 GH                   -0.000000
     31 GH                    0.000000
     32 GH                    0.000006
     33 GH                   -0.000018
     34 GH                   -0.000001
     35 GH                    0.000051
     36 GH                    0.000000
     37 GH                    0.000075
     38 GH                   -0.000002
     39 GH                   -0.000001
     40 GH                    0.000047
  ----------------------------------------
  Sum of atomic charges =     0.000000

                    Cartesian Multipole Moments
 -----------------------------------------------------------------
    Charge (ESU x 10^10)
                 0.0000
    Dipole Moment (Debye)
         X      -0.0065      Y       0.4056      Z       1.6204
       Tot       1.6704
    Quadrupole Moments (Debye-Ang)
        XX     -49.7883     XY      -0.0721     YY     -47.6062
        XZ       2.5537     YZ      -0.6761     ZZ     -52.6641

 Total job time:  100.89s(wall), 401.36s(cpu)
        *  Thank you very much for using Q-Chem.  Have a nice day.  *
