 Q-Chem 5.0, Q-Chem, Inc., Pleasanton, CA (2017)
 Q-Chem 5.0.1 for Intel X86 EM64T Linux

User input:
--------------------------------------------------------------
$molecule
0  1
C        +3.91089000        +2.86276000        +3.60299000
C        +4.31445000        +1.40435000        +4.01575000
C        +5.01827000        +3.21762000        +2.58213000
C        +6.31889000        +3.53488000        +3.34559000
C        +6.73155000        +2.11139000        +3.82004000
C        +5.63242000        +1.22489000        +3.16966000
O        +5.31659000        +1.95451000        +1.97328000
H        +7.06053000        +3.95570000        +2.66509000
H        +6.17055000        +4.24276000        +4.16355000
H        +7.71001000        +1.82782000        +3.42865000
H        +6.76178000        +2.00526000        +4.90632000
H        +4.72089000        +4.01731000        +1.93640000
C        +6.04269000        -0.19479000        +2.84892000
H        +6.94562000        -0.18407000        +2.27489000
H        +5.26770000        -0.67144000        +2.28581000
H        +6.20506000        -0.73341000        +3.75910000
H        +2.94146000        +2.88599000        +3.15069000
H        +3.84371000        +3.54405000        +4.42532000
H        +4.50512000        +1.32883000        +5.06591000
H        +3.56295000        +0.66432000        +3.83547000
@C        +0.22270000        +1.04488000        +0.58595000
@C        +0.62626000        -0.41353000        +0.99871000
@C        +1.33008000        +1.39974000        -0.43491000
@C        +2.63070000        +1.71700000        +0.32855000
@C        +3.04336000        +0.29351000        +0.80300000
@C        +1.94423000        -0.59299000        +0.15262000
@O        +1.62840000        +0.13663000        -1.04376000
@H        +3.37234000        +2.13782000        -0.35195000
@H        +2.48236000        +2.42488000        +1.14651000
@H        +4.02182000        +0.00994000        +0.41161000
@H        +3.07359000        +0.18738000        +1.88928000
@H        +1.03270000        +2.19943000        -1.08064000
@C        +2.35450000        -2.01267000        -0.16812000
@H        +3.25743000        -2.00195000        -0.74215000
@H        +1.57951000        -2.48932000        -0.73123000
@H        +2.51687000        -2.55129000        +0.74206000
@H        -0.74673000        +1.06811000        +0.13365000
@H        +0.15552000        +1.72617000        +1.40828000
@H        +0.81693000        -0.48905000        +2.04887000
@H        -0.12524000        -1.15356000        +0.81843000
$end

$rem
JOBTYPE                   SP
METHOD                    B3LYP
DFT_D                     d3_op
BASIS                     6-311++G(d,p)
SYMMETRY                  False
THRESH                    12
SCF_CONVERGENCE           8
MAX_SUB_FILE_NUM          128
MEM_STATIC                400
MEM_TOTAL                 4000
$end
--------------------------------------------------------------

             Standard Nuclear Orientation (Angstroms)
    I     Atom           X                Y                Z
 ----------------------------------------------------------------
    1      C       3.9108900000     2.8627600000     3.6029900000
    2      C       4.3144500000     1.4043500000     4.0157500000
    3      C       5.0182700000     3.2176200000     2.5821300000
    4      C       6.3188900000     3.5348800000     3.3455900000
    5      C       6.7315500000     2.1113900000     3.8200400000
    6      C       5.6324200000     1.2248900000     3.1696600000
    7      O       5.3165900000     1.9545100000     1.9732800000
    8      H       7.0605300000     3.9557000000     2.6650900000
    9      H       6.1705500000     4.2427600000     4.1635500000
   10      H       7.7100100000     1.8278200000     3.4286500000
   11      H       6.7617800000     2.0052600000     4.9063200000
   12      H       4.7208900000     4.0173100000     1.9364000000
   13      C       6.0426900000    -0.1947900000     2.8489200000
   14      H       6.9456200000    -0.1840700000     2.2748900000
   15      H       5.2677000000    -0.6714400000     2.2858100000
   16      H       6.2050600000    -0.7334100000     3.7591000000
   17      H       2.9414600000     2.8859900000     3.1506900000
   18      H       3.8437100000     3.5440500000     4.4253200000
   19      H       4.5051200000     1.3288300000     5.0659100000
   20      H       3.5629500000     0.6643200000     3.8354700000
   21      GH      0.2227000000     1.0448800000     0.5859500000
   22      GH      0.6262600000    -0.4135300000     0.9987100000
   23      GH      1.3300800000     1.3997400000    -0.4349100000
   24      GH      2.6307000000     1.7170000000     0.3285500000
   25      GH      3.0433600000     0.2935100000     0.8030000000
   26      GH      1.9442300000    -0.5929900000     0.1526200000
   27      GH      1.6284000000     0.1366300000    -1.0437600000
   28      GH      3.3723400000     2.1378200000    -0.3519500000
   29      GH      2.4823600000     2.4248800000     1.1465100000
   30      GH      4.0218200000     0.0099400000     0.4116100000
   31      GH      3.0735900000     0.1873800000     1.8892800000
   32      GH      1.0327000000     2.1994300000    -1.0806400000
   33      GH      2.3545000000    -2.0126700000    -0.1681200000
   34      GH      3.2574300000    -2.0019500000    -0.7421500000
   35      GH      1.5795100000    -2.4893200000    -0.7312300000
   36      GH      2.5168700000    -2.5512900000     0.7420600000
   37      GH     -0.7467300000     1.0681100000     0.1336500000
   38      GH      0.1555200000     1.7261700000     1.4082800000
   39      GH      0.8169300000    -0.4890500000     2.0488700000
   40      GH     -0.1252400000    -1.1535600000     0.8184300000
 ----------------------------------------------------------------

   13    -349.2965527542      2.62E-09 Convergence criterion met
 Total energy in the final basis set = -349.29655275

                    Orbital Energies (a.u.)
 --------------------------------------------------------------

 Alpha MOs
 -- Occupied --
-19.119 -10.225 -10.216 -10.166 -10.166 -10.163 -10.162 -10.154
 -1.049  -0.798  -0.775  -0.748  -0.684  -0.615  -0.575  -0.556
 -0.503  -0.482  -0.464  -0.440  -0.418  -0.405  -0.392  -0.377
 -0.360  -0.348  -0.344  -0.336  -0.316  -0.301  -0.262

          Ground-State Mulliken Net Atomic Charges

     Atom                 Charge (a.u.)
  ----------------------------------------
      1 C                    -0.402771
      2 C                    -0.396447
      3 C                     0.238324
      4 C                    -0.667675
      5 C                    -0.458220
      6 C                     0.285090
      7 O                     0.011272
      8 H                     0.163821
      9 H                     0.128060
     10 H                     0.154980
     11 H                     0.136564
     12 H                     0.232569
     13 C                    -0.392083
     14 H                     0.154315
     15 H                     0.136077
     16 H                     0.141406
     17 H                     0.121551
     18 H                     0.167342
     19 H                     0.162937
     20 H                     0.172316
     21 GH                   -0.007920
     22 GH                    0.008988
     23 GH                   -0.043958
     24 GH                    0.039275
     25 GH                    0.005470
     26 GH                   -0.074724
     27 GH                    0.000043
     28 GH                    0.004203
     29 GH                   -0.010827
     30 GH                    0.018071
     31 GH                   -0.035685
     32 GH                   -0.000995
     33 GH                    0.003035
     34 GH                   -0.000931
     35 GH                   -0.000098
     36 GH                    0.002322
     37 GH                   -0.000376
     38 GH                    0.002381
     39 GH                    0.002351
     40 GH                   -0.000055
  ----------------------------------------
  Sum of atomic charges =     0.000000

                    Cartesian Multipole Moments
 -----------------------------------------------------------------
    Charge (ESU x 10^10)
                 0.0000
    Dipole Moment (Debye)
         X      -0.0061      Y       0.4022      Z       1.6116
       Tot       1.6611
    Quadrupole Moments (Debye-Ang)
        XX     -49.8343     XY       1.3976     YY     -46.1645
        XZ       8.4626     YZ       3.4751     ZZ     -42.9178

 Total job time:  232.01s(wall), 918.62s(cpu)
        *  Thank you very much for using Q-Chem.  Have a nice day.  *
