 Q-Chem 5.0, Q-Chem, Inc., Pleasanton, CA (2017)
 Q-Chem 5.0.1 for Intel X86 EM64T Linux

User input:
--------------------------------------------------------------
$molecule
0  1
--
0  1
C        +0.22270000        +1.04488000        +0.58595000
C        +0.62626000        -0.41353000        +0.99871000
C        +1.33008000        +1.39974000        -0.43491000
C        +2.63070000        +1.71700000        +0.32855000
C        +3.04336000        +0.29351000        +0.80300000
C        +1.94423000        -0.59299000        +0.15262000
O        +1.62840000        +0.13663000        -1.04376000
H        +3.37234000        +2.13782000        -0.35195000
H        +2.48236000        +2.42488000        +1.14651000
H        +4.02182000        +0.00994000        +0.41161000
H        +3.07359000        +0.18738000        +1.88928000
H        +1.03270000        +2.19943000        -1.08064000
C        +2.35450000        -2.01267000        -0.16812000
H        +3.25743000        -2.00195000        -0.74215000
H        +1.57951000        -2.48932000        -0.73123000
H        +2.51687000        -2.55129000        +0.74206000
H        -0.74673000        +1.06811000        +0.13365000
H        +0.15552000        +1.72617000        +1.40828000
H        +0.81693000        -0.48905000        +2.04887000
H        -0.12524000        -1.15356000        +0.81843000
--
0  1
C        +3.91089000        +2.86276000        +3.60299000
C        +4.31445000        +1.40435000        +4.01575000
C        +5.01827000        +3.21762000        +2.58213000
C        +6.31889000        +3.53488000        +3.34559000
C        +6.73155000        +2.11139000        +3.82004000
C        +5.63242000        +1.22489000        +3.16966000
O        +5.31659000        +1.95451000        +1.97328000
H        +7.06053000        +3.95570000        +2.66509000
H        +6.17055000        +4.24276000        +4.16355000
H        +7.71001000        +1.82782000        +3.42865000
H        +6.76178000        +2.00526000        +4.90632000
H        +4.72089000        +4.01731000        +1.93640000
C        +6.04269000        -0.19479000        +2.84892000
H        +6.94562000        -0.18407000        +2.27489000
H        +5.26770000        -0.67144000        +2.28581000
H        +6.20506000        -0.73341000        +3.75910000
H        +2.94146000        +2.88599000        +3.15069000
H        +3.84371000        +3.54405000        +4.42532000
H        +4.50512000        +1.32883000        +5.06591000
H        +3.56295000        +0.66432000        +3.83547000
$end

$rem
JOBTYPE                   SP
METHOD                    B3LYP
DFT_D                     d3_op
BASIS                     6-311++G(d,p)
SYMMETRY                  False
THRESH                    12
SCF_CONVERGENCE           8
MAX_SUB_FILE_NUM          128
MEM_STATIC                400
MEM_TOTAL                 4000
$end
--------------------------------------------------------------

             Standard Nuclear Orientation (Angstroms)
    I     Atom           X                Y                Z
 ----------------------------------------------------------------
    1      C       3.0845553614    -1.5166534676     0.7992423804
    2      C       3.1210744773    -0.0279305049     1.2917477244
    3      C       2.7112628077    -1.3444725280    -0.6925275807
    4      C       1.2084354327    -1.0194517583    -0.7974506169
    5      C       1.1901361300     0.4434426672    -0.2670546388
    6      C       2.7020478535     0.7187344108    -0.0318939540
    7      O       3.3233914036    -0.0953610681    -1.0391673934
    8      H       0.8858523073    -1.0670024226    -1.8385455566
    9      H       0.5836808525    -1.7025560851    -0.2184794563
   10      H       0.8041047937     1.1356253691    -1.0172845789
   11      H       0.5985798516     0.5706165090     0.6418291006
   12      H       2.9825824016    -2.2028545303    -1.2708633047
   13      C       3.1309015540     2.1632629666    -0.1588139204
   14      H       2.7890158305     2.5559997549    -1.0935758748
   15      H       4.1983289592     2.2235297215    -0.1156369850
   16      H       2.7088110379     2.7323952515     0.6429536220
   17      H       4.0387265001    -1.9878754333     0.9106728289
   18      H       2.4082666352    -2.1389706608     1.3471937608
   19      H       2.4206537753     0.1446454065     2.0820152361
   20      H       4.0579670105     0.2840212252     1.7038351285
   21      C      -2.0107408607    -1.3968559281     0.9824594405
   22      C      -1.9742217448     0.0918670346     1.4749647845
   23      C      -2.3840334143    -1.2246749885    -0.5093105207
   24      C      -3.8868607894    -0.8996542188    -0.6142335568
   25      C      -3.9051600921     0.5632402067    -0.0838375787
   26      C      -2.3932483686     0.8385319503     0.1513231060
   27      O      -1.7719048184     0.0244364714    -0.8559503333
   28      H      -4.2094439148    -0.9472048831    -1.6553284965
   29      H      -4.5116153695    -1.5827585456    -0.0352623962
   30      H      -4.2911914284     1.2554229086    -0.8340675188
   31      H      -4.4967163705     0.6904140485     0.8250461607
   32      H      -2.1127138205    -2.0830569908    -1.0876462446
   33      C      -1.9643946680     2.2830605061     0.0244031397
   34      H      -2.3062803915     2.6757972944    -0.9103588147
   35      H      -0.8969672629     2.3433272610     0.0675800751
   36      H      -2.3864851842     2.8521927910     0.8261706821
   37      H      -1.0565697219    -1.8680778938     1.0938898890
   38      H      -2.6870295869    -2.0191731213     1.5304108209
   39      H      -2.6746424467     0.2644429460     2.2652322962
   40      H      -1.0373292116     0.4038187647     1.8870521886
 ----------------------------------------------------------------

   13    -698.5943071700      6.68E-09 Convergence criterion met
 Total energy in the final basis set = -698.59430717

                    Orbital Energies (a.u.)
 --------------------------------------------------------------

 Alpha MOs
 -- Occupied --
-19.122 -19.111 -10.229 -10.220 -10.217 -10.208 -10.169 -10.169
-10.168 -10.167 -10.158 -10.157 -10.157 -10.155 -10.154 -10.149
 -1.053  -1.042  -0.802  -0.791  -0.779  -0.769  -0.753  -0.740
 -0.687  -0.677  -0.620  -0.607  -0.579  -0.568  -0.561  -0.548
 -0.507  -0.496  -0.488  -0.475  -0.468  -0.456  -0.445  -0.434
 -0.421  -0.412  -0.410  -0.397  -0.396  -0.385  -0.381  -0.371
 -0.365  -0.353  -0.351  -0.348  -0.342  -0.339  -0.335  -0.328
 -0.320  -0.308  -0.304  -0.293  -0.267  -0.253

          Ground-State Mulliken Net Atomic Charges

     Atom                 Charge (a.u.)
  ----------------------------------------
      1 C                    -0.600317
      2 C                    -0.184691
      3 C                     0.088129
      4 C                    -0.304188
      5 C                    -0.119489
      6 C                    -0.091773
      7 O                    -0.056732
      8 H                     0.207726
      9 H                     0.047217
     10 H                     0.193346
     11 H                    -0.049916
     12 H                     0.240632
     13 C                    -0.514202
     14 H                     0.147781
     15 H                     0.162530
     16 H                     0.146233
     17 H                     0.170337
     18 H                     0.112827
     19 H                     0.129294
     20 H                     0.169449
     21 C                    -0.380249
     22 C                    -0.386712
     23 C                     0.188651
     24 C                    -0.664351
     25 C                    -0.471349
     26 C                     0.244958
     27 O                     0.041348
     28 H                     0.164856
     29 H                     0.128924
     30 H                     0.156578
     31 H                     0.137100
     32 H                     0.234884
     33 C                    -0.355340
     34 H                     0.158335
     35 H                     0.136455
     36 H                     0.140970
     37 H                     0.120532
     38 H                     0.167697
     39 H                     0.164394
     40 H                     0.178124
  ----------------------------------------
  Sum of atomic charges =     0.000000

                    Cartesian Multipole Moments
 -----------------------------------------------------------------
    Charge (ESU x 10^10)
                 0.0000
    Dipole Moment (Debye)
         X      -2.5686      Y      -0.6110      Z       2.2340
       Tot       3.4586
    Quadrupole Moments (Debye-Ang)
        XX    -104.2854     XY      -0.0638     YY     -95.5306
        XZ       3.3339     YZ       1.5483     ZZ    -103.1990

 Total job time:  212.28s(wall), 843.45s(cpu)
        *  Thank you very much for using Q-Chem.  Have a nice day.  *
