 Q-Chem 5.0, Q-Chem, Inc., Pleasanton, CA (2017)
 Q-Chem 5.0.1 for Intel X86 EM64T Linux

User input:
--------------------------------------------------------------
$molecule
0  1
C        +0.21976000        +2.15985000        +4.31887000
C        +0.66423000        +0.72914000        +4.74358000
C        +1.34371000        +2.53582000        +3.32893000
C        +2.64342000        +2.84595000        +4.10240000
C        +3.08206000        +1.41489000        +4.53097000
C        +1.96074000        +0.53933000        +3.91326000
O        +1.64479000        +1.27541000        +2.70498000
H        +3.38190000        +3.30512000        +3.44270000
H        +2.47742000        +3.52108000        +4.94491000
H        +4.04721000        +1.14838000        +4.09562000
H        +3.15342000        +1.28999000        +5.61378000
H        +1.06998000        +3.26261000        +2.56572000
C        +2.33851000        -0.88627000        +3.58412000
H        +3.21384000        -0.91067000        +2.93037000
H        +1.51444000        -1.39674000        +3.07988000
H        +2.57677000        -1.43595000        +4.49914000
H        -0.74602000        +2.13890000        +3.81091000
H        +0.14904000        +2.85922000        +5.15464000
H        +0.84370000        +0.63297000        +5.81668000
H        -0.07699000        -0.02009000        +4.45690000
@C        +0.20553000        +1.04146000        +0.58269000
@C        +0.65000000        -0.38925000        +1.00740000
@C        +1.32948000        +1.41743000        -0.40725000
@C        +2.62919000        +1.72756000        +0.36622000
@C        +3.06783000        +0.29650000        +0.79479000
@C        +1.94651000        -0.57906000        +0.17708000
@O        +1.63056000        +0.15702000        -1.03120000
@H        +3.36767000        +2.18673000        -0.29348000
@H        +2.46319000        +2.40269000        +1.20873000
@H        +4.03298000        +0.02999000        +0.35944000
@H        +3.13919000        +0.17160000        +1.87760000
@H        +1.05575000        +2.14422000        -1.17046000
@C        +2.32428000        -2.00466000        -0.15206000
@H        +3.19961000        -2.02906000        -0.80581000
@H        +1.50021000        -2.51513000        -0.65630000
@H        +2.56254000        -2.55434000        +0.76296000
@H        -0.76025000        +1.02051000        +0.07473000
@H        +0.13481000        +1.74083000        +1.41846000
@H        +0.82947000        -0.48542000        +2.08050000
@H        -0.09122000        -1.13848000        +0.72072000
$end

$rem
JOBTYPE                   SP
METHOD                    B3LYP
DFT_D                     d3_op
BASIS                     6-311++G(d,p)
SYMMETRY                  False
THRESH                    12
SCF_CONVERGENCE           8
MAX_SUB_FILE_NUM          128
MEM_STATIC                400
MEM_TOTAL                 4000
$end
--------------------------------------------------------------

             Standard Nuclear Orientation (Angstroms)
    I     Atom           X                Y                Z
 ----------------------------------------------------------------
    1      C       0.2197600000     2.1598500000     4.3188700000
    2      C       0.6642300000     0.7291400000     4.7435800000
    3      C       1.3437100000     2.5358200000     3.3289300000
    4      C       2.6434200000     2.8459500000     4.1024000000
    5      C       3.0820600000     1.4148900000     4.5309700000
    6      C       1.9607400000     0.5393300000     3.9132600000
    7      O       1.6447900000     1.2754100000     2.7049800000
    8      H       3.3819000000     3.3051200000     3.4427000000
    9      H       2.4774200000     3.5210800000     4.9449100000
   10      H       4.0472100000     1.1483800000     4.0956200000
   11      H       3.1534200000     1.2899900000     5.6137800000
   12      H       1.0699800000     3.2626100000     2.5657200000
   13      C       2.3385100000    -0.8862700000     3.5841200000
   14      H       3.2138400000    -0.9106700000     2.9303700000
   15      H       1.5144400000    -1.3967400000     3.0798800000
   16      H       2.5767700000    -1.4359500000     4.4991400000
   17      H      -0.7460200000     2.1389000000     3.8109100000
   18      H       0.1490400000     2.8592200000     5.1546400000
   19      H       0.8437000000     0.6329700000     5.8166800000
   20      H      -0.0769900000    -0.0200900000     4.4569000000
   21      GH      0.2055300000     1.0414600000     0.5826900000
   22      GH      0.6500000000    -0.3892500000     1.0074000000
   23      GH      1.3294800000     1.4174300000    -0.4072500000
   24      GH      2.6291900000     1.7275600000     0.3662200000
   25      GH      3.0678300000     0.2965000000     0.7947900000
   26      GH      1.9465100000    -0.5790600000     0.1770800000
   27      GH      1.6305600000     0.1570200000    -1.0312000000
   28      GH      3.3676700000     2.1867300000    -0.2934800000
   29      GH      2.4631900000     2.4026900000     1.2087300000
   30      GH      4.0329800000     0.0299900000     0.3594400000
   31      GH      3.1391900000     0.1716000000     1.8776000000
   32      GH      1.0557500000     2.1442200000    -1.1704600000
   33      GH      2.3242800000    -2.0046600000    -0.1520600000
   34      GH      3.1996100000    -2.0290600000    -0.8058100000
   35      GH      1.5002100000    -2.5151300000    -0.6563000000
   36      GH      2.5625400000    -2.5543400000     0.7629600000
   37      GH     -0.7602500000     1.0205100000     0.0747300000
   38      GH      0.1348100000     1.7408300000     1.4184600000
   39      GH      0.8294700000    -0.4854200000     2.0805000000
   40      GH     -0.0912200000    -1.1384800000     0.7207200000
 ----------------------------------------------------------------

   13    -349.3043231889      2.93E-09 Convergence criterion met
 Total energy in the final basis set = -349.30432319

                    Orbital Energies (a.u.)
 --------------------------------------------------------------

 Alpha MOs
 -- Occupied --
-19.115 -10.224 -10.217 -10.168 -10.168 -10.168 -10.167 -10.161
 -1.044  -0.799  -0.773  -0.750  -0.679  -0.613  -0.573  -0.554
 -0.498  -0.481  -0.467  -0.434  -0.413  -0.405  -0.391  -0.371
 -0.362  -0.346  -0.344  -0.339  -0.319  -0.302  -0.262

          Ground-State Mulliken Net Atomic Charges

     Atom                 Charge (a.u.)
  ----------------------------------------
      1 C                    -0.635737
      2 C                    -0.309456
      3 C                     0.524609
      4 C                    -0.641004
      5 C                    -0.302337
      6 C                    -0.027261
      7 O                     0.017241
      8 H                     0.149254
      9 H                     0.144491
     10 H                     0.167517
     11 H                     0.145937
     12 H                     0.236180
     13 C                    -0.487551
     14 H                     0.163771
     15 H                     0.164376
     16 H                     0.182195
     17 H                     0.148975
     18 H                     0.143823
     19 H                     0.146066
     20 H                     0.167868
     21 GH                    0.011902
     22 GH                    0.055646
     23 GH                   -0.114873
     24 GH                    0.011332
     25 GH                    0.056638
     26 GH                    0.012823
     27 GH                   -0.008006
     28 GH                    0.004867
     29 GH                   -0.076502
     30 GH                    0.002869
     31 GH                   -0.035027
     32 GH                   -0.005587
     33 GH                    0.090421
     34 GH                    0.000196
     35 GH                    0.000190
     36 GH                   -0.000156
     37 GH                    0.005126
     38 GH                   -0.078034
     39 GH                   -0.035454
     40 GH                    0.002671
  ----------------------------------------
  Sum of atomic charges =     0.000000

                    Cartesian Multipole Moments
 -----------------------------------------------------------------
    Charge (ESU x 10^10)
                 0.0000
    Dipole Moment (Debye)
         X       0.0410      Y       0.3593      Z       1.5823
       Tot       1.6231
    Quadrupole Moments (Debye-Ang)
        XX     -49.7910     XY       0.0837     YY     -47.3379
        XZ       2.9139     YZ       2.5626     ZZ     -40.7020

 Total job time:  258.53s(wall), 1024.86s(cpu)
        *  Thank you very much for using Q-Chem.  Have a nice day.  *
