 Q-Chem 5.0, Q-Chem, Inc., Pleasanton, CA (2017)
 Q-Chem 5.0.1 for Intel X86 EM64T Linux

User input:
--------------------------------------------------------------
$molecule
0  1
--
0  1
C        +0.22270000        +1.04488000        +0.58595000
C        +0.62626000        -0.41353000        +0.99871000
C        +1.33008000        +1.39974000        -0.43491000
C        +2.63070000        +1.71700000        +0.32855000
C        +3.04336000        +0.29351000        +0.80300000
C        +1.94423000        -0.59299000        +0.15262000
O        +1.62840000        +0.13663000        -1.04376000
H        +3.37234000        +2.13782000        -0.35195000
H        +2.48236000        +2.42488000        +1.14651000
H        +4.02182000        +0.00994000        +0.41161000
H        +3.07359000        +0.18738000        +1.88928000
H        +1.03270000        +2.19943000        -1.08064000
C        +2.35450000        -2.01267000        -0.16812000
H        +3.25743000        -2.00195000        -0.74215000
H        +1.57951000        -2.48932000        -0.73123000
H        +2.51687000        -2.55129000        +0.74206000
H        -0.74673000        +1.06811000        +0.13365000
H        +0.15552000        +1.72617000        +1.40828000
H        +0.81693000        -0.48905000        +2.04887000
H        -0.12524000        -1.15356000        +0.81843000
--
0  1
C        +3.04308000        +2.43503000        +2.89310000
C        +3.44664000        +0.97662000        +3.30586000
C        +4.15046000        +2.78989000        +1.87224000
C        +5.45108000        +3.10715000        +2.63570000
C        +5.86374000        +1.68366000        +3.11015000
C        +4.76461000        +0.79716000        +2.45977000
O        +4.44878000        +1.52678000        +1.26339000
H        +6.19272000        +3.52797000        +1.95520000
H        +5.30274000        +3.81503000        +3.45366000
H        +6.84220000        +1.40009000        +2.71876000
H        +5.89397000        +1.57753000        +4.19643000
H        +3.85308000        +3.58958000        +1.22651000
C        +5.17488000        -0.62252000        +2.13903000
H        +6.07781000        -0.61180000        +1.56500000
H        +4.39989000        -1.09917000        +1.57592000
H        +5.33725000        -1.16114000        +3.04921000
H        +2.07365000        +2.45826000        +2.44080000
H        +2.97590000        +3.11632000        +3.71543000
H        +3.63731000        +0.90110000        +4.35602000
H        +2.69514000        +0.23659000        +3.12558000
$end

$rem
JOBTYPE                   SP
METHOD                    B3LYP
DFT_D                     d3_op
BASIS                     6-311++G(d,p)
SYMMETRY                  False
THRESH                    12
SCF_CONVERGENCE           8
MAX_SUB_FILE_NUM          128
MEM_STATIC                400
MEM_TOTAL                 4000
$end
--------------------------------------------------------------

             Standard Nuclear Orientation (Angstroms)
    I     Atom           X                Y                Z
 ----------------------------------------------------------------
    1      C       2.4728170295    -1.5578726966     0.7519084160
    2      C       2.5526282336    -0.0726872637     1.2499502023
    3      C       2.0662683604    -1.3705899304    -0.7293122187
    4      C       0.5684119203    -1.0139242928    -0.7952907852
    5      C       0.5938353321     0.4463887889    -0.2581183626
    6      C       2.1165385020     0.6890650231    -0.0595070517
    7      O       2.6955439279    -0.1327534097    -1.0855607629
    8      H       0.2191508866    -1.0496088174    -1.8282200941
    9      H      -0.0558965779    -1.6867716492    -0.2039594519
   10      H       0.2038264462     1.1501451467    -0.9954121347
   11      H       0.0278171116     0.5813111716     0.6657869318
   12      H       2.3051619499    -2.2315435200    -1.3180353819
   13      C       2.5721720189     2.1249902864    -0.1906697726
   14      H       2.2154511943     2.5293667878    -1.1148655542
   15      H       3.6413679577     2.1628693475    -0.1738526426
   16      H       2.1820969874     2.6987830280     0.6238893187
   17      H       3.4194154187    -2.0493482425     0.8374228894
   18      H       1.7975002152    -2.1687232092     1.3137844671
   19      H       1.8758049962     0.1104746150     2.0581929730
   20      H       3.5057741564     0.2177014984     1.6399306453
   21      C      -1.4161458913    -1.3860936117     0.9895233054
   22      C      -1.3363346873     0.0990918212     1.4875650918
   23      C      -1.8226945604    -1.1988108455    -0.4916973293
   24      C      -3.3205510006    -0.8421452080    -0.5576758958
   25      C      -3.2951275888     0.6181678738    -0.0205034731
   26      C      -1.7724244188     0.8608441080     0.1781078377
   27      O      -1.1934189930     0.0390256752    -0.8479458734
   28      H      -3.6698120343    -0.8778297325    -1.5906052046
   29      H      -3.9448594987    -1.5149925643     0.0336554375
   30      H      -3.6851364746     1.3219242316    -0.7577972452
   31      H      -3.8611458093     0.7530902565     0.9034018212
   32      H      -1.5838009710    -2.0597644351    -1.0804204925
   33      C      -1.3167909019     2.2967693713     0.0469451168
   34      H      -1.6735117265     2.7011458727    -0.8772506647
   35      H      -0.2475949631     2.3346484324     0.0637622469
   36      H      -1.7068659335     2.8705621129     0.8615042081
   37      H      -0.4695475021    -1.8775691576     1.0750377788
   38      H      -2.0914627057    -1.9969441244     1.5513993566
   39      H      -2.0131579246     0.2822536999     2.2958078625
   40      H      -0.3831887644     0.3894805832     1.8775455347
 ----------------------------------------------------------------

   14    -698.3845630287      3.15E-09 Convergence criterion met
 Total energy in the final basis set = -698.38456303

                    Orbital Energies (a.u.)
 --------------------------------------------------------------

 Alpha MOs
 -- Occupied --
-19.125 -19.095 -10.240 -10.229 -10.194 -10.189 -10.181 -10.178
-10.177 -10.176 -10.160 -10.149 -10.149 -10.141 -10.128 -10.124
 -1.084  -1.025  -0.821  -0.805  -0.794  -0.765  -0.755  -0.729
 -0.700  -0.670  -0.644  -0.615  -0.585  -0.582  -0.557  -0.550
 -0.523  -0.517  -0.495  -0.482  -0.457  -0.452  -0.437  -0.436
 -0.431  -0.419  -0.415  -0.401  -0.395  -0.389  -0.384  -0.375
 -0.361  -0.358  -0.351  -0.348  -0.337  -0.329  -0.323  -0.321
 -0.315  -0.301  -0.280  -0.274  -0.257  -0.211

          Ground-State Mulliken Net Atomic Charges

     Atom                 Charge (a.u.)
  ----------------------------------------
      1 C                    -0.458697
      2 C                    -0.070925
      3 C                    -0.039433
      4 C                    -0.160139
      5 C                    -0.240168
      6 C                    -0.277513
      7 O                    -0.002788
      8 H                     0.161279
      9 H                     0.107655
     10 H                     0.180098
     11 H                    -0.131565
     12 H                     0.223972
     13 C                    -0.636867
     14 H                     0.151650
     15 H                     0.164995
     16 H                     0.148098
     17 H                     0.177364
     18 H                     0.103923
     19 H                     0.093512
     20 H                     0.171009
     21 C                    -0.396126
     22 C                    -0.405085
     23 C                     0.068002
     24 C                    -0.640712
     25 C                    -0.458640
     26 C                     0.414922
     27 O                     0.248166
     28 H                     0.163754
     29 H                     0.130045
     30 H                     0.163740
     31 H                     0.134414
     32 H                     0.246739
     33 C                    -0.556447
     34 H                     0.170105
     35 H                     0.138011
     36 H                     0.150533
     37 H                     0.122765
     38 H                     0.203402
     39 H                     0.187814
     40 H                     0.249136
  ----------------------------------------
  Sum of atomic charges =     0.000000

                    Cartesian Multipole Moments
 -----------------------------------------------------------------
    Charge (ESU x 10^10)
                 0.0000
    Dipole Moment (Debye)
         X      -3.9194      Y      -0.5848      Z       2.3222
       Tot       4.5931
    Quadrupole Moments (Debye-Ang)
        XX    -106.1226     XY       0.4432     YY     -96.0726
        XZ       3.8649     YZ       1.3080     ZZ    -103.5658

 Total job time:  338.93s(wall), 1345.27s(cpu)
        *  Thank you very much for using Q-Chem.  Have a nice day.  *
