 Q-Chem 5.0, Q-Chem, Inc., Pleasanton, CA (2017)
 Q-Chem 5.0.1 for Intel X86 EM64T Linux

User input:
--------------------------------------------------------------
$molecule
0  1
--
0  1
C        +0.22270000        +1.04488000        +0.58595000
C        +0.62626000        -0.41353000        +0.99871000
C        +1.33008000        +1.39974000        -0.43491000
C        +2.63070000        +1.71700000        +0.32855000
C        +3.04336000        +0.29351000        +0.80300000
C        +1.94423000        -0.59299000        +0.15262000
O        +1.62840000        +0.13663000        -1.04376000
H        +3.37234000        +2.13782000        -0.35195000
H        +2.48236000        +2.42488000        +1.14651000
H        +4.02182000        +0.00994000        +0.41161000
H        +3.07359000        +0.18738000        +1.88928000
H        +1.03270000        +2.19943000        -1.08064000
C        +2.35450000        -2.01267000        -0.16812000
H        +3.25743000        -2.00195000        -0.74215000
H        +1.57951000        -2.48932000        -0.73123000
H        +2.51687000        -2.55129000        +0.74206000
H        -0.74673000        +1.06811000        +0.13365000
H        +0.15552000        +1.72617000        +1.40828000
H        +0.81693000        -0.48905000        +2.04887000
H        -0.12524000        -1.15356000        +0.81843000
--
0  1
C        +7.45445000        +4.60936000        +6.50171000
C        +7.85801000        +3.15095000        +6.91447000
C        +8.56183000        +4.96422000        +5.48085000
C        +9.86245000        +5.28148000        +6.24431000
C       +10.27511000        +3.85799000        +6.71876000
C        +9.17598000        +2.97149000        +6.06838000
O        +8.86015000        +3.70111000        +4.87200000
H       +10.60409000        +5.70230000        +5.56381000
H        +9.71411000        +5.98936000        +7.06227000
H       +11.25357000        +3.57442000        +6.32737000
H       +10.30534000        +3.75186000        +7.80504000
H        +8.26445000        +5.76391000        +4.83512000
C        +9.58625000        +1.55181000        +5.74764000
H       +10.48918000        +1.56253000        +5.17361000
H        +8.81126000        +1.07516000        +5.18453000
H        +9.74862000        +1.01319000        +6.65782000
H        +6.48502000        +4.63259000        +6.04941000
H        +7.38727000        +5.29065000        +7.32404000
H        +8.04868000        +3.07543000        +7.96463000
H        +7.10651000        +2.41092000        +6.73419000
$end

$rem
JOBTYPE                   SP
METHOD                    B3LYP
DFT_D                     d3_op
BASIS                     6-311++G(d,p)
SYMMETRY                  False
THRESH                    12
SCF_CONVERGENCE           8
MAX_SUB_FILE_NUM          128
MEM_STATIC                400
MEM_TOTAL                 4000
$end
--------------------------------------------------------------

             Standard Nuclear Orientation (Angstroms)
    I     Atom           X                Y                Z
 ----------------------------------------------------------------
    1      C       5.5388671844    -1.4709408738     0.8646152593
    2      C       5.5356004568     0.0202939326     1.3508243707
    3      C       5.2022065229    -1.3119204175    -0.6372979596
    4      C       3.6970966220    -1.0145539692    -0.7834309303
    5      C       3.6384990001     0.4500286716    -0.2606701198
    6      C       5.1384643830     0.7535930041     0.0130372011
    7      O       5.8007910138    -0.0534501230    -0.9735852509
    8      H       3.4031201633    -1.0723815537    -1.8324463850
    9      H       3.0695786436    -1.7063480306    -0.2179226855
   10      H       3.2601241317     1.1319061076    -1.0241212773
   11      H       3.0208789145     0.5703854106     0.6316534502
   12      H       5.5041167841    -2.1677291932    -1.2041733665
   13      C       5.5445385842     2.2050765437    -0.1093809362
   14      H       5.2205504170     2.5875670915    -1.0547065904
   15      H       6.6091935125     2.2848011991    -0.0383073296
   16      H       5.0912046793     2.7699183760     0.6782390413
   17      H       6.4980531447    -1.9243671095     1.0034546996
   18      H       4.8595725873    -2.1030220739     1.3974642550
   19      H       4.8115001668     0.1835703779     2.1214824773
   20      H       6.4554949167     0.3508815536     1.7860295368
   21      C      -4.4605312895    -1.4150390196     0.9586750938
   22      C      -4.4637980172     0.0761957867     1.4448842052
   23      C      -4.7971919510    -1.2560185633    -0.5432381251
   24      C      -6.3023018519    -0.9586521150    -0.6893710958
   25      C      -6.3608994739     0.5059305258    -0.1666102852
   26      C      -4.8609340910     0.8094948583     0.1070970356
   27      O      -4.1986074601     0.0024517311    -0.8795254164
   28      H      -6.5962783107    -1.0164796995    -1.7383865505
   29      H      -6.9298198304    -1.6504461764    -0.1238628509
   30      H      -6.7392743423     1.1878079617    -0.9300614428
   31      H      -6.9785195594     0.6262872647     0.7257132847
   32      H      -4.4952816899    -2.1118273391    -1.1101135320
   33      C      -4.4548598898     2.2609783979    -0.0153211016
   34      H      -4.7788480569     2.6434689457    -0.9606467559
   35      H      -3.3902049614     2.3407030533     0.0557525050
   36      H      -4.9081937946     2.8258202302     0.7722988758
   37      H      -3.5013453292    -1.8684652553     1.0975145342
   38      H      -5.1398258866    -2.0471202197     1.4915240895
   39      H      -5.1878983071     0.2394722321     2.2155423119
   40      H      -3.5439035572     0.4067834078     1.8800893714
 ----------------------------------------------------------------

   13    -698.5920838692      3.71E-09 Convergence criterion met
 Total energy in the final basis set = -698.59208387

                    Orbital Energies (a.u.)
 --------------------------------------------------------------

 Alpha MOs
 -- Occupied --
-19.120 -19.117 -10.226 -10.224 -10.217 -10.215 -10.167 -10.167
-10.164 -10.164 -10.164 -10.163 -10.162 -10.161 -10.155 -10.153
 -1.050  -1.048  -0.799  -0.797  -0.776  -0.774  -0.749  -0.747
 -0.685  -0.682  -0.616  -0.613  -0.576  -0.574  -0.557  -0.555
 -0.504  -0.501  -0.483  -0.481  -0.466  -0.463  -0.441  -0.439
 -0.419  -0.416  -0.406  -0.403  -0.393  -0.391  -0.378  -0.376
 -0.361  -0.359  -0.349  -0.347  -0.345  -0.342  -0.337  -0.335
 -0.317  -0.315  -0.302  -0.300  -0.263  -0.261

          Ground-State Mulliken Net Atomic Charges

     Atom                 Charge (a.u.)
  ----------------------------------------
      1 C                    -0.547545
      2 C                    -0.358646
      3 C                     0.315153
      4 C                    -0.563405
      5 C                    -0.341160
      6 C                     0.108668
      7 O                    -0.104093
      8 H                     0.161005
      9 H                     0.118159
     10 H                     0.148717
     11 H                     0.137533
     12 H                     0.240692
     13 C                    -0.335250
     14 H                     0.147673
     15 H                     0.156070
     16 H                     0.133391
     17 H                     0.160005
     18 H                     0.126138
     19 H                     0.133970
     20 H                     0.162915
     21 C                    -0.554550
     22 C                    -0.335096
     23 C                     0.316591
     24 C                    -0.561930
     25 C                    -0.359793
     26 C                     0.094730
     27 O                    -0.102506
     28 H                     0.159597
     29 H                     0.124774
     30 H                     0.150695
     31 H                     0.141894
     32 H                     0.239852
     33 C                    -0.329294
     34 H                     0.147277
     35 H                     0.151779
     36 H                     0.135024
     37 H                     0.155576
     38 H                     0.128435
     39 H                     0.137377
     40 H                     0.159579
  ----------------------------------------
  Sum of atomic charges =     0.000000

                    Cartesian Multipole Moments
 -----------------------------------------------------------------
    Charge (ESU x 10^10)
                 0.0000
    Dipole Moment (Debye)
         X      -2.2266      Y      -0.6907      Z       2.4039
       Tot       3.3487
    Quadrupole Moments (Debye-Ang)
        XX    -103.6298     XY      -0.3291     YY     -95.0416
        XZ       3.4672     YZ       1.6086     ZZ    -102.9995

 Total job time:  115.56s(wall), 460.01s(cpu)
        *  Thank you very much for using Q-Chem.  Have a nice day.  *
