 Q-Chem 5.0, Q-Chem, Inc., Pleasanton, CA (2017)
 Q-Chem 5.0.1 for Intel X86 EM64T Linux

User input:
--------------------------------------------------------------
$molecule
0  1
--
0  1
C        +0.20553000        +1.04146000        +0.58269000
C        +0.65000000        -0.38925000        +1.00740000
C        +1.32948000        +1.41743000        -0.40725000
C        +2.62919000        +1.72756000        +0.36622000
C        +3.06783000        +0.29650000        +0.79479000
C        +1.94651000        -0.57906000        +0.17708000
O        +1.63056000        +0.15702000        -1.03120000
H        +3.36767000        +2.18673000        -0.29348000
H        +2.46319000        +2.40269000        +1.20873000
H        +4.03298000        +0.02999000        +0.35944000
H        +3.13919000        +0.17160000        +1.87760000
H        +1.05575000        +2.14422000        -1.17046000
C        +2.32428000        -2.00466000        -0.15206000
H        +3.19961000        -2.02906000        -0.80581000
H        +1.50021000        -2.51513000        -0.65630000
H        +2.56254000        -2.55434000        +0.76296000
H        -0.76025000        +1.02051000        +0.07473000
H        +0.13481000        +1.74083000        +1.41846000
H        +0.82947000        -0.48542000        +2.08050000
H        -0.09122000        -1.13848000        +0.72072000
--
0  1
C        +0.21976000        +2.15985000        +4.31887000
C        +0.66423000        +0.72914000        +4.74358000
C        +1.34371000        +2.53582000        +3.32893000
C        +2.64342000        +2.84595000        +4.10240000
C        +3.08206000        +1.41489000        +4.53097000
C        +1.96074000        +0.53933000        +3.91326000
O        +1.64479000        +1.27541000        +2.70498000
H        +3.38190000        +3.30512000        +3.44270000
H        +2.47742000        +3.52108000        +4.94491000
H        +4.04721000        +1.14838000        +4.09562000
H        +3.15342000        +1.28999000        +5.61378000
H        +1.06998000        +3.26261000        +2.56572000
C        +2.33851000        -0.88627000        +3.58412000
H        +3.21384000        -0.91067000        +2.93037000
H        +1.51444000        -1.39674000        +3.07988000
H        +2.57677000        -1.43595000        +4.49914000
H        -0.74602000        +2.13890000        +3.81091000
H        +0.14904000        +2.85922000        +5.15464000
H        +0.84370000        +0.63297000        +5.81668000
H        -0.07699000        -0.02009000        +4.45690000
$end

$rem
JOBTYPE                   SP
METHOD                    B3LYP
DFT_D                     d3_op
BASIS                     6-311++G(d,p)
SYMMETRY                  False
THRESH                    12
SCF_CONVERGENCE           8
MAX_SUB_FILE_NUM          128
MEM_STATIC                400
MEM_TOTAL                 4000
$end
--------------------------------------------------------------

             Standard Nuclear Orientation (Angstroms)
    I     Atom           X                Y                Z
 ----------------------------------------------------------------
    1      C       1.1945462720     1.2595296860    -1.2627823511
    2      C       1.3722932371    -0.2874897980    -1.2628208466
    3      C       1.9922480085     1.6477082526     0.0011747633
    4      C       1.1966295467     1.2573163440     1.2654009942
    5      C       1.3707908269    -0.2898233597     1.2593508924
    6      C       2.2478680620    -0.5070057500    -0.0012429491
    7      O       3.0654146147     0.6901558390    -0.0005420361
    8      H       1.6468255731     1.7026079849     2.1544638613
    9      H       0.1535636279     1.5782398036     1.2184836293
   10      H       1.9029544882    -0.6329509117     2.1488097423
   11      H       0.4242110187    -0.8318609755     1.2014574954
   12      H       2.4047442149     2.6554223444     0.0018888369
   13      C       3.1159485798    -1.7438615003     0.0004123023
   14      H       3.7525553993    -1.7653171697     0.8883641270
   15      H       3.7551296684    -1.7672986767    -0.8854924320
   16      H       2.4937874496    -2.6433572920     0.0010280191
   17      H       1.6428108663     1.7086089748    -2.1508025752
   18      H       0.1509943357     1.5772881399    -1.2112059085
   19      H       0.4265847361    -0.8312551677    -1.2084479316
   20      H       1.9063028805    -0.6273511149    -2.1529141505
   21      C      -2.6804772240     0.8188114312    -1.2627260046
   22      C      -2.5027302589    -0.7282080528    -1.2627645000
   23      C      -1.8827754875     1.2069899978     0.0012311098
   24      C      -2.6783939492     0.8165980892     1.2654573407
   25      C      -2.5042326691    -0.7305416145     1.2594072389
   26      C      -1.6271554340    -0.9477240048    -0.0011866025
   27      O      -0.8096088812     0.2494375842    -0.0004856895
   28      H      -2.2281979229     1.2618897302     2.1545202078
   29      H      -3.7214598680     1.1375215488     1.2185399759
   30      H      -1.9720690078    -1.0736691665     2.1488660889
   31      H      -3.4508124773    -1.2725792303     1.2015138420
   32      H      -1.4702792810     2.2147040896     0.0019451834
   33      C      -0.7590749161    -2.1845797551     0.0004686488
   34      H      -0.1224680966    -2.2060354245     0.8884204736
   35      H      -0.1198938275    -2.2080169315    -0.8854360854
   36      H      -1.3812360464    -3.0840755468     0.0010843656
   37      H      -2.2322126296     1.2678907200    -2.1507462287
   38      H      -3.7240291603     1.1365698851    -1.2111495619
   39      H      -3.4484387598    -1.2719734224    -1.2083915851
   40      H      -1.9687206154    -1.0680693697    -2.1528578039
 ----------------------------------------------------------------

   13    -698.5555923756      7.13E-09 Convergence criterion met
 Total energy in the final basis set = -698.55559238

                    Orbital Energies (a.u.)
 --------------------------------------------------------------

 Alpha MOs
 -- Occupied --
-19.121 -19.099 -10.236 -10.229 -10.208 -10.200 -10.179 -10.179
-10.178 -10.178 -10.169 -10.151 -10.146 -10.146 -10.143 -10.143
 -1.064  -1.028  -0.814  -0.793  -0.777  -0.762  -0.757  -0.731
 -0.694  -0.665  -0.625  -0.596  -0.592  -0.573  -0.553  -0.536
 -0.514  -0.507  -0.486  -0.479  -0.461  -0.461  -0.438  -0.432
 -0.420  -0.417  -0.402  -0.401  -0.389  -0.386  -0.376  -0.372
 -0.362  -0.358  -0.351  -0.351  -0.332  -0.330  -0.326  -0.324
 -0.312  -0.309  -0.296  -0.284  -0.272  -0.241

          Ground-State Mulliken Net Atomic Charges

     Atom                 Charge (a.u.)
  ----------------------------------------
      1 C                    -0.258773
      2 C                     0.047684
      3 C                    -0.208132
      4 C                    -0.261426
      5 C                     0.051457
      6 C                    -0.468401
      7 O                    -0.034717
      8 H                     0.190477
      9 H                     0.081378
     10 H                     0.208560
     11 H                    -0.029900
     12 H                     0.222632
     13 C                    -0.516748
     14 H                     0.150776
     15 H                     0.150620
     16 H                     0.135535
     17 H                     0.190627
     18 H                     0.080357
     19 H                    -0.028828
     20 H                     0.208517
     21 C                    -0.643991
     22 C                    -0.313113
     23 C                     0.363063
     24 C                    -0.647257
     25 C                    -0.307958
     26 C                    -0.010443
     27 O                     0.025632
     28 H                     0.156151
     29 H                     0.151117
     30 H                     0.174862
     31 H                     0.151552
     32 H                     0.249044
     33 C                    -0.492835
     34 H                     0.211992
     35 H                     0.211828
     36 H                     0.174789
     37 H                     0.156639
     38 H                     0.150796
     39 H                     0.151435
     40 H                     0.175003
  ----------------------------------------
  Sum of atomic charges =     0.000000

                    Cartesian Multipole Moments
 -----------------------------------------------------------------
    Charge (ESU x 10^10)
                -0.0000
    Dipole Moment (Debye)
         X      -4.4183      Y      -0.8089      Z       0.0049
       Tot       4.4918
    Quadrupole Moments (Debye-Ang)
        XX    -107.5501     XY      -2.7430     YY     -97.4026
        XZ      -0.0029     YZ       0.0065     ZZ    -101.4912

 Total job time:  283.34s(wall), 1121.71s(cpu)
        *  Thank you very much for using Q-Chem.  Have a nice day.  *
