 Q-Chem 5.0, Q-Chem, Inc., Pleasanton, CA (2017)
 Q-Chem 5.0.1 for Intel X86 EM64T Linux

User input:
--------------------------------------------------------------
$molecule
0  1
--
0  1
C        +0.22270000        +1.04488000        +0.58595000
C        +0.62626000        -0.41353000        +0.99871000
C        +1.33008000        +1.39974000        -0.43491000
C        +2.63070000        +1.71700000        +0.32855000
C        +3.04336000        +0.29351000        +0.80300000
C        +1.94423000        -0.59299000        +0.15262000
O        +1.62840000        +0.13663000        -1.04376000
H        +3.37234000        +2.13782000        -0.35195000
H        +2.48236000        +2.42488000        +1.14651000
H        +4.02182000        +0.00994000        +0.41161000
H        +3.07359000        +0.18738000        +1.88928000
C        +0.90028000        +2.39077000        -1.49430000
C        +2.35450000        -2.01267000        -0.16812000
H        +3.26311000        -2.00678000        -0.77366000
H        +2.54990000        -2.57059000        +0.75079000
H        +1.57335000        -2.52896000        -0.72872000
H        +1.71845000        +2.58186000        -2.15686000
H        +0.59919000        +3.30478000        -1.02650000
H        +0.07925000        +1.98653000        -2.04874000
H        +0.81693000        -0.48905000        +2.04887000
H        -0.12524000        -1.15356000        +0.81843000
H        -0.74673000        +1.06811000        +0.13365000
H        +0.15552000        +1.72617000        +1.40828000
--
0  1
C        +4.05062000        +3.09089000        +3.26380000
C        +4.45418000        +1.63248000        +3.67656000
C        +5.15800000        +3.44575000        +2.24294000
C        +6.45862000        +3.76301000        +3.00640000
C        +6.87128000        +2.33952000        +3.48085000
C        +5.77215000        +1.45302000        +2.83047000
O        +5.45632000        +2.18264000        +1.63409000
H        +7.20026000        +4.18383000        +2.32590000
H        +6.31028000        +4.47089000        +3.82436000
H        +7.84974000        +2.05595000        +3.08946000
H        +6.90151000        +2.23339000        +4.56713000
C        +4.72820000        +4.43678000        +1.18355000
C        +6.18242000        +0.03334000        +2.50973000
H        +7.09103000        +0.03923000        +1.90419000
H        +6.37782000        -0.52458000        +3.42864000
H        +5.40127000        -0.48295000        +1.94913000
H        +5.54637000        +4.62787000        +0.52099000
H        +4.42711000        +5.35079000        +1.65135000
H        +3.90717000        +4.03254000        +0.62911000
H        +4.64485000        +1.55696000        +4.72672000
H        +3.70268000        +0.89245000        +3.49628000
H        +3.08119000        +3.11412000        +2.81150000
H        +3.98344000        +3.77218000        +4.08613000
$end

$rem
JOBTYPE                   SP
METHOD                    B3LYP
DFT_D                     d3_op
BASIS                     6-311++G(d,p)
SYMMETRY                  False
THRESH                    12
SCF_CONVERGENCE           8
MAX_SUB_FILE_NUM          128
MEM_STATIC                400
MEM_TOTAL                 4000
$end
--------------------------------------------------------------

             Standard Nuclear Orientation (Angstroms)
    I     Atom           X                Y                Z
 ----------------------------------------------------------------
    1      C       3.0596868415    -0.8061914332     1.3117838979
    2      C       3.1254252797     0.7607412376     1.3361084151
    3      C       2.6005972254    -1.0783780076    -0.1406356065
    4      C       1.0943717586    -0.7726261825    -0.2543814999
    5      C       1.1075688429     0.7818763594    -0.1832299551
    6      C       2.6307063048     1.0877656205    -0.1245172349
    7      O       3.1921979886     0.0003049439    -0.8765647092
    8      H       0.7119348431    -1.1215981647    -1.2146732125
    9      H       0.5039130743    -1.2417039075     0.5352272903
   10      H       0.6790157464     1.2266537269    -1.0829506814
   11      H       0.5697763505     1.1837840421     0.6778339902
   12      C       3.0736732710    -2.4016736119    -0.7012276788
   13      C       3.0521768276     2.4215334424    -0.6990717742
   14      H       2.6706370441     2.5223627720    -1.7171809804
   15      H       2.6557371079     3.2404357572    -0.0940213449
   16      H       4.1396009298     2.5080893060    -0.7313200448
   17      H       2.7159052095    -2.5127735318    -1.7035061394
   18      H       2.6963152503    -3.2002431589    -0.0972459647
   19      H       4.1433535237    -2.4278405489    -0.6993835960
   20      H       2.4720949197     1.1726838168     2.0766197905
   21      H       4.0847891156     1.1643804503     1.5842896907
   22      H       4.0184861020    -1.2398644106     1.5055393484
   23      H       2.4160112911    -1.2255387608     2.0565828306
   24      C      -2.0397529449    -0.8064643329     1.3874334784
   25      C      -1.9740145068     0.7604683380     1.4117579955
   26      C      -2.4988425610    -1.0786509072    -0.0649860260
   27      C      -4.0050680278    -0.7728990822    -0.1787319195
   28      C      -3.9918709435     0.7816034597    -0.1075803746
   29      C      -2.4687334817     1.0874927209    -0.0488676545
   30      O      -1.9072417979     0.0000320443    -0.8009151287
   31      H      -4.3875049433    -1.1218710644    -1.1390236321
   32      H      -4.5955267121    -1.2419768072     0.6108768707
   33      H      -4.4204240401     1.2263808272    -1.0073011010
   34      H      -4.5296634359     1.1835111425     0.7534835707
   35      C      -2.0257665154    -2.4019465116    -0.6255780984
   36      C      -2.0472629589     2.4212605428    -0.6234221938
   37      H      -2.4288027423     2.5220898723    -1.6415314000
   38      H      -2.4437026785     3.2401628576    -0.0183717644
   39      H      -0.9598388566     2.5078164063    -0.6556704643
   40      H      -2.3835345769    -2.5130464314    -1.6278565590
   41      H      -2.4031245361    -3.2005160586    -0.0215963843
   42      H      -0.9560862628    -2.4281134485    -0.6237340156
   43      H      -2.6273448668     1.1724109171     2.1522693709
   44      H      -1.0146506708     1.1641075507     1.6599392711
   45      H      -1.0809536845    -1.2401373103     1.5811889288
   46      H      -2.6834284954    -1.2258116604     2.1322324110
 ----------------------------------------------------------------

   13    -777.2647353915      5.77E-09 Convergence criterion met
 Total energy in the final basis set = -777.26473539

                    Orbital Energies (a.u.)
 --------------------------------------------------------------

 Alpha MOs
 -- Occupied --
-19.117 -19.109 -10.228 -10.224 -10.218 -10.214 -10.168 -10.168
-10.166 -10.165 -10.161 -10.158 -10.157 -10.157 -10.156 -10.156
-10.153 -10.147  -1.052  -1.043  -0.803  -0.794  -0.792  -0.784
 -0.753  -0.742  -0.720  -0.713  -0.655  -0.648  -0.621  -0.610
 -0.566  -0.562  -0.558  -0.548  -0.492  -0.484  -0.475  -0.469
 -0.469  -0.457  -0.449  -0.439  -0.424  -0.416  -0.413  -0.413
 -0.407  -0.404  -0.400  -0.392  -0.390  -0.377  -0.363  -0.356
 -0.351  -0.348  -0.345  -0.341  -0.340  -0.334  -0.333  -0.326
 -0.318  -0.310  -0.300  -0.292  -0.266  -0.253

          Ground-State Mulliken Net Atomic Charges

     Atom                 Charge (a.u.)
  ----------------------------------------
      1 C                    -0.425546
      2 C                    -0.468638
      3 C                    -0.098767
      4 C                    -0.185143
      5 C                    -0.125144
      6 C                    -0.129276
      7 O                     0.047755
      8 H                     0.204327
      9 H                    -0.045658
     10 H                     0.179343
     11 H                    -0.015385
     12 C                    -0.293695
     13 C                    -0.300812
     14 H                     0.152904
     15 H                     0.151796
     16 H                     0.159773
     17 H                     0.141943
     18 H                     0.147935
     19 H                     0.158409
     20 H                     0.128160
     21 H                     0.173201
     22 H                     0.160653
     23 H                     0.140264
     24 C                    -0.306282
     25 C                    -0.323985
     26 C                     0.051178
     27 C                    -0.577851
     28 C                    -0.527391
     29 C                     0.092834
     30 O                     0.085075
     31 H                     0.157148
     32 H                     0.138176
     33 H                     0.160448
     34 H                     0.135704
     35 C                    -0.195144
     36 C                    -0.282303
     37 H                     0.157680
     38 H                     0.148922
     39 H                     0.138276
     40 H                     0.154098
     41 H                     0.146104
     42 H                     0.128237
     43 H                     0.170352
     44 H                     0.163833
     45 H                     0.142451
     46 H                     0.184039
  ----------------------------------------
  Sum of atomic charges =     0.000000

                    Cartesian Multipole Moments
 -----------------------------------------------------------------
    Charge (ESU x 10^10)
                 0.0000
    Dipole Moment (Debye)
         X      -2.1792      Y       0.0218      Z       2.2938
       Tot       3.1640
    Quadrupole Moments (Debye-Ang)
        XX    -116.4755     XY       0.1903     YY    -109.9712
        XZ       2.5801     YZ      -0.2195     ZZ    -116.2976

 Total job time:  313.45s(wall), 1241.39s(cpu)
        *  Thank you very much for using Q-Chem.  Have a nice day.  *
