 Q-Chem 5.0, Q-Chem, Inc., Pleasanton, CA (2017)
 Q-Chem 5.0.1 for Intel X86 EM64T Linux

User input:
--------------------------------------------------------------
$molecule
0  1
C        +3.14993000        +2.60947000        +2.63372000
C        +3.55349000        +1.15106000        +3.04648000
C        +4.25731000        +2.96433000        +1.61286000
C        +5.55793000        +3.28159000        +2.37632000
C        +5.97059000        +1.85810000        +2.85077000
C        +4.87146000        +0.97160000        +2.20039000
O        +4.55563000        +1.70122000        +1.00401000
H        +6.29957000        +3.70241000        +1.69582000
H        +5.40959000        +3.98947000        +3.19428000
H        +6.94905000        +1.57453000        +2.45938000
H        +6.00082000        +1.75197000        +3.93705000
C        +3.82751000        +3.95536000        +0.55347000
C        +5.28173000        -0.44808000        +1.87965000
H        +6.19034000        -0.44219000        +1.27411000
H        +5.47713000        -1.00600000        +2.79856000
H        +4.50058000        -0.96437000        +1.31905000
H        +4.64568000        +4.14645000        -0.10909000
H        +3.52642000        +4.86937000        +1.02127000
H        +3.00648000        +3.55112000        -0.00097000
H        +3.74416000        +1.07554000        +4.09664000
H        +2.80199000        +0.41103000        +2.86620000
H        +2.18050000        +2.63270000        +2.18142000
H        +3.08275000        +3.29076000        +3.45605000
@C        +0.22270000        +1.04488000        +0.58595000
@C        +0.62626000        -0.41353000        +0.99871000
@C        +1.33008000        +1.39974000        -0.43491000
@C        +2.63070000        +1.71700000        +0.32855000
@C        +3.04336000        +0.29351000        +0.80300000
@C        +1.94423000        -0.59299000        +0.15262000
@O        +1.62840000        +0.13663000        -1.04376000
@H        +3.37234000        +2.13782000        -0.35195000
@H        +2.48236000        +2.42488000        +1.14651000
@H        +4.02182000        +0.00994000        +0.41161000
@H        +3.07359000        +0.18738000        +1.88928000
@C        +0.90028000        +2.39077000        -1.49430000
@C        +2.35450000        -2.01267000        -0.16812000
@H        +3.26311000        -2.00678000        -0.77366000
@H        +2.54990000        -2.57059000        +0.75079000
@H        +1.57335000        -2.52896000        -0.72872000
@H        +1.71845000        +2.58186000        -2.15686000
@H        +0.59919000        +3.30478000        -1.02650000
@H        +0.07925000        +1.98653000        -2.04874000
@H        +0.81693000        -0.48905000        +2.04887000
@H        -0.12524000        -1.15356000        +0.81843000
@H        -0.74673000        +1.06811000        +0.13365000
@H        +0.15552000        +1.72617000        +1.40828000
$end

$rem
JOBTYPE                   SP
METHOD                    B3LYP
DFT_D                     d3_op
BASIS                     6-311++G(d,p)
SYMMETRY                  False
THRESH                    12
SCF_CONVERGENCE           8
MAX_SUB_FILE_NUM          128
MEM_STATIC                400
MEM_TOTAL                 4000
$end
--------------------------------------------------------------

             Standard Nuclear Orientation (Angstroms)
    I     Atom           X                Y                Z
 ----------------------------------------------------------------
    1      C       3.1499300000     2.6094700000     2.6337200000
    2      C       3.5534900000     1.1510600000     3.0464800000
    3      C       4.2573100000     2.9643300000     1.6128600000
    4      C       5.5579300000     3.2815900000     2.3763200000
    5      C       5.9705900000     1.8581000000     2.8507700000
    6      C       4.8714600000     0.9716000000     2.2003900000
    7      O       4.5556300000     1.7012200000     1.0040100000
    8      H       6.2995700000     3.7024100000     1.6958200000
    9      H       5.4095900000     3.9894700000     3.1942800000
   10      H       6.9490500000     1.5745300000     2.4593800000
   11      H       6.0008200000     1.7519700000     3.9370500000
   12      C       3.8275100000     3.9553600000     0.5534700000
   13      C       5.2817300000    -0.4480800000     1.8796500000
   14      H       6.1903400000    -0.4421900000     1.2741100000
   15      H       5.4771300000    -1.0060000000     2.7985600000
   16      H       4.5005800000    -0.9643700000     1.3190500000
   17      H       4.6456800000     4.1464500000    -0.1090900000
   18      H       3.5264200000     4.8693700000     1.0212700000
   19      H       3.0064800000     3.5511200000    -0.0009700000
   20      H       3.7441600000     1.0755400000     4.0966400000
   21      H       2.8019900000     0.4110300000     2.8662000000
   22      H       2.1805000000     2.6327000000     2.1814200000
   23      H       3.0827500000     3.2907600000     3.4560500000
   24      GH      0.2227000000     1.0448800000     0.5859500000
   25      GH      0.6262600000    -0.4135300000     0.9987100000
   26      GH      1.3300800000     1.3997400000    -0.4349100000
   27      GH      2.6307000000     1.7170000000     0.3285500000
   28      GH      3.0433600000     0.2935100000     0.8030000000
   29      GH      1.9442300000    -0.5929900000     0.1526200000
   30      GH      1.6284000000     0.1366300000    -1.0437600000
   31      GH      3.3723400000     2.1378200000    -0.3519500000
   32      GH      2.4823600000     2.4248800000     1.1465100000
   33      GH      4.0218200000     0.0099400000     0.4116100000
   34      GH      3.0735900000     0.1873800000     1.8892800000
   35      GH      0.9002800000     2.3907700000    -1.4943000000
   36      GH      2.3545000000    -2.0126700000    -0.1681200000
   37      GH      3.2631100000    -2.0067800000    -0.7736600000
   38      GH      2.5499000000    -2.5705900000     0.7507900000
   39      GH      1.5733500000    -2.5289600000    -0.7287200000
   40      GH      1.7184500000     2.5818600000    -2.1568600000
   41      GH      0.5991900000     3.3047800000    -1.0265000000
   42      GH      0.0792500000     1.9865300000    -2.0487400000
   43      GH      0.8169300000    -0.4890500000     2.0488700000
   44      GH     -0.1252400000    -1.1535600000     0.8184300000
   45      GH     -0.7467300000     1.0681100000     0.1336500000
   46      GH      0.1555200000     1.7261700000     1.4082800000
 ----------------------------------------------------------------

   12    -388.6346302792      7.06E-09 Convergence criterion met
 Total energy in the final basis set = -388.63463028

                    Orbital Energies (a.u.)
 --------------------------------------------------------------

 Alpha MOs
 -- Occupied --
-19.115 -10.224 -10.221 -10.166 -10.165 -10.162 -10.161 -10.160
-10.151  -1.048  -0.799  -0.788  -0.748  -0.717  -0.652  -0.616
 -0.562  -0.555  -0.486  -0.474  -0.464  -0.444  -0.420  -0.410
 -0.406  -0.402  -0.383  -0.360  -0.346  -0.343  -0.340  -0.333
 -0.316  -0.299  -0.261

          Ground-State Mulliken Net Atomic Charges

     Atom                 Charge (a.u.)
  ----------------------------------------
      1 C                    -0.403516
      2 C                    -0.395992
      3 C                     0.287936
      4 C                    -0.383052
      5 C                    -0.415454
      6 C                     0.309053
      7 O                     0.077881
      8 H                     0.150100
      9 H                     0.137215
     10 H                     0.159318
     11 H                     0.130740
     12 C                    -0.440045
     13 C                    -0.445978
     14 H                     0.147742
     15 H                     0.160049
     16 H                     0.097677
     17 H                     0.150899
     18 H                     0.156817
     19 H                     0.085675
     20 H                     0.198296
     21 H                     0.145417
     22 H                     0.166352
     23 H                     0.201096
     24 GH                   -0.028416
     25 GH                   -0.028485
     26 GH                   -0.121157
     27 GH                   -0.018098
     28 GH                   -0.063663
     29 GH                   -0.121714
     30 GH                   -0.012203
     31 GH                    0.021828
     32 GH                   -0.051189
     33 GH                    0.065459
     34 GH                    0.045511
     35 GH                    0.030939
     36 GH                    0.001159
     37 GH                   -0.002188
     38 GH                    0.004759
     39 GH                    0.000333
     40 GH                   -0.001631
     41 GH                    0.005747
     42 GH                   -0.000064
     43 GH                   -0.001761
     44 GH                   -0.001274
     45 GH                   -0.001084
     46 GH                   -0.001032
  ----------------------------------------
  Sum of atomic charges =     0.000000

                    Cartesian Multipole Moments
 -----------------------------------------------------------------
    Charge (ESU x 10^10)
                 0.0000
    Dipole Moment (Debye)
         X      -0.0381      Y       0.4250      Z       1.4893
       Tot       1.5492
    Quadrupole Moments (Debye-Ang)
        XX     -56.7121     XY       1.3358     YY     -53.4970
        XZ       6.6730     YZ       2.7309     ZZ     -52.9617

 Total job time:  370.75s(wall), 1467.90s(cpu)
        *  Thank you very much for using Q-Chem.  Have a nice day.  *
