 Q-Chem 5.0, Q-Chem, Inc., Pleasanton, CA (2017)
 Q-Chem 5.0.1 for Intel X86 EM64T Linux

User input:
--------------------------------------------------------------
$molecule
0  1
--
0  1
C        +0.22270000        +1.04488000        +0.58595000
C        +0.62626000        -0.41353000        +0.99871000
C        +1.33008000        +1.39974000        -0.43491000
C        +2.63070000        +1.71700000        +0.32855000
C        +3.04336000        +0.29351000        +0.80300000
C        +1.94423000        -0.59299000        +0.15262000
O        +1.62840000        +0.13663000        -1.04376000
H        +3.37234000        +2.13782000        -0.35195000
H        +2.48236000        +2.42488000        +1.14651000
H        +4.02182000        +0.00994000        +0.41161000
H        +3.07359000        +0.18738000        +1.88928000
C        +0.90028000        +2.39077000        -1.49430000
C        +2.35450000        -2.01267000        -0.16812000
H        +3.26311000        -2.00678000        -0.77366000
H        +2.54990000        -2.57059000        +0.75079000
H        +1.57335000        -2.52896000        -0.72872000
H        +1.71845000        +2.58186000        -2.15686000
H        +0.59919000        +3.30478000        -1.02650000
H        +0.07925000        +1.98653000        -2.04874000
H        +0.81693000        -0.48905000        +2.04887000
H        -0.12524000        -1.15356000        +0.81843000
H        -0.74673000        +1.06811000        +0.13365000
H        +0.15552000        +1.72617000        +1.40828000
--
0  1
C        +3.14993000        +2.60947000        +2.63372000
C        +3.55349000        +1.15106000        +3.04648000
C        +4.25731000        +2.96433000        +1.61286000
C        +5.55793000        +3.28159000        +2.37632000
C        +5.97059000        +1.85810000        +2.85077000
C        +4.87146000        +0.97160000        +2.20039000
O        +4.55563000        +1.70122000        +1.00401000
H        +6.29957000        +3.70241000        +1.69582000
H        +5.40959000        +3.98947000        +3.19428000
H        +6.94905000        +1.57453000        +2.45938000
H        +6.00082000        +1.75197000        +3.93705000
C        +3.82751000        +3.95536000        +0.55347000
C        +5.28173000        -0.44808000        +1.87965000
H        +6.19034000        -0.44219000        +1.27411000
H        +5.47713000        -1.00600000        +2.79856000
H        +4.50058000        -0.96437000        +1.31905000
H        +4.64568000        +4.14645000        -0.10909000
H        +3.52642000        +4.86937000        +1.02127000
H        +3.00648000        +3.55112000        -0.00097000
H        +3.74416000        +1.07554000        +4.09664000
H        +2.80199000        +0.41103000        +2.86620000
H        +2.18050000        +2.63270000        +2.18142000
H        +3.08275000        +3.29076000        +3.45605000
$end

$rem
JOBTYPE                   SP
METHOD                    B3LYP
DFT_D                     d3_op
BASIS                     6-311++G(d,p)
SYMMETRY                  False
THRESH                    12
SCF_CONVERGENCE           8
MAX_SUB_FILE_NUM          128
MEM_STATIC                400
MEM_TOTAL                 4000
$end
--------------------------------------------------------------

             Standard Nuclear Orientation (Angstroms)
    I     Atom           X                Y                Z
 ----------------------------------------------------------------
    1      C       2.4734461060    -0.8060708605     1.2949484194
    2      C       2.5393386149     0.7608659199     1.3185815040
    3      C       1.9992442139    -1.0782904296    -0.1526013363
    4      C       0.4918951965    -0.7726313554    -0.2506265049
    5      C       0.5057385487     0.7818722301    -0.1796207125
    6      C       2.0293869175     1.0878550946    -0.1368038218
    7      O       2.5830681976     0.0004263475    -0.8946658131
    8      H       0.0994812092    -1.1216299910    -1.2068748131
    9      H      -0.0902641021    -1.2417426582     0.5451011798
   10      H       0.0677941615     1.2266203164    -1.0748223111
   11      H      -0.0230653317     1.1837498013     0.6870063942
   12      C       2.4665267083    -2.4015588880    -0.7180952182
   13      C       2.4447579882     2.4216468461    -0.7157281348
   14      H       2.0526102407     2.5224493836    -1.7298013611
   15      H       2.0546024573     3.2405268639    -0.1065765504
   16      H       3.5317811218     2.5082692896    -0.7593206333
   17      H       2.0983275638    -2.5126840889    -1.7165860146
   18      H       2.0955399314    -3.2001495623    -0.1102070258
   19      H       3.5361695805    -2.4276602193    -0.7274117832
   20      H       1.8937447428     1.1727709003     2.0658680517
   21      H       3.5012148876     1.1645647932     1.5567385634
   22      H       3.4342413522    -1.2396843918     1.4786907616
   23      H       1.8376022586    -1.2254551789     2.0464237953
   24      C      -1.4253062202    -0.8065133571     1.3934847932
   25      C      -1.3594137113     0.7604234233     1.4171178777
   26      C      -1.8995081123    -1.0787329263    -0.0540649625
   27      C      -3.4068571297    -0.7730738520    -0.1520901312
   28      C      -3.3930137775     0.7814297335    -0.0810843387
   29      C      -1.8693654087     1.0874125980    -0.0382674481
   30      O      -1.3156841286    -0.0000161491    -0.7961294393
   31      H      -3.7992711171    -1.1220724876    -1.1083384393
   32      H      -3.9890164283    -1.2421851548     0.6436375535
   33      H      -3.8309581647     1.2261778197    -0.9762859373
   34      H      -3.9218176579     1.1833073047     0.7855427680
   35      C      -1.4322256180    -2.4020013847    -0.6195588445
   36      C      -1.4539943380     2.4212043495    -0.6171917610
   37      H      -1.8461420856     2.5220068870    -1.6312649873
   38      H      -1.8441498689     3.2400843673    -0.0080401766
   39      H      -0.3669712045     2.5078267930    -0.6607842595
   40      H      -1.8004247624    -2.5131265855    -1.6180496408
   41      H      -1.8032123948    -3.2005920590    -0.0116706520
   42      H      -0.3625827457    -2.4281027160    -0.6288754095
   43      H      -2.0050075834     1.1723284036     2.1644044255
   44      H      -0.3975374386     1.1641222966     1.6552749371
   45      H      -0.4645109741    -1.2401268884     1.5772271354
   46      H      -2.0611500676    -1.2258976756     2.1449601691
 ----------------------------------------------------------------

   13    -776.9647345412      9.10E-09 Convergence criterion met
 Total energy in the final basis set = -776.96473454

                    Orbital Energies (a.u.)
 --------------------------------------------------------------

 Alpha MOs
 -- Occupied --
-19.122 -19.092 -10.239 -10.235 -10.197 -10.193 -10.180 -10.179
-10.178 -10.178 -10.162 -10.152 -10.151 -10.149 -10.147 -10.139
-10.116 -10.111  -1.081  -1.025  -0.829  -0.823  -0.803  -0.771
 -0.767  -0.743  -0.716  -0.704  -0.681  -0.665  -0.632  -0.602
 -0.585  -0.580  -0.553  -0.550  -0.536  -0.497  -0.488  -0.468
 -0.463  -0.457  -0.449  -0.443  -0.441  -0.435  -0.419  -0.414
 -0.412  -0.396  -0.388  -0.383  -0.375  -0.374  -0.371  -0.361
 -0.355  -0.350  -0.344  -0.343  -0.332  -0.325  -0.323  -0.321
 -0.293  -0.289  -0.267  -0.259  -0.252  -0.217

          Ground-State Mulliken Net Atomic Charges

     Atom                 Charge (a.u.)
  ----------------------------------------
      1 C                    -0.254065
      2 C                    -0.310102
      3 C                    -0.292518
      4 C                    -0.426842
      5 C                    -0.416661
      6 C                    -0.277961
      7 O                     0.106479
      8 H                     0.196288
      9 H                     0.049781
     10 H                     0.194893
     11 H                     0.141564
     12 C                    -0.324873
     13 C                    -0.415087
     14 H                     0.152601
     15 H                     0.154168
     16 H                     0.163628
     17 H                     0.144906
     18 H                     0.149418
     19 H                     0.161795
     20 H                     0.110671
     21 H                     0.174501
     22 H                     0.160981
     23 H                     0.124605
     24 C                    -0.355087
     25 C                    -0.328636
     26 C                     0.102745
     27 C                    -0.395714
     28 C                    -0.439553
     29 C                     0.156604
     30 O                     0.274886
     31 H                     0.158833
     32 H                     0.139839
     33 H                     0.167476
     34 H                     0.134057
     35 C                    -0.418138
     36 C                    -0.415493
     37 H                     0.163192
     38 H                     0.155503
     39 H                     0.192039
     40 H                     0.163939
     41 H                     0.152554
     42 H                     0.190375
     43 H                     0.206284
     44 H                     0.147876
     45 H                     0.168226
     46 H                     0.210024
  ----------------------------------------
  Sum of atomic charges =     0.000000

                    Cartesian Multipole Moments
 -----------------------------------------------------------------
    Charge (ESU x 10^10)
                 0.0000
    Dipole Moment (Debye)
         X      -3.6045      Y       0.0617      Z       2.4024
       Tot       4.3322
    Quadrupole Moments (Debye-Ang)
        XX    -118.3400     XY       0.1298     YY    -111.1100
        XZ       3.0565     YZ      -0.2437     ZZ    -116.3938

 Total job time:  425.08s(wall), 1685.50s(cpu)
        *  Thank you very much for using Q-Chem.  Have a nice day.  *
