 Q-Chem 5.0, Q-Chem, Inc., Pleasanton, CA (2017)
 Q-Chem 5.0.1 for Intel X86 EM64T Linux

User input:
--------------------------------------------------------------
$molecule
0  1
C        +0.22270000        +1.04488000        +0.58595000
C        +0.62626000        -0.41353000        +0.99871000
C        +1.33008000        +1.39974000        -0.43491000
C        +2.63070000        +1.71700000        +0.32855000
C        +3.04336000        +0.29351000        +0.80300000
C        +1.94423000        -0.59299000        +0.15262000
O        +1.62840000        +0.13663000        -1.04376000
H        +3.37234000        +2.13782000        -0.35195000
H        +2.48236000        +2.42488000        +1.14651000
H        +4.02182000        +0.00994000        +0.41161000
H        +3.07359000        +0.18738000        +1.88928000
C        +0.90028000        +2.39077000        -1.49430000
C        +2.35450000        -2.01267000        -0.16812000
H        +3.26311000        -2.00678000        -0.77366000
H        +2.54990000        -2.57059000        +0.75079000
H        +1.57335000        -2.52896000        -0.72872000
H        +1.71845000        +2.58186000        -2.15686000
H        +0.59919000        +3.30478000        -1.02650000
H        +0.07925000        +1.98653000        -2.04874000
H        +0.81693000        -0.48905000        +2.04887000
H        -0.12524000        -1.15356000        +0.81843000
H        -0.74673000        +1.06811000        +0.13365000
H        +0.15552000        +1.72617000        +1.40828000
@C        +4.05062000        +3.09089000        +3.26380000
@C        +4.45418000        +1.63248000        +3.67656000
@C        +5.15800000        +3.44575000        +2.24294000
@C        +6.45862000        +3.76301000        +3.00640000
@C        +6.87128000        +2.33952000        +3.48085000
@C        +5.77215000        +1.45302000        +2.83047000
@O        +5.45632000        +2.18264000        +1.63409000
@H        +7.20026000        +4.18383000        +2.32590000
@H        +6.31028000        +4.47089000        +3.82436000
@H        +7.84974000        +2.05595000        +3.08946000
@H        +6.90151000        +2.23339000        +4.56713000
@C        +4.72820000        +4.43678000        +1.18355000
@C        +6.18242000        +0.03334000        +2.50973000
@H        +7.09103000        +0.03923000        +1.90419000
@H        +6.37782000        -0.52458000        +3.42864000
@H        +5.40127000        -0.48295000        +1.94913000
@H        +5.54637000        +4.62787000        +0.52099000
@H        +4.42711000        +5.35079000        +1.65135000
@H        +3.90717000        +4.03254000        +0.62911000
@H        +4.64485000        +1.55696000        +4.72672000
@H        +3.70268000        +0.89245000        +3.49628000
@H        +3.08119000        +3.11412000        +2.81150000
@H        +3.98344000        +3.77218000        +4.08613000
$end

$rem
JOBTYPE                   SP
METHOD                    B3LYP
DFT_D                     d3_op
BASIS                     6-311++G(d,p)
SYMMETRY                  False
THRESH                    12
SCF_CONVERGENCE           8
MAX_SUB_FILE_NUM          128
MEM_STATIC                400
MEM_TOTAL                 4000
$end
--------------------------------------------------------------

             Standard Nuclear Orientation (Angstroms)
    I     Atom           X                Y                Z
 ----------------------------------------------------------------
    1      C       0.2227000000     1.0448800000     0.5859500000
    2      C       0.6262600000    -0.4135300000     0.9987100000
    3      C       1.3300800000     1.3997400000    -0.4349100000
    4      C       2.6307000000     1.7170000000     0.3285500000
    5      C       3.0433600000     0.2935100000     0.8030000000
    6      C       1.9442300000    -0.5929900000     0.1526200000
    7      O       1.6284000000     0.1366300000    -1.0437600000
    8      H       3.3723400000     2.1378200000    -0.3519500000
    9      H       2.4823600000     2.4248800000     1.1465100000
   10      H       4.0218200000     0.0099400000     0.4116100000
   11      H       3.0735900000     0.1873800000     1.8892800000
   12      C       0.9002800000     2.3907700000    -1.4943000000
   13      C       2.3545000000    -2.0126700000    -0.1681200000
   14      H       3.2631100000    -2.0067800000    -0.7736600000
   15      H       2.5499000000    -2.5705900000     0.7507900000
   16      H       1.5733500000    -2.5289600000    -0.7287200000
   17      H       1.7184500000     2.5818600000    -2.1568600000
   18      H       0.5991900000     3.3047800000    -1.0265000000
   19      H       0.0792500000     1.9865300000    -2.0487400000
   20      H       0.8169300000    -0.4890500000     2.0488700000
   21      H      -0.1252400000    -1.1535600000     0.8184300000
   22      H      -0.7467300000     1.0681100000     0.1336500000
   23      H       0.1555200000     1.7261700000     1.4082800000
   24      GH      4.0506200000     3.0908900000     3.2638000000
   25      GH      4.4541800000     1.6324800000     3.6765600000
   26      GH      5.1580000000     3.4457500000     2.2429400000
   27      GH      6.4586200000     3.7630100000     3.0064000000
   28      GH      6.8712800000     2.3395200000     3.4808500000
   29      GH      5.7721500000     1.4530200000     2.8304700000
   30      GH      5.4563200000     2.1826400000     1.6340900000
   31      GH      7.2002600000     4.1838300000     2.3259000000
   32      GH      6.3102800000     4.4708900000     3.8243600000
   33      GH      7.8497400000     2.0559500000     3.0894600000
   34      GH      6.9015100000     2.2333900000     4.5671300000
   35      GH      4.7282000000     4.4367800000     1.1835500000
   36      GH      6.1824200000     0.0333400000     2.5097300000
   37      GH      7.0910300000     0.0392300000     1.9041900000
   38      GH      6.3778200000    -0.5245800000     3.4286400000
   39      GH      5.4012700000    -0.4829500000     1.9491300000
   40      GH      5.5463700000     4.6278700000     0.5209900000
   41      GH      4.4271100000     5.3507900000     1.6513500000
   42      GH      3.9071700000     4.0325400000     0.6291100000
   43      GH      4.6448500000     1.5569600000     4.7267200000
   44      GH      3.7026800000     0.8924500000     3.4962800000
   45      GH      3.0811900000     3.1141200000     2.8115000000
   46      GH      3.9834400000     3.7721800000     4.0861300000
 ----------------------------------------------------------------

   12    -388.6332970996      6.97E-09 Convergence criterion met
 Total energy in the final basis set = -388.63329710

                    Orbital Energies (a.u.)
 --------------------------------------------------------------

 Alpha MOs
 -- Occupied --
-19.115 -10.224 -10.221 -10.166 -10.165 -10.162 -10.161 -10.160
-10.151  -1.049  -0.799  -0.789  -0.749  -0.717  -0.652  -0.616
 -0.562  -0.556  -0.486  -0.474  -0.464  -0.444  -0.420  -0.410
 -0.407  -0.402  -0.384  -0.360  -0.346  -0.343  -0.340  -0.333
 -0.316  -0.299  -0.261

          Ground-State Mulliken Net Atomic Charges

     Atom                 Charge (a.u.)
  ----------------------------------------
      1 C                    -0.417493
      2 C                    -0.460662
      3 C                    -0.067312
      4 C                    -0.261080
      5 C                    -0.180572
      6 C                    -0.077614
      7 O                     0.050924
      8 H                     0.191608
      9 H                     0.038531
     10 H                     0.180065
     11 H                     0.043102
     12 C                    -0.302586
     13 C                    -0.317972
     14 H                     0.149916
     15 H                     0.153944
     16 H                     0.161196
     17 H                     0.139454
     18 H                     0.149893
     19 H                     0.159728
     20 H                     0.133538
     21 H                     0.175989
     22 H                     0.163505
     23 H                     0.143051
     24 GH                    0.035732
     25 GH                    0.034616
     26 GH                   -0.025479
     27 GH                   -0.004566
     28 GH                   -0.010509
     29 GH                   -0.012984
     30 GH                    0.016562
     31 GH                   -0.000445
     32 GH                   -0.000030
     33 GH                   -0.000341
     34 GH                   -0.000082
     35 GH                   -0.017206
     36 GH                   -0.020943
     37 GH                    0.001803
     38 GH                   -0.000798
     39 GH                    0.014397
     40 GH                    0.001727
     41 GH                   -0.001051
     42 GH                    0.018257
     43 GH                   -0.000613
     44 GH                    0.012219
     45 GH                    0.010911
     46 GH                   -0.000333
  ----------------------------------------
  Sum of atomic charges =    -0.000000

                    Cartesian Multipole Moments
 -----------------------------------------------------------------
    Charge (ESU x 10^10)
                -0.0000
    Dipole Moment (Debye)
         X      -0.0319      Y       0.4297      Z       1.5052
       Tot       1.5657
    Quadrupole Moments (Debye-Ang)
        XX     -56.4662     XY       0.1489     YY     -54.7982
        XZ       2.4029     YZ      -0.4866     ZZ     -59.0999

 Total job time:  295.02s(wall), 1166.54s(cpu)
        *  Thank you very much for using Q-Chem.  Have a nice day.  *
