 Q-Chem 5.0, Q-Chem, Inc., Pleasanton, CA (2017)
 Q-Chem 5.0.1 for Intel X86 EM64T Linux

User input:
--------------------------------------------------------------
$molecule
0  1
C        +7.72842000        +5.05666000        +5.83664000
C        +8.13198000        +3.59825000        +6.24940000
C        +8.83580000        +5.41152000        +4.81578000
C       +10.13642000        +5.72878000        +5.57924000
C       +10.54908000        +4.30529000        +6.05369000
C        +9.44995000        +3.41879000        +5.40331000
O        +9.13412000        +4.14841000        +4.20693000
H       +10.87806000        +6.14960000        +4.89874000
H        +9.98808000        +6.43666000        +6.39720000
H       +11.52754000        +4.02172000        +5.66230000
H       +10.57931000        +4.19916000        +7.13997000
C        +8.40600000        +6.40255000        +3.75639000
C        +9.86022000        +1.99911000        +5.08257000
H       +10.76883000        +2.00500000        +4.47703000
H       +10.05562000        +1.44119000        +6.00148000
H        +9.07907000        +1.48282000        +4.52197000
H        +9.22417000        +6.59364000        +3.09383000
H        +8.10491000        +7.31656000        +4.22419000
H        +7.58497000        +5.99831000        +3.20195000
H        +8.32265000        +3.52273000        +7.29956000
H        +7.38048000        +2.85822000        +6.06912000
H        +6.75899000        +5.07989000        +5.38434000
H        +7.66124000        +5.73795000        +6.65897000
@C        +0.22270000        +1.04488000        +0.58595000
@C        +0.62626000        -0.41353000        +0.99871000
@C        +1.33008000        +1.39974000        -0.43491000
@C        +2.63070000        +1.71700000        +0.32855000
@C        +3.04336000        +0.29351000        +0.80300000
@C        +1.94423000        -0.59299000        +0.15262000
@O        +1.62840000        +0.13663000        -1.04376000
@H        +3.37234000        +2.13782000        -0.35195000
@H        +2.48236000        +2.42488000        +1.14651000
@H        +4.02182000        +0.00994000        +0.41161000
@H        +3.07359000        +0.18738000        +1.88928000
@C        +0.90028000        +2.39077000        -1.49430000
@C        +2.35450000        -2.01267000        -0.16812000
@H        +3.26311000        -2.00678000        -0.77366000
@H        +2.54990000        -2.57059000        +0.75079000
@H        +1.57335000        -2.52896000        -0.72872000
@H        +1.71845000        +2.58186000        -2.15686000
@H        +0.59919000        +3.30478000        -1.02650000
@H        +0.07925000        +1.98653000        -2.04874000
@H        +0.81693000        -0.48905000        +2.04887000
@H        -0.12524000        -1.15356000        +0.81843000
@H        -0.74673000        +1.06811000        +0.13365000
@H        +0.15552000        +1.72617000        +1.40828000
$end

$rem
JOBTYPE                   SP
METHOD                    B3LYP
DFT_D                     d3_op
BASIS                     6-311++G(d,p)
SYMMETRY                  False
THRESH                    12
SCF_CONVERGENCE           8
MAX_SUB_FILE_NUM          128
MEM_STATIC                400
MEM_TOTAL                 4000
$end
--------------------------------------------------------------

             Standard Nuclear Orientation (Angstroms)
    I     Atom           X                Y                Z
 ----------------------------------------------------------------
    1      C       7.7284200000     5.0566600000     5.8366400000
    2      C       8.1319800000     3.5982500000     6.2494000000
    3      C       8.8358000000     5.4115200000     4.8157800000
    4      C      10.1364200000     5.7287800000     5.5792400000
    5      C      10.5490800000     4.3052900000     6.0536900000
    6      C       9.4499500000     3.4187900000     5.4033100000
    7      O       9.1341200000     4.1484100000     4.2069300000
    8      H      10.8780600000     6.1496000000     4.8987400000
    9      H       9.9880800000     6.4366600000     6.3972000000
   10      H      11.5275400000     4.0217200000     5.6623000000
   11      H      10.5793100000     4.1991600000     7.1399700000
   12      C       8.4060000000     6.4025500000     3.7563900000
   13      C       9.8602200000     1.9991100000     5.0825700000
   14      H      10.7688300000     2.0050000000     4.4770300000
   15      H      10.0556200000     1.4411900000     6.0014800000
   16      H       9.0790700000     1.4828200000     4.5219700000
   17      H       9.2241700000     6.5936400000     3.0938300000
   18      H       8.1049100000     7.3165600000     4.2241900000
   19      H       7.5849700000     5.9983100000     3.2019500000
   20      H       8.3226500000     3.5227300000     7.2995600000
   21      H       7.3804800000     2.8582200000     6.0691200000
   22      H       6.7589900000     5.0798900000     5.3843400000
   23      H       7.6612400000     5.7379500000     6.6589700000
   24      GH      0.2227000000     1.0448800000     0.5859500000
   25      GH      0.6262600000    -0.4135300000     0.9987100000
   26      GH      1.3300800000     1.3997400000    -0.4349100000
   27      GH      2.6307000000     1.7170000000     0.3285500000
   28      GH      3.0433600000     0.2935100000     0.8030000000
   29      GH      1.9442300000    -0.5929900000     0.1526200000
   30      GH      1.6284000000     0.1366300000    -1.0437600000
   31      GH      3.3723400000     2.1378200000    -0.3519500000
   32      GH      2.4823600000     2.4248800000     1.1465100000
   33      GH      4.0218200000     0.0099400000     0.4116100000
   34      GH      3.0735900000     0.1873800000     1.8892800000
   35      GH      0.9002800000     2.3907700000    -1.4943000000
   36      GH      2.3545000000    -2.0126700000    -0.1681200000
   37      GH      3.2631100000    -2.0067800000    -0.7736600000
   38      GH      2.5499000000    -2.5705900000     0.7507900000
   39      GH      1.5733500000    -2.5289600000    -0.7287200000
   40      GH      1.7184500000     2.5818600000    -2.1568600000
   41      GH      0.5991900000     3.3047800000    -1.0265000000
   42      GH      0.0792500000     1.9865300000    -2.0487400000
   43      GH      0.8169300000    -0.4890500000     2.0488700000
   44      GH     -0.1252400000    -1.1535600000     0.8184300000
   45      GH     -0.7467300000     1.0681100000     0.1336500000
   46      GH      0.1555200000     1.7261700000     1.4082800000
 ----------------------------------------------------------------

   12    -388.6328215447      6.89E-09 Convergence criterion met
 Total energy in the final basis set = -388.63282154

                    Orbital Energies (a.u.)
 --------------------------------------------------------------

 Alpha MOs
 -- Occupied --
-19.115 -10.224 -10.221 -10.166 -10.166 -10.162 -10.161 -10.160
-10.151  -1.049  -0.799  -0.789  -0.749  -0.718  -0.652  -0.616
 -0.562  -0.556  -0.486  -0.474  -0.464  -0.444  -0.420  -0.410
 -0.407  -0.402  -0.384  -0.360  -0.346  -0.344  -0.340  -0.333
 -0.316  -0.299  -0.261

          Ground-State Mulliken Net Atomic Charges

     Atom                 Charge (a.u.)
  ----------------------------------------
      1 C                    -0.452279
      2 C                    -0.493338
      3 C                     0.031234
      4 C                    -0.527644
      5 C                    -0.455944
      6 C                    -0.008946
      7 O                    -0.022765
      8 H                     0.154392
      9 H                     0.142046
     10 H                     0.153538
     11 H                     0.141501
     12 C                    -0.049172
     13 C                    -0.085427
     14 H                     0.149459
     15 H                     0.142754
     16 H                     0.152291
     17 H                     0.143452
     18 H                     0.139905
     19 H                     0.149962
     20 H                     0.138027
     21 H                     0.162514
     22 H                     0.144919
     23 H                     0.149317
     24 GH                    0.000000
     25 GH                   -0.000001
     26 GH                    0.000034
     27 GH                   -0.000018
     28 GH                   -0.000016
     29 GH                    0.000028
     30 GH                   -0.000000
     31 GH                    0.000030
     32 GH                    0.000068
     33 GH                    0.000076
     34 GH                    0.000004
     35 GH                    0.000003
     36 GH                    0.000001
     37 GH                   -0.000001
     38 GH                   -0.000000
     39 GH                    0.000000
     40 GH                   -0.000001
     41 GH                   -0.000001
     42 GH                    0.000000
     43 GH                   -0.000000
     44 GH                   -0.000000
     45 GH                    0.000000
     46 GH                   -0.000002
  ----------------------------------------
  Sum of atomic charges =     0.000000

                    Cartesian Multipole Moments
 -----------------------------------------------------------------
    Charge (ESU x 10^10)
                 0.0000
    Dipole Moment (Debye)
         X      -0.0321      Y       0.4313      Z       1.5104
       Tot       1.5711
    Quadrupole Moments (Debye-Ang)
        XX     -56.9464     XY       3.2502     YY     -51.3280
        XZ      13.5608     YZ       7.8263     ZZ     -43.2498

 Total job time:  133.89s(wall), 530.47s(cpu)
        *  Thank you very much for using Q-Chem.  Have a nice day.  *
