 Q-Chem 5.0, Q-Chem, Inc., Pleasanton, CA (2017)
 Q-Chem 5.0.1 for Intel X86 EM64T Linux

User input:
--------------------------------------------------------------
$molecule
0  1
--
0  1
C        +0.20186000        +1.01419000        +0.57588000
C        +0.65458000        -0.40740000        +1.00877000
C        +1.31047000        +1.40432000        -0.43622000
C        +2.61036000        +1.71622000        +0.34904000
C        +3.06420000        +0.29616000        +0.78527000
C        +1.94960000        -0.59295000        +0.17632000
O        +1.62620000        +0.12693000        -1.03574000
H        +3.34518000        +2.18171000        -0.31153000
H        +2.43386000        +2.39558000        +1.18603000
H        +4.02983000        +0.03650000        +0.34656000
H        +3.14253000        +0.17627000        +1.86830000
C        +0.91819000        +2.41036000        -1.49368000
C        +2.33867000        -2.01935000        -0.13734000
H        +3.21332000        -2.04461000        -0.79203000
H        +2.58239000        -2.55643000        +0.78377000
H        +1.51806000        -2.54232000        -0.63447000
H        +1.73500000        +2.55908000        -2.20400000
H        +0.68341000        +3.37378000        -1.03196000
H        +0.03753000        +2.06800000        -2.04235000
H        +0.83643000        -0.49892000        +2.08202000
H        -0.08220000        -1.16297000        +0.72684000
H        -0.76801000        +0.98583000        +0.07445000
H        +0.13288000        +1.72189000        +1.40479000
--
0  1
C        +0.21633000        +2.15906000        +4.30402000
C        +0.66905000        +0.73747000        +4.73691000
C        +1.32494000        +2.54919000        +3.29192000
C        +2.62483000        +2.86109000        +4.07718000
C        +3.07867000        +1.44103000        +4.51341000
C        +1.96407000        +0.55192000        +3.90446000
O        +1.64067000        +1.27180000        +2.69240000
H        +3.35965000        +3.32658000        +3.41661000
H        +2.44833000        +3.54045000        +4.91417000
H        +4.04430000        +1.18137000        +4.07470000
H        +3.15700000        +1.32114000        +5.59644000
C        +0.93266000        +3.55523000        +2.23446000
C        +2.35314000        -0.87448000        +3.59080000
H        +3.22779000        -0.89974000        +2.93611000
H        +2.59686000        -1.41156000        +4.51191000
H        +1.53253000        -1.39745000        +3.09367000
H        +1.74947000        +3.70395000        +1.52414000
H        +0.69788000        +4.51865000        +2.69618000
H        +0.05200000        +3.21287000        +1.68579000
H        +0.85090000        +0.64595000        +5.81016000
H        -0.06773000        -0.01810000        +4.45498000
H        -0.75354000        +2.13070000        +3.80259000
H        +0.14735000        +2.86676000        +5.13293000
$end

$rem
JOBTYPE                   SP
METHOD                    B3LYP
DFT_D                     d3_op
BASIS                     6-311++G(d,p)
SYMMETRY                  False
THRESH                    12
SCF_CONVERGENCE           8
MAX_SUB_FILE_NUM          128
MEM_STATIC                400
MEM_TOTAL                 4000
$end
--------------------------------------------------------------

             Standard Nuclear Orientation (Angstroms)
    I     Atom           X                Y                Z
 ----------------------------------------------------------------
    1      C       1.2101360856     0.7769399834    -1.2591356277
    2      C       1.2117801542    -0.7765267770    -1.2615020272
    3      C       2.0591295325     1.0918865300     0.0000636254
    4      C       1.2121473538     0.7768510925     1.2598265998
    5      C       1.2101454098    -0.7764783614     1.2586596329
    6      C       2.0572705184    -1.0927818232    -0.0007056934
    7      O       3.0059204332    -0.0010091673    -0.0008640102
    8      H       1.7043472289     1.1719172123     2.1512614775
    9      H       0.2133104217     1.2157645409     1.2058424570
   10      H       1.7021865770    -1.1740884723     2.1486780407
   11      H       0.2096893273    -1.2117904626     1.2033949667
   12      C       2.7762708376     2.4222737219     0.0000691846
   13      C       2.7742416332    -2.4233166897     0.0013943158
   14      H       3.4043079157    -2.5195768438     0.8890993053
   15      H       2.0503856737    -3.2432737893     0.0023438087
   16      H       3.4059535368    -2.5221950703    -0.8847206692
   17      H       3.4086792812     2.5175872430     0.8859730225
   18      H       2.0530441726     3.2428948374     0.0031153185
   19      H       3.4044776426     2.5205352813    -0.8884757215
   20      H       0.2119687122    -1.2134838200    -1.2089994706
   21      H       1.7057106836    -1.1727970705    -2.1515682073
   22      H       1.7013731317     1.1752376025    -2.1496014173
   23      H       0.2103127532     1.2125343032    -1.2016881645
   24      C      -2.6898593337     0.7773891774    -1.2588431341
   25      C      -2.6882152650    -0.7760775831    -1.2612095337
   26      C      -1.8408658867     1.0923357240     0.0003561189
   27      C      -2.6878480655     0.7773002864     1.2601190933
   28      C      -2.6898500094    -0.7760291675     1.2589521265
   29      C      -1.8427249009    -1.0923326292    -0.0004131999
   30      O      -0.8940749861    -0.0005599734    -0.0005715166
   31      H      -2.1956481903     1.1723664063     2.1515539711
   32      H      -3.6866849975     1.2162137349     1.2061349506
   33      H      -2.1978088422    -1.1736392783     2.1489705342
   34      H      -3.6903060920    -1.2113412687     1.2036874603
   35      C      -1.1237245817     2.4227229158     0.0003616781
   36      C      -1.1257537861    -2.4228674957     0.0016868093
   37      H      -0.4956875035    -2.5191276498     0.8893917989
   38      H      -1.8496097456    -3.2428245954     0.0026363023
   39      H      -0.4940418825    -2.5217458763    -0.8844281757
   40      H      -0.4913161381     2.5180364369     0.8862655160
   41      H      -1.8469512467     3.2433440314     0.0034078121
   42      H      -0.4955177766     2.5209844753    -0.8881832280
   43      H      -3.6880267070    -1.2130346261    -1.2087069771
   44      H      -2.1942847356    -1.1723478766    -2.1512757137
   45      H      -2.1986222875     1.1756867964    -2.1493089238
   46      H      -3.6896826661     1.2129834972    -1.2013956709
 ----------------------------------------------------------------

   13    -777.2060886206      6.22E-09 Convergence criterion met
 Total energy in the final basis set = -777.20608862

                    Orbital Energies (a.u.)
 --------------------------------------------------------------

 Alpha MOs
 -- Occupied --
-19.118 -19.097 -10.234 -10.234 -10.206 -10.206 -10.177 -10.177
-10.176 -10.176 -10.167 -10.167 -10.149 -10.149 -10.141 -10.141
-10.140 -10.140  -1.062  -1.026  -0.813  -0.806  -0.782  -0.773
 -0.761  -0.730  -0.730  -0.704  -0.667  -0.635  -0.625  -0.598
 -0.574  -0.572  -0.543  -0.534  -0.512  -0.489  -0.482  -0.462
 -0.462  -0.457  -0.456  -0.446  -0.427  -0.425  -0.415  -0.406
 -0.399  -0.396  -0.394  -0.390  -0.382  -0.373  -0.364  -0.358
 -0.356  -0.351  -0.347  -0.345  -0.327  -0.320  -0.319  -0.314
 -0.305  -0.304  -0.293  -0.279  -0.269  -0.239

          Ground-State Mulliken Net Atomic Charges

     Atom                 Charge (a.u.)
  ----------------------------------------
      1 C                     0.001863
      2 C                    -0.002924
      3 C                    -0.763083
      4 C                    -0.004064
      5 C                     0.002145
      6 C                    -0.762254
      7 O                     0.093658
      8 H                     0.209423
      9 H                    -0.011478
     10 H                     0.209873
     11 H                    -0.016567
     12 C                    -0.205118
     13 C                    -0.204358
     14 H                     0.146324
     15 H                     0.140745
     16 H                     0.146144
     17 H                     0.146398
     18 H                     0.140800
     19 H                     0.146095
     20 H                    -0.013399
     21 H                     0.209588
     22 H                     0.209650
     23 H                    -0.016195
     24 C                    -0.367893
     25 C                    -0.373635
     26 C                     0.168228
     27 C                    -0.372791
     28 C                    -0.369145
     29 C                     0.171359
     30 O                     0.078425
     31 H                     0.169335
     32 H                     0.155850
     33 H                     0.169422
     34 H                     0.155902
     35 C                    -0.640777
     36 C                    -0.643687
     37 H                     0.224033
     38 H                     0.174915
     39 H                     0.223540
     40 H                     0.223703
     41 H                     0.175060
     42 H                     0.224335
     43 H                     0.155760
     44 H                     0.169599
     45 H                     0.169312
     46 H                     0.155885
  ----------------------------------------
  Sum of atomic charges =     0.000000

                    Cartesian Multipole Moments
 -----------------------------------------------------------------
    Charge (ESU x 10^10)
                -0.0000
    Dipole Moment (Debye)
         X      -4.3761      Y       0.0028      Z       0.0056
       Tot       4.3761
    Quadrupole Moments (Debye-Ang)
        XX    -120.6053     XY      -0.0028     YY    -110.3182
        XZ      -0.0006     YZ       0.0042     ZZ    -114.9604

 Total job time:  434.79s(wall), 1708.92s(cpu)
        *  Thank you very much for using Q-Chem.  Have a nice day.  *
