 Q-Chem 5.0, Q-Chem, Inc., Pleasanton, CA (2017)
 Q-Chem 5.0.1 for Intel X86 EM64T Linux

User input:
--------------------------------------------------------------
$molecule
0  1
C        +0.21633000        +2.15906000        +4.30402000
C        +0.66905000        +0.73747000        +4.73691000
C        +1.32494000        +2.54919000        +3.29192000
C        +2.62483000        +2.86109000        +4.07718000
C        +3.07867000        +1.44103000        +4.51341000
C        +1.96407000        +0.55192000        +3.90446000
O        +1.64067000        +1.27180000        +2.69240000
H        +3.35965000        +3.32658000        +3.41661000
H        +2.44833000        +3.54045000        +4.91417000
H        +4.04430000        +1.18137000        +4.07470000
H        +3.15700000        +1.32114000        +5.59644000
C        +0.93266000        +3.55523000        +2.23446000
C        +2.35314000        -0.87448000        +3.59080000
H        +3.22779000        -0.89974000        +2.93611000
H        +2.59686000        -1.41156000        +4.51191000
H        +1.53253000        -1.39745000        +3.09367000
H        +1.74947000        +3.70395000        +1.52414000
H        +0.69788000        +4.51865000        +2.69618000
H        +0.05200000        +3.21287000        +1.68579000
H        +0.85090000        +0.64595000        +5.81016000
H        -0.06773000        -0.01810000        +4.45498000
H        -0.75354000        +2.13070000        +3.80259000
H        +0.14735000        +2.86676000        +5.13293000
@C        +0.20186000        +1.01419000        +0.57588000
@C        +0.65458000        -0.40740000        +1.00877000
@C        +1.31047000        +1.40432000        -0.43622000
@C        +2.61036000        +1.71622000        +0.34904000
@C        +3.06420000        +0.29616000        +0.78527000
@C        +1.94960000        -0.59295000        +0.17632000
@O        +1.62620000        +0.12693000        -1.03574000
@H        +3.34518000        +2.18171000        -0.31153000
@H        +2.43386000        +2.39558000        +1.18603000
@H        +4.02983000        +0.03650000        +0.34656000
@H        +3.14253000        +0.17627000        +1.86830000
@C        +0.91819000        +2.41036000        -1.49368000
@C        +2.33867000        -2.01935000        -0.13734000
@H        +3.21332000        -2.04461000        -0.79203000
@H        +2.58239000        -2.55643000        +0.78377000
@H        +1.51806000        -2.54232000        -0.63447000
@H        +1.73500000        +2.55908000        -2.20400000
@H        +0.68341000        +3.37378000        -1.03196000
@H        +0.03753000        +2.06800000        -2.04235000
@H        +0.83643000        -0.49892000        +2.08202000
@H        -0.08220000        -1.16297000        +0.72684000
@H        -0.76801000        +0.98583000        +0.07445000
@H        +0.13288000        +1.72189000        +1.40479000
$end

$rem
JOBTYPE                   SP
METHOD                    B3LYP
DFT_D                     d3_op
BASIS                     6-311++G(d,p)
SYMMETRY                  False
THRESH                    12
SCF_CONVERGENCE           8
MAX_SUB_FILE_NUM          128
MEM_STATIC                400
MEM_TOTAL                 4000
$end
--------------------------------------------------------------

             Standard Nuclear Orientation (Angstroms)
    I     Atom           X                Y                Z
 ----------------------------------------------------------------
    1      C       0.2163300000     2.1590600000     4.3040200000
    2      C       0.6690500000     0.7374700000     4.7369100000
    3      C       1.3249400000     2.5491900000     3.2919200000
    4      C       2.6248300000     2.8610900000     4.0771800000
    5      C       3.0786700000     1.4410300000     4.5134100000
    6      C       1.9640700000     0.5519200000     3.9044600000
    7      O       1.6406700000     1.2718000000     2.6924000000
    8      H       3.3596500000     3.3265800000     3.4166100000
    9      H       2.4483300000     3.5404500000     4.9141700000
   10      H       4.0443000000     1.1813700000     4.0747000000
   11      H       3.1570000000     1.3211400000     5.5964400000
   12      C       0.9326600000     3.5552300000     2.2344600000
   13      C       2.3531400000    -0.8744800000     3.5908000000
   14      H       3.2277900000    -0.8997400000     2.9361100000
   15      H       2.5968600000    -1.4115600000     4.5119100000
   16      H       1.5325300000    -1.3974500000     3.0936700000
   17      H       1.7494700000     3.7039500000     1.5241400000
   18      H       0.6978800000     4.5186500000     2.6961800000
   19      H       0.0520000000     3.2128700000     1.6857900000
   20      H       0.8509000000     0.6459500000     5.8101600000
   21      H      -0.0677300000    -0.0181000000     4.4549800000
   22      H      -0.7535400000     2.1307000000     3.8025900000
   23      H       0.1473500000     2.8667600000     5.1329300000
   24      GH      0.2018600000     1.0141900000     0.5758800000
   25      GH      0.6545800000    -0.4074000000     1.0087700000
   26      GH      1.3104700000     1.4043200000    -0.4362200000
   27      GH      2.6103600000     1.7162200000     0.3490400000
   28      GH      3.0642000000     0.2961600000     0.7852700000
   29      GH      1.9496000000    -0.5929500000     0.1763200000
   30      GH      1.6262000000     0.1269300000    -1.0357400000
   31      GH      3.3451800000     2.1817100000    -0.3115300000
   32      GH      2.4338600000     2.3955800000     1.1860300000
   33      GH      4.0298300000     0.0365000000     0.3465600000
   34      GH      3.1425300000     0.1762700000     1.8683000000
   35      GH      0.9181900000     2.4103600000    -1.4936800000
   36      GH      2.3386700000    -2.0193500000    -0.1373400000
   37      GH      3.2133200000    -2.0446100000    -0.7920300000
   38      GH      2.5823900000    -2.5564300000     0.7837700000
   39      GH      1.5180600000    -2.5423200000    -0.6344700000
   40      GH      1.7350000000     2.5590800000    -2.2040000000
   41      GH      0.6834100000     3.3737800000    -1.0319600000
   42      GH      0.0375300000     2.0680000000    -2.0423500000
   43      GH      0.8364300000    -0.4989200000     2.0820200000
   44      GH     -0.0822000000    -1.1629700000     0.7268400000
   45      GH     -0.7680100000     0.9858300000     0.0744500000
   46      GH      0.1328800000     1.7218900000     1.4047900000
 ----------------------------------------------------------------

   12    -388.6395468160      3.20E-09 Convergence criterion met
 Total energy in the final basis set = -388.63954682

                    Orbital Energies (a.u.)
 --------------------------------------------------------------

 Alpha MOs
 -- Occupied --
-19.113 -10.223 -10.223 -10.166 -10.166 -10.166 -10.166 -10.160
-10.160  -1.043  -0.799  -0.788  -0.749  -0.716  -0.650  -0.613
 -0.557  -0.553  -0.484  -0.475  -0.466  -0.440  -0.417  -0.408
 -0.404  -0.402  -0.383  -0.359  -0.344  -0.343  -0.341  -0.335
 -0.317  -0.298  -0.260

          Ground-State Mulliken Net Atomic Charges

     Atom                 Charge (a.u.)
  ----------------------------------------
      1 C                    -0.362227
      2 C                    -0.372436
      3 C                     0.133027
      4 C                    -0.369359
      5 C                    -0.363499
      6 C                     0.141473
      7 O                     0.092169
      8 H                     0.161653
      9 H                     0.150578
     10 H                     0.161592
     11 H                     0.150384
     12 C                    -0.546197
     13 C                    -0.553174
     14 H                     0.178045
     15 H                     0.183414
     16 H                     0.177834
     17 H                     0.177157
     18 H                     0.183893
     19 H                     0.177699
     20 H                     0.150445
     21 H                     0.162023
     22 H                     0.161034
     23 H                     0.150545
     24 GH                    0.067400
     25 GH                    0.065884
     26 GH                   -0.109552
     27 GH                    0.064509
     28 GH                    0.069009
     29 GH                   -0.109796
     30 GH                   -0.005012
     31 GH                    0.005904
     32 GH                   -0.053248
     33 GH                    0.006183
     34 GH                   -0.057103
     35 GH                    0.014037
     36 GH                    0.015486
     37 GH                   -0.000097
     38 GH                   -0.000028
     39 GH                   -0.000083
     40 GH                   -0.000088
     41 GH                   -0.000057
     42 GH                   -0.000093
     43 GH                   -0.054825
     44 GH                    0.005853
     45 GH                    0.006339
     46 GH                   -0.056695
  ----------------------------------------
  Sum of atomic charges =     0.000000

                    Cartesian Multipole Moments
 -----------------------------------------------------------------
    Charge (ESU x 10^10)
                 0.0000
    Dipole Moment (Debye)
         X       0.0076      Y       0.4487      Z       1.4566
       Tot       1.5241
    Quadrupole Moments (Debye-Ang)
        XX     -56.6257     XY       0.2006     YY     -53.9135
        XZ       2.5818     YZ       2.7222     ZZ     -48.2392

 Total job time:  382.43s(wall), 1511.69s(cpu)
        *  Thank you very much for using Q-Chem.  Have a nice day.  *
