 Q-Chem 5.0, Q-Chem, Inc., Pleasanton, CA (2017)
 Q-Chem 5.0.1 for Intel X86 EM64T Linux

User input:
--------------------------------------------------------------
$molecule
0  1
C        +4.05062000        +3.09089000        +3.26380000
C        +4.45418000        +1.63248000        +3.67656000
C        +5.15800000        +3.44575000        +2.24294000
C        +6.45862000        +3.76301000        +3.00640000
C        +6.87128000        +2.33952000        +3.48085000
C        +5.77215000        +1.45302000        +2.83047000
O        +5.45632000        +2.18264000        +1.63409000
H        +7.20026000        +4.18383000        +2.32590000
H        +6.31028000        +4.47089000        +3.82436000
H        +7.84974000        +2.05595000        +3.08946000
H        +6.90151000        +2.23339000        +4.56713000
C        +4.72820000        +4.43678000        +1.18355000
C        +6.18242000        +0.03334000        +2.50973000
H        +7.09103000        +0.03923000        +1.90419000
H        +6.37782000        -0.52458000        +3.42864000
H        +5.40127000        -0.48295000        +1.94913000
H        +5.54637000        +4.62787000        +0.52099000
H        +4.42711000        +5.35079000        +1.65135000
H        +3.90717000        +4.03254000        +0.62911000
H        +4.64485000        +1.55696000        +4.72672000
H        +3.70268000        +0.89245000        +3.49628000
H        +3.08119000        +3.11412000        +2.81150000
H        +3.98344000        +3.77218000        +4.08613000
@C        +0.22270000        +1.04488000        +0.58595000
@C        +0.62626000        -0.41353000        +0.99871000
@C        +1.33008000        +1.39974000        -0.43491000
@C        +2.63070000        +1.71700000        +0.32855000
@C        +3.04336000        +0.29351000        +0.80300000
@C        +1.94423000        -0.59299000        +0.15262000
@O        +1.62840000        +0.13663000        -1.04376000
@H        +3.37234000        +2.13782000        -0.35195000
@H        +2.48236000        +2.42488000        +1.14651000
@H        +4.02182000        +0.00994000        +0.41161000
@H        +3.07359000        +0.18738000        +1.88928000
@C        +0.90028000        +2.39077000        -1.49430000
@C        +2.35450000        -2.01267000        -0.16812000
@H        +3.26311000        -2.00678000        -0.77366000
@H        +2.54990000        -2.57059000        +0.75079000
@H        +1.57335000        -2.52896000        -0.72872000
@H        +1.71845000        +2.58186000        -2.15686000
@H        +0.59919000        +3.30478000        -1.02650000
@H        +0.07925000        +1.98653000        -2.04874000
@H        +0.81693000        -0.48905000        +2.04887000
@H        -0.12524000        -1.15356000        +0.81843000
@H        -0.74673000        +1.06811000        +0.13365000
@H        +0.15552000        +1.72617000        +1.40828000
$end

$rem
JOBTYPE                   SP
METHOD                    B3LYP
DFT_D                     d3_op
BASIS                     6-311++G(d,p)
SYMMETRY                  False
THRESH                    12
SCF_CONVERGENCE           8
MAX_SUB_FILE_NUM          128
MEM_STATIC                400
MEM_TOTAL                 4000
$end
--------------------------------------------------------------

             Standard Nuclear Orientation (Angstroms)
    I     Atom           X                Y                Z
 ----------------------------------------------------------------
    1      C       4.0506200000     3.0908900000     3.2638000000
    2      C       4.4541800000     1.6324800000     3.6765600000
    3      C       5.1580000000     3.4457500000     2.2429400000
    4      C       6.4586200000     3.7630100000     3.0064000000
    5      C       6.8712800000     2.3395200000     3.4808500000
    6      C       5.7721500000     1.4530200000     2.8304700000
    7      O       5.4563200000     2.1826400000     1.6340900000
    8      H       7.2002600000     4.1838300000     2.3259000000
    9      H       6.3102800000     4.4708900000     3.8243600000
   10      H       7.8497400000     2.0559500000     3.0894600000
   11      H       6.9015100000     2.2333900000     4.5671300000
   12      C       4.7282000000     4.4367800000     1.1835500000
   13      C       6.1824200000     0.0333400000     2.5097300000
   14      H       7.0910300000     0.0392300000     1.9041900000
   15      H       6.3778200000    -0.5245800000     3.4286400000
   16      H       5.4012700000    -0.4829500000     1.9491300000
   17      H       5.5463700000     4.6278700000     0.5209900000
   18      H       4.4271100000     5.3507900000     1.6513500000
   19      H       3.9071700000     4.0325400000     0.6291100000
   20      H       4.6448500000     1.5569600000     4.7267200000
   21      H       3.7026800000     0.8924500000     3.4962800000
   22      H       3.0811900000     3.1141200000     2.8115000000
   23      H       3.9834400000     3.7721800000     4.0861300000
   24      GH      0.2227000000     1.0448800000     0.5859500000
   25      GH      0.6262600000    -0.4135300000     0.9987100000
   26      GH      1.3300800000     1.3997400000    -0.4349100000
   27      GH      2.6307000000     1.7170000000     0.3285500000
   28      GH      3.0433600000     0.2935100000     0.8030000000
   29      GH      1.9442300000    -0.5929900000     0.1526200000
   30      GH      1.6284000000     0.1366300000    -1.0437600000
   31      GH      3.3723400000     2.1378200000    -0.3519500000
   32      GH      2.4823600000     2.4248800000     1.1465100000
   33      GH      4.0218200000     0.0099400000     0.4116100000
   34      GH      3.0735900000     0.1873800000     1.8892800000
   35      GH      0.9002800000     2.3907700000    -1.4943000000
   36      GH      2.3545000000    -2.0126700000    -0.1681200000
   37      GH      3.2631100000    -2.0067800000    -0.7736600000
   38      GH      2.5499000000    -2.5705900000     0.7507900000
   39      GH      1.5733500000    -2.5289600000    -0.7287200000
   40      GH      1.7184500000     2.5818600000    -2.1568600000
   41      GH      0.5991900000     3.3047800000    -1.0265000000
   42      GH      0.0792500000     1.9865300000    -2.0487400000
   43      GH      0.8169300000    -0.4890500000     2.0488700000
   44      GH     -0.1252400000    -1.1535600000     0.8184300000
   45      GH     -0.7467300000     1.0681100000     0.1336500000
   46      GH      0.1555200000     1.7261700000     1.4082800000
 ----------------------------------------------------------------

   12    -388.6334992789      6.96E-09 Convergence criterion met
 Total energy in the final basis set = -388.63349928

                    Orbital Energies (a.u.)
 --------------------------------------------------------------

 Alpha MOs
 -- Occupied --
-19.115 -10.224 -10.221 -10.166 -10.165 -10.162 -10.161 -10.160
-10.151  -1.049  -0.799  -0.789  -0.749  -0.717  -0.652  -0.616
 -0.562  -0.555  -0.486  -0.474  -0.464  -0.444  -0.420  -0.410
 -0.406  -0.402  -0.384  -0.360  -0.346  -0.343  -0.340  -0.333
 -0.316  -0.299  -0.261

          Ground-State Mulliken Net Atomic Charges

     Atom                 Charge (a.u.)
  ----------------------------------------
      1 C                    -0.339233
      2 C                    -0.336713
      3 C                     0.131890
      4 C                    -0.566623
      5 C                    -0.520444
      6 C                     0.148708
      7 O                     0.056639
      8 H                     0.155898
      9 H                     0.138057
     10 H                     0.159166
     11 H                     0.135425
     12 C                    -0.243418
     13 C                    -0.320350
     14 H                     0.154782
     15 H                     0.149639
     16 H                     0.136378
     17 H                     0.150479
     18 H                     0.147330
     19 H                     0.123037
     20 H                     0.170328
     21 H                     0.158248
     22 H                     0.143203
     23 H                     0.182509
     24 GH                   -0.004831
     25 GH                    0.001457
     26 GH                   -0.056113
     27 GH                   -0.014074
     28 GH                    0.005317
     29 GH                   -0.056385
     30 GH                    0.000787
     31 GH                    0.015272
     32 GH                   -0.026383
     33 GH                    0.021152
     34 GH                   -0.021319
     35 GH                    0.010653
     36 GH                    0.002946
     37 GH                   -0.000952
     38 GH                    0.001625
     39 GH                    0.000133
     40 GH                   -0.000673
     41 GH                    0.001746
     42 GH                    0.000122
     43 GH                    0.002243
     44 GH                   -0.000169
     45 GH                   -0.000479
     46 GH                    0.002990
  ----------------------------------------
  Sum of atomic charges =     0.000000

                    Cartesian Multipole Moments
 -----------------------------------------------------------------
    Charge (ESU x 10^10)
                 0.0000
    Dipole Moment (Debye)
         X      -0.0327      Y       0.4297      Z       1.5031
       Tot       1.5637
    Quadrupole Moments (Debye-Ang)
        XX     -56.7196     XY       1.7204     YY     -53.0520
        XZ       8.0401     YZ       3.7359     ZZ     -51.0408

 Total job time:  295.09s(wall), 1166.98s(cpu)
        *  Thank you very much for using Q-Chem.  Have a nice day.  *
