 Q-Chem 5.0, Q-Chem, Inc., Pleasanton, CA (2017)
 Q-Chem 5.0.1 for Intel X86 EM64T Linux

User input:
--------------------------------------------------------------
$molecule
0  1
--
0  1
C        +0.22270000        +1.04488000        +0.58595000
C        +0.62626000        -0.41353000        +0.99871000
C        +1.33008000        +1.39974000        -0.43491000
C        +2.63070000        +1.71700000        +0.32855000
C        +3.04336000        +0.29351000        +0.80300000
C        +1.94423000        -0.59299000        +0.15262000
O        +1.62840000        +0.13663000        -1.04376000
H        +3.37234000        +2.13782000        -0.35195000
H        +2.48236000        +2.42488000        +1.14651000
H        +4.02182000        +0.00994000        +0.41161000
H        +3.07359000        +0.18738000        +1.88928000
C        +0.90028000        +2.39077000        -1.49430000
C        +2.35450000        -2.01267000        -0.16812000
H        +3.26311000        -2.00678000        -0.77366000
H        +2.54990000        -2.57059000        +0.75079000
H        +1.57335000        -2.52896000        -0.72872000
H        +1.71845000        +2.58186000        -2.15686000
H        +0.59919000        +3.30478000        -1.02650000
H        +0.07925000        +1.98653000        -2.04874000
H        +0.81693000        -0.48905000        +2.04887000
H        -0.12524000        -1.15356000        +0.81843000
H        -0.74673000        +1.06811000        +0.13365000
H        +0.15552000        +1.72617000        +1.40828000
--
0  1
C        +7.72842000        +5.05666000        +5.83664000
C        +8.13198000        +3.59825000        +6.24940000
C        +8.83580000        +5.41152000        +4.81578000
C       +10.13642000        +5.72878000        +5.57924000
C       +10.54908000        +4.30529000        +6.05369000
C        +9.44995000        +3.41879000        +5.40331000
O        +9.13412000        +4.14841000        +4.20693000
H       +10.87806000        +6.14960000        +4.89874000
H        +9.98808000        +6.43666000        +6.39720000
H       +11.52754000        +4.02172000        +5.66230000
H       +10.57931000        +4.19916000        +7.13997000
C        +8.40600000        +6.40255000        +3.75639000
C        +9.86022000        +1.99911000        +5.08257000
H       +10.76883000        +2.00500000        +4.47703000
H       +10.05562000        +1.44119000        +6.00148000
H        +9.07907000        +1.48282000        +4.52197000
H        +9.22417000        +6.59364000        +3.09383000
H        +8.10491000        +7.31656000        +4.22419000
H        +7.58497000        +5.99831000        +3.20195000
H        +8.32265000        +3.52273000        +7.29956000
H        +7.38048000        +2.85822000        +6.06912000
H        +6.75899000        +5.07989000        +5.38434000
H        +7.66124000        +5.73795000        +6.65897000
$end

$rem
JOBTYPE                   SP
METHOD                    B3LYP
DFT_D                     d3_op
BASIS                     6-311++G(d,p)
SYMMETRY                  False
THRESH                    12
SCF_CONVERGENCE           8
MAX_SUB_FILE_NUM          128
MEM_STATIC                400
MEM_TOTAL                 4000
$end
--------------------------------------------------------------

             Standard Nuclear Orientation (Angstroms)
    I     Atom           X                Y                Z
 ----------------------------------------------------------------
    1      C       5.4950706276    -0.8062938524     1.3357516217
    2      C       5.5606035655     0.7606360300     1.3607995173
    3      C       5.0519178611    -1.0784580651    -0.1216136347
    4      C       3.5470424017    -0.7726433833    -0.2518622267
    5      C       3.5595233355     0.7818584480    -0.1805660779
    6      C       5.0819384191     1.0876842734    -0.1051603133
    7      O       5.6515947073     0.0002019606    -0.8510108146
    8      H       3.1751401244    -1.1215973013    -1.2162892438
    9      H       2.9479444794    -1.2416983518     0.5312255894
   10      H       3.1408766714     1.2266556588    -1.0849290917
   11      H       3.0123413667     1.1837865362     0.6745522607
   12      C       5.5310554058    -2.4017720633    -0.6769900372
   13      C       5.5097369472     2.4214358754    -0.6750568005
   14      H       5.1393841916     2.5222833621    -1.6972867828
   15      H       5.1067228484     3.2403532990    -0.0743860387
   16      H       6.5974527998     2.5079466175    -0.6953831920
   17      H       5.1842906143    -2.5128548496    -1.6831302285
   18      H       5.1470663947    -3.2003272908    -0.0771831547
   19      H       6.6006500926    -2.4279834612    -0.6634209272
   20      H       4.8992125139     1.1726040889     2.0941060973
   21      H       6.5172061105     1.1642348097     1.6194829633
   22      H       6.4516704385    -1.2400071157     1.5400040508
   23      H       4.8432522814    -1.2256161104     2.0734490751
   24      C      -4.5048522286    -0.8064103996     1.3744791316
   25      C      -4.4393192907     0.7605194828     1.3995270272
   26      C      -4.9480049951    -1.0785746123    -0.0828861248
   27      C      -6.4528804545    -0.7727599305    -0.2131347167
   28      C      -6.4403995206     0.7817419008    -0.1418385680
   29      C      -4.9179844371     1.0875677262    -0.0664328033
   30      O      -4.3483281489     0.0000854134    -0.8122833047
   31      H      -6.8247827318    -1.1217138486    -1.1775617338
   32      H      -7.0519783767    -1.2418148990     0.5699530994
   33      H      -6.8590461847     1.2265391115    -1.0462015817
   34      H      -6.9875814895     1.1836699890     0.7132797706
   35      C      -4.4688674503    -2.4018886105    -0.6382625272
   36      C      -4.4901859089     2.4213193282    -0.6363292906
   37      H      -4.8605386646     2.5221668148    -1.6585592728
   38      H      -4.8932000077     3.2402367518    -0.0356585288
   39      H      -3.4024700564     2.5078300702    -0.6566556821
   40      H      -4.8156322418    -2.5129713968    -1.6444027185
   41      H      -4.8528564614    -3.2004438380    -0.0384556448
   42      H      -3.3992727636    -2.4281000084    -0.6246934173
   43      H      -5.1007103422     1.1724875417     2.1328336072
   44      H      -3.4827167457     1.1641182625     1.6582104732
   45      H      -3.5482524177    -1.2401236629     1.5787315608
   46      H      -5.1566705748    -1.2257326577     2.1121765851
 ----------------------------------------------------------------

   12    -777.2656158816      9.84E-09 Convergence criterion met
 Total energy in the final basis set = -777.26561588

                    Orbital Energies (a.u.)
 --------------------------------------------------------------

 Alpha MOs
 -- Occupied --
-19.115 -19.114 -10.225 -10.223 -10.221 -10.219 -10.167 -10.166
-10.165 -10.164 -10.163 -10.162 -10.161 -10.160 -10.160 -10.159
-10.152 -10.150  -1.050  -1.048  -0.800  -0.798  -0.789  -0.788
 -0.749  -0.747  -0.718  -0.716  -0.653  -0.651  -0.617  -0.615
 -0.563  -0.561  -0.556  -0.554  -0.487  -0.485  -0.475  -0.473
 -0.465  -0.463  -0.445  -0.443  -0.421  -0.419  -0.411  -0.409
 -0.407  -0.405  -0.403  -0.401  -0.384  -0.382  -0.361  -0.359
 -0.347  -0.345  -0.344  -0.342  -0.341  -0.339  -0.334  -0.332
 -0.317  -0.315  -0.300  -0.298  -0.262  -0.260

          Ground-State Mulliken Net Atomic Charges

     Atom                 Charge (a.u.)
  ----------------------------------------
      1 C                    -0.475505
      2 C                    -0.498735
      3 C                     0.084285
      4 C                    -0.542908
      5 C                    -0.465784
      6 C                     0.031531
      7 O                    -0.026612
      8 H                     0.155797
      9 H                     0.139178
     10 H                     0.151968
     11 H                     0.138786
     12 C                    -0.067298
     13 C                    -0.107287
     14 H                     0.150301
     15 H                     0.140544
     16 H                     0.156341
     17 H                     0.144208
     18 H                     0.137226
     19 H                     0.154447
     20 H                     0.134939
     21 H                     0.166780
     22 H                     0.153963
     23 H                     0.143872
     24 C                    -0.452492
     25 C                    -0.492857
     26 C                     0.031937
     27 C                    -0.528957
     28 C                    -0.456327
     29 C                    -0.009843
     30 O                    -0.022486
     31 H                     0.154801
     32 H                     0.142199
     33 H                     0.153684
     34 H                     0.141777
     35 C                    -0.049658
     36 C                    -0.083907
     37 H                     0.149688
     38 H                     0.142821
     39 H                     0.152051
     40 H                     0.143846
     41 H                     0.140069
     42 H                     0.149582
     43 H                     0.138179
     44 H                     0.161750
     45 H                     0.144592
     46 H                     0.149516
  ----------------------------------------
  Sum of atomic charges =     0.000000

                    Cartesian Multipole Moments
 -----------------------------------------------------------------
    Charge (ESU x 10^10)
                 0.0000
    Dipole Moment (Debye)
         X      -1.9199      Y       0.0139      Z       2.4884
       Tot       3.1430
    Quadrupole Moments (Debye-Ang)
        XX    -115.6203     XY       0.2115     YY    -109.4221
        XZ       2.7714     YZ      -0.2278     ZZ    -116.1797

 Total job time:  156.05s(wall), 619.12s(cpu)
        *  Thank you very much for using Q-Chem.  Have a nice day.  *
