 Q-Chem 5.0, Q-Chem, Inc., Pleasanton, CA (2017)
 Q-Chem 5.0.1 for Intel X86 EM64T Linux

User input:
--------------------------------------------------------------
$molecule
0  1
C        -0.54444000        -0.68370000        -0.06689000
C        -0.55709000        +0.71878000        +0.05493000
C        -1.74320000        -1.41616000        -0.12552000
C        -2.93952000        -0.70056000        -0.05285000
C        -2.95313000        +0.68255000        +0.06934000
C        -1.77161000        +1.42404000        +0.12810000
H        -3.90354000        +1.20325000        +0.11710000
H        -3.87892000        -1.24211000        -0.08988000
C        -1.83960000        +2.92746000        +0.24839000
H        -1.24214000        +3.42352000        -0.52065000
H        -1.45503000        +3.26427000        +1.21284000
H        -2.87211000        +3.26623000        +0.14638000
H        -1.73878000        -2.44393000        -0.21875000
H        +0.35825000        -1.18166000        -0.11386000
H        +0.33551000        +1.23549000        +0.09097000
@C        -0.50934000        -1.12838000        +5.01357000
@C        -0.52199000        +0.27410000        +5.13539000
@C        -1.70810000        -1.86084000        +4.95494000
@C        -2.90442000        -1.14524000        +5.02761000
@C        -2.91803000        +0.23787000        +5.14980000
@C        -1.73651000        +0.97936000        +5.20856000
@H        -3.86844000        +0.75857000        +5.19756000
@H        -3.84382000        -1.68679000        +4.99058000
@C        -1.80450000        +2.48278000        +5.32885000
@H        -1.20704000        +2.97884000        +4.55981000
@H        -1.41993000        +2.81959000        +6.29330000
@H        -2.83701000        +2.82155000        +5.22684000
@H        -1.70368000        -2.88861000        +4.86171000
@H        +0.39335000        -1.62634000        +4.96660000
@H        +0.37061000        +0.79081000        +5.17143000
$end

$rem
JOBTYPE                   SP
METHOD                    B3LYP
DFT_D                     d3_op
BASIS                     6-311++G(d,p)
SYMMETRY                  False
THRESH                    12
SCF_CONVERGENCE           8
MAX_SUB_FILE_NUM          128
MEM_STATIC                400
MEM_TOTAL                 4000
$end
--------------------------------------------------------------

             Standard Nuclear Orientation (Angstroms)
    I     Atom           X                Y                Z
 ----------------------------------------------------------------
    1      C      -0.5444400000    -0.6837000000    -0.0668900000
    2      C      -0.5570900000     0.7187800000     0.0549300000
    3      C      -1.7432000000    -1.4161600000    -0.1255200000
    4      C      -2.9395200000    -0.7005600000    -0.0528500000
    5      C      -2.9531300000     0.6825500000     0.0693400000
    6      C      -1.7716100000     1.4240400000     0.1281000000
    7      H      -3.9035400000     1.2032500000     0.1171000000
    8      H      -3.8789200000    -1.2421100000    -0.0898800000
    9      C      -1.8396000000     2.9274600000     0.2483900000
   10      H      -1.2421400000     3.4235200000    -0.5206500000
   11      H      -1.4550300000     3.2642700000     1.2128400000
   12      H      -2.8721100000     3.2662300000     0.1463800000
   13      H      -1.7387800000    -2.4439300000    -0.2187500000
   14      H       0.3582500000    -1.1816600000    -0.1138600000
   15      H       0.3355100000     1.2354900000     0.0909700000
   16      GH     -0.5093400000    -1.1283800000     5.0135700000
   17      GH     -0.5219900000     0.2741000000     5.1353900000
   18      GH     -1.7081000000    -1.8608400000     4.9549400000
   19      GH     -2.9044200000    -1.1452400000     5.0276100000
   20      GH     -2.9180300000     0.2378700000     5.1498000000
   21      GH     -1.7365100000     0.9793600000     5.2085600000
   22      GH     -3.8684400000     0.7585700000     5.1975600000
   23      GH     -3.8438200000    -1.6867900000     4.9905800000
   24      GH     -1.8045000000     2.4827800000     5.3288500000
   25      GH     -1.2070400000     2.9788400000     4.5598100000
   26      GH     -1.4199300000     2.8195900000     6.2933000000
   27      GH     -2.8370100000     2.8215500000     5.2268400000
   28      GH     -1.7036800000    -2.8886100000     4.8617100000
   29      GH      0.3933500000    -1.6263400000     4.9666000000
   30      GH      0.3706100000     0.7908100000     5.1714300000
 ----------------------------------------------------------------

   12    -271.6437274423      9.77E-09 Convergence criterion met
 Total energy in the final basis set = -271.64372744

                    Orbital Energies (a.u.)
 --------------------------------------------------------------

 Alpha MOs
 -- Occupied --
-10.185 -10.174 -10.172 -10.171 -10.170 -10.169 -10.169  -0.858
 -0.776  -0.747  -0.691  -0.611  -0.591  -0.521  -0.465  -0.462
 -0.424  -0.423  -0.418  -0.390  -0.358  -0.350  -0.342  -0.255
 -0.247

          Ground-State Mulliken Net Atomic Charges

     Atom                 Charge (a.u.)
  ----------------------------------------
      1 C                    -0.058357
      2 C                    -0.425733
      3 C                    -0.335252
      4 C                    -0.102262
      5 C                    -0.602521
      6 C                     0.930452
      7 H                     0.147964
      8 H                     0.169823
      9 C                    -0.642292
     10 H                     0.146919
     11 H                     0.160353
     12 H                     0.144232
     13 H                     0.150031
     14 H                     0.160338
     15 H                     0.166962
     16 GH                   -0.013762
     17 GH                    0.020510
     18 GH                    0.017789
     19 GH                   -0.016290
     20 GH                   -0.009455
     21 GH                   -0.008867
     22 GH                   -0.000838
     23 GH                   -0.000287
     24 GH                   -0.000640
     25 GH                   -0.000716
     26 GH                   -0.000369
     27 GH                    0.001266
     28 GH                    0.001429
     29 GH                   -0.000623
     30 GH                    0.000197
  ----------------------------------------
  Sum of atomic charges =     0.000000

                    Cartesian Multipole Moments
 -----------------------------------------------------------------
    Charge (ESU x 10^10)
                 0.0000
    Dipole Moment (Debye)
         X       0.0621      Y       0.3872      Z       0.0370
       Tot       0.3939
    Quadrupole Moments (Debye-Ang)
        XX     -39.3594     XY      -0.6301     YY     -38.0761
        XZ      -0.0960     YZ       0.7291     ZZ     -46.4113

 Total job time:  77.59s(wall), 309.22s(cpu)
        *  Thank you very much for using Q-Chem.  Have a nice day.  *
