 Q-Chem 5.0, Q-Chem, Inc., Pleasanton, CA (2017)
 Q-Chem 5.0.1 for Intel X86 EM64T Linux

User input:
--------------------------------------------------------------
$molecule
0  1
--
0  1
C        -0.54444000        -0.68370000        -0.06689000
C        -0.55709000        +0.71878000        +0.05493000
C        -1.74320000        -1.41616000        -0.12552000
C        -2.93952000        -0.70056000        -0.05285000
C        -2.95313000        +0.68255000        +0.06934000
C        -1.77161000        +1.42404000        +0.12810000
H        -3.90354000        +1.20325000        +0.11710000
H        -3.87892000        -1.24211000        -0.08988000
C        -1.83960000        +2.92746000        +0.24839000
H        -1.24214000        +3.42352000        -0.52065000
H        -1.45503000        +3.26427000        +1.21284000
H        -2.87211000        +3.26623000        +0.14638000
H        -1.73878000        -2.44393000        -0.21875000
H        +0.35825000        -1.18166000        -0.11386000
H        +0.33551000        +1.23549000        +0.09097000
--
0  1
C        -0.67773000        -0.96254000        +3.82084000
C        -0.69038000        +0.43994000        +3.94266000
C        -1.87649000        -1.69500000        +3.76221000
C        -3.07281000        -0.97940000        +3.83488000
C        -3.08642000        +0.40371000        +3.95707000
C        -1.90490000        +1.14520000        +4.01583000
H        -4.03683000        +0.92441000        +4.00483000
H        -4.01221000        -1.52095000        +3.79785000
C        -1.97289000        +2.64862000        +4.13612000
H        -1.37543000        +3.14468000        +3.36708000
H        -1.58832000        +2.98543000        +5.10057000
H        -3.00540000        +2.98739000        +4.03411000
H        -1.87207000        -2.72277000        +3.66898000
H        +0.22496000        -1.46050000        +3.77387000
H        +0.20222000        +0.95665000        +3.97870000
$end

$rem
JOBTYPE                   SP
METHOD                    B3LYP
DFT_D                     d3_op
BASIS                     6-311++G(d,p)
SYMMETRY                  False
THRESH                    12
SCF_CONVERGENCE           8
MAX_SUB_FILE_NUM          128
MEM_STATIC                400
MEM_TOTAL                 4000
$end
--------------------------------------------------------------

             Standard Nuclear Orientation (Angstroms)
    I     Atom           X                Y                Z
 ----------------------------------------------------------------
    1      C       2.0650119042    -1.1749101405     1.1591146452
    2      C       2.0082159663     0.2314931849     1.1865772216
    3      C       2.0292035585    -1.8772948999    -0.0583967832
    4      C       1.9300234080    -1.1277287955    -1.2317934698
    5      C       1.8719072816     0.2593734040    -1.2057376780
    6      C       1.9071416631     0.9712378367    -0.0052139440
    7      H       1.8008347352     0.8066714760    -2.1396017951
    8      H       1.8945803593    -1.6453511655    -2.1846475277
    9      C       1.8537999747     2.4798371614    -0.0306454693
   10      H       2.6741396546     2.9245448016     0.5383311745
   11      H       0.9266137296     2.8497210239     0.4109544160
   12      H       1.9195454038     2.8408400905    -1.0585571760
   13      H       2.0745297133    -2.9079910294    -0.0835676118
   14      H       2.1339614714    -1.6982009194     2.0459248258
   15      H       2.0411402120     0.7255034024     2.0920565227
   16      C      -1.8332748085    -1.2736215079     1.2189418466
   17      C      -1.8900707465     0.1327818174     1.2464044230
   18      C      -1.8690831542    -1.9760062674     0.0014304183
   19      C      -1.9682633047    -1.2264401630    -1.1719662683
   20      C      -2.0263794311     0.1606620365    -1.1459104765
   21      C      -1.9911450496     0.8725264692     0.0546132575
   22      H      -2.0974519775     0.7079601085    -2.0797745937
   23      H      -2.0037063534    -1.7440625330    -2.1248203263
   24      C      -2.0444867380     2.3811257939     0.0291817322
   25      H      -1.2241470581     2.8258334341     0.5981583759
   26      H      -2.9716729831     2.7510096565     0.4707816175
   27      H      -1.9787413089     2.7421287230    -0.9987299746
   28      H      -1.8237569994    -3.0067023969    -0.0237404104
   29      H      -1.7643252413    -1.7969122869     2.1057520272
   30      H      -1.8571465007     0.6267920349     2.1518837242
 ----------------------------------------------------------------

   14    -543.2900251932      5.07E-09 Convergence criterion met
 Total energy in the final basis set = -543.29002519

                    Orbital Energies (a.u.)
 --------------------------------------------------------------

 Alpha MOs
 -- Occupied --
-10.180 -10.180 -10.169 -10.168 -10.168 -10.167 -10.167 -10.167
-10.166 -10.166 -10.164 -10.164 -10.164 -10.164  -0.854  -0.852
 -0.773  -0.771  -0.743  -0.742  -0.689  -0.686  -0.607  -0.606
 -0.587  -0.585  -0.517  -0.516  -0.461  -0.460  -0.459  -0.457
 -0.432  -0.419  -0.418  -0.415  -0.414  -0.411  -0.389  -0.386
 -0.361  -0.347  -0.346  -0.343  -0.338  -0.337  -0.257  -0.250
 -0.241  -0.235

          Ground-State Mulliken Net Atomic Charges

     Atom                 Charge (a.u.)
  ----------------------------------------
      1 C                    -0.209103
      2 C                    -0.268541
      3 C                    -0.300583
      4 C                    -0.250423
      5 C                    -0.216813
      6 C                     0.698597
      7 H                     0.158876
      8 H                     0.165810
      9 C                    -0.707677
     10 H                     0.150470
     11 H                     0.155569
     12 H                     0.142426
     13 H                     0.146669
     14 H                     0.158523
     15 H                     0.165415
     16 C                    -0.202284
     17 C                    -0.122024
     18 C                    -0.293529
     19 C                    -0.285402
     20 C                    -0.301743
     21 C                     0.619505
     22 H                     0.154456
     23 H                     0.172203
     24 C                    -0.646868
     25 H                     0.136085
     26 H                     0.160414
     27 H                     0.137115
     28 H                     0.144024
     29 H                     0.162708
     30 H                     0.176125
  ----------------------------------------
  Sum of atomic charges =     0.000000

                    Cartesian Multipole Moments
 -----------------------------------------------------------------
    Charge (ESU x 10^10)
                 0.0000
    Dipole Moment (Debye)
         X      -0.0368      Y       0.5710      Z       0.1121
       Tot       0.5831
    Quadrupole Moments (Debye-Ang)
        XX     -94.2908     XY      -0.6510     YY     -77.6840
        XZ       0.7352     YZ       0.0375     ZZ     -78.7374

 Total job time:  111.06s(wall), 442.21s(cpu)
        *  Thank you very much for using Q-Chem.  Have a nice day.  *
