 Q-Chem 5.0, Q-Chem, Inc., Pleasanton, CA (2017)
 Q-Chem 5.0.1 for Intel X86 EM64T Linux

User input:
--------------------------------------------------------------
$molecule
0  1
C        -0.51760000        -1.02375000        +3.81816000
C        -0.53025000        +0.37873000        +3.93998000
C        -1.71636000        -1.75621000        +3.75953000
C        -2.91268000        -1.04061000        +3.83220000
C        -2.92629000        +0.34250000        +3.95439000
C        -1.74477000        +1.08399000        +4.01315000
H        -3.87670000        +0.86320000        +4.00215000
H        -3.85208000        -1.58216000        +3.79517000
C        -1.81276000        +2.58741000        +4.13344000
H        -1.21530000        +3.08347000        +3.36440000
H        -1.42819000        +2.92422000        +5.09789000
H        -2.84527000        +2.92618000        +4.03143000
H        -1.71194000        -2.78398000        +3.66630000
H        +0.38509000        -1.52171000        +3.77119000
H        +0.36235000        +0.89544000        +3.97602000
@C        -0.54444000        -0.68370000        -0.06689000
@C        -0.55709000        +0.71878000        +0.05493000
@C        -1.74320000        -1.41616000        -0.12552000
@C        -2.93952000        -0.70056000        -0.05285000
@C        -2.95313000        +0.68255000        +0.06934000
@C        -1.77161000        +1.42404000        +0.12810000
@H        -3.90354000        +1.20325000        +0.11710000
@H        -3.87892000        -1.24211000        -0.08988000
@C        -1.83960000        +2.92746000        +0.24839000
@H        -1.24214000        +3.42352000        -0.52065000
@H        -1.45503000        +3.26427000        +1.21284000
@H        -2.87211000        +3.26623000        +0.14638000
@H        -1.73878000        -2.44393000        -0.21875000
@H        +0.35825000        -1.18166000        -0.11386000
@H        +0.33551000        +1.23549000        +0.09097000
$end

$rem
JOBTYPE                   SP
METHOD                    B3LYP
DFT_D                     d3_op
BASIS                     6-311++G(d,p)
SYMMETRY                  False
THRESH                    12
SCF_CONVERGENCE           8
MAX_SUB_FILE_NUM          128
MEM_STATIC                400
MEM_TOTAL                 4000
$end
--------------------------------------------------------------

             Standard Nuclear Orientation (Angstroms)
    I     Atom           X                Y                Z
 ----------------------------------------------------------------
    1      C      -0.5176000000    -1.0237500000     3.8181600000
    2      C      -0.5302500000     0.3787300000     3.9399800000
    3      C      -1.7163600000    -1.7562100000     3.7595300000
    4      C      -2.9126800000    -1.0406100000     3.8322000000
    5      C      -2.9262900000     0.3425000000     3.9543900000
    6      C      -1.7447700000     1.0839900000     4.0131500000
    7      H      -3.8767000000     0.8632000000     4.0021500000
    8      H      -3.8520800000    -1.5821600000     3.7951700000
    9      C      -1.8127600000     2.5874100000     4.1334400000
   10      H      -1.2153000000     3.0834700000     3.3644000000
   11      H      -1.4281900000     2.9242200000     5.0978900000
   12      H      -2.8452700000     2.9261800000     4.0314300000
   13      H      -1.7119400000    -2.7839800000     3.6663000000
   14      H       0.3850900000    -1.5217100000     3.7711900000
   15      H       0.3623500000     0.8954400000     3.9760200000
   16      GH     -0.5444400000    -0.6837000000    -0.0668900000
   17      GH     -0.5570900000     0.7187800000     0.0549300000
   18      GH     -1.7432000000    -1.4161600000    -0.1255200000
   19      GH     -2.9395200000    -0.7005600000    -0.0528500000
   20      GH     -2.9531300000     0.6825500000     0.0693400000
   21      GH     -1.7716100000     1.4240400000     0.1281000000
   22      GH     -3.9035400000     1.2032500000     0.1171000000
   23      GH     -3.8789200000    -1.2421100000    -0.0898800000
   24      GH     -1.8396000000     2.9274600000     0.2483900000
   25      GH     -1.2421400000     3.4235200000    -0.5206500000
   26      GH     -1.4550300000     3.2642700000     1.2128400000
   27      GH     -2.8721100000     3.2662300000     0.1463800000
   28      GH     -1.7387800000    -2.4439300000    -0.2187500000
   29      GH      0.3582500000    -1.1816600000    -0.1138600000
   30      GH      0.3355100000     1.2354900000     0.0909700000
 ----------------------------------------------------------------

   12    -271.6437564518      9.96E-09 Convergence criterion met
 Total energy in the final basis set = -271.64375645

                    Orbital Energies (a.u.)
 --------------------------------------------------------------

 Alpha MOs
 -- Occupied --
-10.185 -10.174 -10.172 -10.171 -10.170 -10.169 -10.169  -0.858
 -0.776  -0.747  -0.691  -0.611  -0.591  -0.521  -0.465  -0.462
 -0.424  -0.423  -0.418  -0.390  -0.358  -0.350  -0.342  -0.255
 -0.247

          Ground-State Mulliken Net Atomic Charges

     Atom                 Charge (a.u.)
  ----------------------------------------
      1 C                    -0.242445
      2 C                    -0.123637
      3 C                    -0.327259
      4 C                    -0.233716
      5 C                    -0.266402
      6 C                     0.595591
      7 H                     0.157652
      8 H                     0.173754
      9 C                    -0.698195
     10 H                     0.154330
     11 H                     0.161385
     12 H                     0.137511
     13 H                     0.146224
     14 H                     0.162659
     15 H                     0.174650
     16 GH                    0.017381
     17 GH                   -0.031318
     18 GH                    0.006449
     19 GH                   -0.025033
     20 GH                    0.014743
     21 GH                    0.004794
     22 GH                    0.007590
     23 GH                    0.001814
     24 GH                    0.012246
     25 GH                    0.000402
     26 GH                    0.005501
     27 GH                    0.000883
     28 GH                    0.004782
     29 GH                    0.004822
     30 GH                    0.002842
  ----------------------------------------
  Sum of atomic charges =    -0.000000

                    Cartesian Multipole Moments
 -----------------------------------------------------------------
    Charge (ESU x 10^10)
                -0.0000
    Dipole Moment (Debye)
         X       0.0616      Y       0.3896      Z       0.0264
       Tot       0.3953
    Quadrupole Moments (Debye-Ang)
        XX     -39.4074     XY      -0.6434     YY     -38.3979
        XZ       0.1677     YZ       2.2208     ZZ     -46.1555

 Total job time:  91.68s(wall), 365.31s(cpu)
        *  Thank you very much for using Q-Chem.  Have a nice day.  *
