 Q-Chem 5.0, Q-Chem, Inc., Pleasanton, CA (2017)
 Q-Chem 5.0.1 for Intel X86 EM64T Linux

User input:
--------------------------------------------------------------
$molecule
0  1
C        -0.88622000        -1.39868000        +9.90166000
C        -0.89887000        +0.00380000       +10.02348000
C        -2.08498000        -2.13114000        +9.84303000
C        -3.28130000        -1.41554000        +9.91570000
C        -3.29491000        -0.03243000       +10.03789000
C        -2.11339000        +0.70906000       +10.09665000
H        -4.24532000        +0.48827000       +10.08565000
H        -4.22070000        -1.95709000        +9.87867000
C        -2.18138000        +2.21248000       +10.21694000
H        -1.58392000        +2.70854000        +9.44790000
H        -1.79681000        +2.54929000       +11.18139000
H        -3.21389000        +2.55125000       +10.11493000
H        -2.08056000        -3.15891000        +9.74980000
H        +0.01647000        -1.89664000        +9.85469000
H        -0.00627000        +0.52051000       +10.05952000
@C        -0.54444000        -0.68370000        -0.06689000
@C        -0.55709000        +0.71878000        +0.05493000
@C        -1.74320000        -1.41616000        -0.12552000
@C        -2.93952000        -0.70056000        -0.05285000
@C        -2.95313000        +0.68255000        +0.06934000
@C        -1.77161000        +1.42404000        +0.12810000
@H        -3.90354000        +1.20325000        +0.11710000
@H        -3.87892000        -1.24211000        -0.08988000
@C        -1.83960000        +2.92746000        +0.24839000
@H        -1.24214000        +3.42352000        -0.52065000
@H        -1.45503000        +3.26427000        +1.21284000
@H        -2.87211000        +3.26623000        +0.14638000
@H        -1.73878000        -2.44393000        -0.21875000
@H        +0.35825000        -1.18166000        -0.11386000
@H        +0.33551000        +1.23549000        +0.09097000
$end

$rem
JOBTYPE                   SP
METHOD                    B3LYP
DFT_D                     d3_op
BASIS                     6-311++G(d,p)
SYMMETRY                  False
THRESH                    12
SCF_CONVERGENCE           8
MAX_SUB_FILE_NUM          128
MEM_STATIC                400
MEM_TOTAL                 4000
$end
--------------------------------------------------------------

             Standard Nuclear Orientation (Angstroms)
    I     Atom           X                Y                Z
 ----------------------------------------------------------------
    1      C      -0.8862200000    -1.3986800000     9.9016600000
    2      C      -0.8988700000     0.0038000000    10.0234800000
    3      C      -2.0849800000    -2.1311400000     9.8430300000
    4      C      -3.2813000000    -1.4155400000     9.9157000000
    5      C      -3.2949100000    -0.0324300000    10.0378900000
    6      C      -2.1133900000     0.7090600000    10.0966500000
    7      H      -4.2453200000     0.4882700000    10.0856500000
    8      H      -4.2207000000    -1.9570900000     9.8786700000
    9      C      -2.1813800000     2.2124800000    10.2169400000
   10      H      -1.5839200000     2.7085400000     9.4479000000
   11      H      -1.7968100000     2.5492900000    11.1813900000
   12      H      -3.2138900000     2.5512500000    10.1149300000
   13      H      -2.0805600000    -3.1589100000     9.7498000000
   14      H       0.0164700000    -1.8966400000     9.8546900000
   15      H      -0.0062700000     0.5205100000    10.0595200000
   16      GH     -0.5444400000    -0.6837000000    -0.0668900000
   17      GH     -0.5570900000     0.7187800000     0.0549300000
   18      GH     -1.7432000000    -1.4161600000    -0.1255200000
   19      GH     -2.9395200000    -0.7005600000    -0.0528500000
   20      GH     -2.9531300000     0.6825500000     0.0693400000
   21      GH     -1.7716100000     1.4240400000     0.1281000000
   22      GH     -3.9035400000     1.2032500000     0.1171000000
   23      GH     -3.8789200000    -1.2421100000    -0.0898800000
   24      GH     -1.8396000000     2.9274600000     0.2483900000
   25      GH     -1.2421400000     3.4235200000    -0.5206500000
   26      GH     -1.4550300000     3.2642700000     1.2128400000
   27      GH     -2.8721100000     3.2662300000     0.1463800000
   28      GH     -1.7387800000    -2.4439300000    -0.2187500000
   29      GH      0.3582500000    -1.1816600000    -0.1138600000
   30      GH      0.3355100000     1.2354900000     0.0909700000
 ----------------------------------------------------------------

   12    -271.6435251649      9.47E-09 Convergence criterion met
 Total energy in the final basis set = -271.64352516

                    Orbital Energies (a.u.)
 --------------------------------------------------------------

 Alpha MOs
 -- Occupied --
-10.185 -10.174 -10.172 -10.171 -10.170 -10.169 -10.169  -0.858
 -0.776  -0.748  -0.691  -0.611  -0.591  -0.521  -0.465  -0.463
 -0.424  -0.423  -0.418  -0.390  -0.358  -0.350  -0.342  -0.255
 -0.247

          Ground-State Mulliken Net Atomic Charges

     Atom                 Charge (a.u.)
  ----------------------------------------
      1 C                     0.200003
      2 C                    -0.697631
      3 C                    -0.498586
      4 C                     0.181457
      5 C                    -1.146313
      6 C                     1.340249
      7 H                     0.111363
      8 H                     0.168721
      9 C                    -0.551082
     10 H                     0.148099
     11 H                     0.158869
     12 H                     0.149113
     13 H                     0.141311
     14 H                     0.156008
     15 H                     0.138416
     16 GH                    0.000000
     17 GH                   -0.000001
     18 GH                   -0.000001
     19 GH                    0.000000
     20 GH                    0.000000
     21 GH                    0.000000
     22 GH                    0.000000
     23 GH                    0.000000
     24 GH                   -0.000001
     25 GH                   -0.000000
     26 GH                    0.000003
     27 GH                   -0.000000
     28 GH                    0.000000
     29 GH                    0.000000
     30 GH                    0.000000
  ----------------------------------------
  Sum of atomic charges =     0.000000

                    Cartesian Multipole Moments
 -----------------------------------------------------------------
    Charge (ESU x 10^10)
                 0.0000
    Dipole Moment (Debye)
         X       0.0624      Y       0.3877      Z       0.0345
       Tot       0.3942
    Quadrupole Moments (Debye-Ang)
        XX     -39.3896     XY      -0.8073     YY     -38.6175
        XZ       0.5199     YZ       4.5699     ZZ     -45.7389

 Total job time:  38.58s(wall), 153.18s(cpu)
        *  Thank you very much for using Q-Chem.  Have a nice day.  *
