 Q-Chem 5.0, Q-Chem, Inc., Pleasanton, CA (2017)
 Q-Chem 5.0.1 for Intel X86 EM64T Linux

User input:
--------------------------------------------------------------
$molecule
0  1
C        -0.67773000        -0.96254000        +3.82084000
C        -0.69038000        +0.43994000        +3.94266000
C        -1.87649000        -1.69500000        +3.76221000
C        -3.07281000        -0.97940000        +3.83488000
C        -3.08642000        +0.40371000        +3.95707000
C        -1.90490000        +1.14520000        +4.01583000
H        -4.03683000        +0.92441000        +4.00483000
H        -4.01221000        -1.52095000        +3.79785000
C        -1.97289000        +2.64862000        +4.13612000
H        -1.37543000        +3.14468000        +3.36708000
H        -1.58832000        +2.98543000        +5.10057000
H        -3.00540000        +2.98739000        +4.03411000
H        -1.87207000        -2.72277000        +3.66898000
H        +0.22496000        -1.46050000        +3.77387000
H        +0.20222000        +0.95665000        +3.97870000
@C        -0.54444000        -0.68370000        -0.06689000
@C        -0.55709000        +0.71878000        +0.05493000
@C        -1.74320000        -1.41616000        -0.12552000
@C        -2.93952000        -0.70056000        -0.05285000
@C        -2.95313000        +0.68255000        +0.06934000
@C        -1.77161000        +1.42404000        +0.12810000
@H        -3.90354000        +1.20325000        +0.11710000
@H        -3.87892000        -1.24211000        -0.08988000
@C        -1.83960000        +2.92746000        +0.24839000
@H        -1.24214000        +3.42352000        -0.52065000
@H        -1.45503000        +3.26427000        +1.21284000
@H        -2.87211000        +3.26623000        +0.14638000
@H        -1.73878000        -2.44393000        -0.21875000
@H        +0.35825000        -1.18166000        -0.11386000
@H        +0.33551000        +1.23549000        +0.09097000
$end

$rem
JOBTYPE                   SP
METHOD                    B3LYP
DFT_D                     d3_op
BASIS                     6-311++G(d,p)
SYMMETRY                  False
THRESH                    12
SCF_CONVERGENCE           8
MAX_SUB_FILE_NUM          128
MEM_STATIC                400
MEM_TOTAL                 4000
$end
--------------------------------------------------------------

             Standard Nuclear Orientation (Angstroms)
    I     Atom           X                Y                Z
 ----------------------------------------------------------------
    1      C      -0.6777300000    -0.9625400000     3.8208400000
    2      C      -0.6903800000     0.4399400000     3.9426600000
    3      C      -1.8764900000    -1.6950000000     3.7622100000
    4      C      -3.0728100000    -0.9794000000     3.8348800000
    5      C      -3.0864200000     0.4037100000     3.9570700000
    6      C      -1.9049000000     1.1452000000     4.0158300000
    7      H      -4.0368300000     0.9244100000     4.0048300000
    8      H      -4.0122100000    -1.5209500000     3.7978500000
    9      C      -1.9728900000     2.6486200000     4.1361200000
   10      H      -1.3754300000     3.1446800000     3.3670800000
   11      H      -1.5883200000     2.9854300000     5.1005700000
   12      H      -3.0054000000     2.9873900000     4.0341100000
   13      H      -1.8720700000    -2.7227700000     3.6689800000
   14      H       0.2249600000    -1.4605000000     3.7738700000
   15      H       0.2022200000     0.9566500000     3.9787000000
   16      GH     -0.5444400000    -0.6837000000    -0.0668900000
   17      GH     -0.5570900000     0.7187800000     0.0549300000
   18      GH     -1.7432000000    -1.4161600000    -0.1255200000
   19      GH     -2.9395200000    -0.7005600000    -0.0528500000
   20      GH     -2.9531300000     0.6825500000     0.0693400000
   21      GH     -1.7716100000     1.4240400000     0.1281000000
   22      GH     -3.9035400000     1.2032500000     0.1171000000
   23      GH     -3.8789200000    -1.2421100000    -0.0898800000
   24      GH     -1.8396000000     2.9274600000     0.2483900000
   25      GH     -1.2421400000     3.4235200000    -0.5206500000
   26      GH     -1.4550300000     3.2642700000     1.2128400000
   27      GH     -2.8721100000     3.2662300000     0.1463800000
   28      GH     -1.7387800000    -2.4439300000    -0.2187500000
   29      GH      0.3582500000    -1.1816600000    -0.1138600000
   30      GH      0.3355100000     1.2354900000     0.0909700000
 ----------------------------------------------------------------

   12    -271.6437670212      9.96E-09 Convergence criterion met
 Total energy in the final basis set = -271.64376702

                    Orbital Energies (a.u.)
 --------------------------------------------------------------

 Alpha MOs
 -- Occupied --
-10.185 -10.174 -10.172 -10.171 -10.170 -10.169 -10.169  -0.858
 -0.776  -0.747  -0.691  -0.611  -0.591  -0.521  -0.465  -0.462
 -0.424  -0.423  -0.418  -0.390  -0.358  -0.350  -0.342  -0.255
 -0.247

          Ground-State Mulliken Net Atomic Charges

     Atom                 Charge (a.u.)
  ----------------------------------------
      1 C                    -0.220654
      2 C                    -0.156105
      3 C                    -0.312069
      4 C                    -0.266025
      5 C                    -0.261313
      6 C                     0.612165
      7 H                     0.157941
      8 H                     0.173788
      9 C                    -0.696216
     10 H                     0.160460
     11 H                     0.161764
     12 H                     0.138438
     13 H                     0.146214
     14 H                     0.162189
     15 H                     0.173738
     16 GH                   -0.018127
     17 GH                   -0.000152
     18 GH                   -0.001020
     19 GH                    0.005352
     20 GH                    0.002679
     21 GH                    0.009539
     22 GH                    0.007842
     23 GH                    0.003636
     24 GH                    0.005915
     25 GH                    0.000586
     26 GH                   -0.001670
     27 GH                    0.001725
     28 GH                    0.004741
     29 GH                    0.002299
     30 GH                    0.002339
  ----------------------------------------
  Sum of atomic charges =     0.000000

                    Cartesian Multipole Moments
 -----------------------------------------------------------------
    Charge (ESU x 10^10)
                -0.0000
    Dipole Moment (Debye)
         X       0.0636      Y       0.3887      Z       0.0268
       Tot       0.3948
    Quadrupole Moments (Debye-Ang)
        XX     -39.4363     XY      -0.7031     YY     -38.3480
        XZ       0.1703     YZ       2.2204     ZZ     -46.1529

 Total job time:  92.20s(wall), 366.79s(cpu)
        *  Thank you very much for using Q-Chem.  Have a nice day.  *
