 Q-Chem 5.0, Q-Chem, Inc., Pleasanton, CA (2017)
 Q-Chem 5.0.1 for Intel X86 EM64T Linux

User input:
--------------------------------------------------------------
$molecule
0  1
C        -0.54444000        -0.68370000        -0.06689000
C        -0.55709000        +0.71878000        +0.05493000
C        -1.74320000        -1.41616000        -0.12552000
C        -2.93952000        -0.70056000        -0.05285000
C        -2.95313000        +0.68255000        +0.06934000
C        -1.77161000        +1.42404000        +0.12810000
H        -3.90354000        +1.20325000        +0.11710000
H        -3.87892000        -1.24211000        -0.08988000
C        -1.83960000        +2.92746000        +0.24839000
H        -1.24214000        +3.42352000        -0.52065000
H        -1.45503000        +3.26427000        +1.21284000
H        -2.87211000        +3.26623000        +0.14638000
H        -1.73878000        -2.44393000        -0.21875000
H        +0.35825000        -1.18166000        -0.11386000
H        +0.33551000        +1.23549000        +0.09097000
@C        -0.88622000        -1.39868000        +9.90166000
@C        -0.89887000        +0.00380000       +10.02348000
@C        -2.08498000        -2.13114000        +9.84303000
@C        -3.28130000        -1.41554000        +9.91570000
@C        -3.29491000        -0.03243000       +10.03789000
@C        -2.11339000        +0.70906000       +10.09665000
@H        -4.24532000        +0.48827000       +10.08565000
@H        -4.22070000        -1.95709000        +9.87867000
@C        -2.18138000        +2.21248000       +10.21694000
@H        -1.58392000        +2.70854000        +9.44790000
@H        -1.79681000        +2.54929000       +11.18139000
@H        -3.21389000        +2.55125000       +10.11493000
@H        -2.08056000        -3.15891000        +9.74980000
@H        +0.01647000        -1.89664000        +9.85469000
@H        -0.00627000        +0.52051000       +10.05952000
$end

$rem
JOBTYPE                   SP
METHOD                    B3LYP
DFT_D                     d3_op
BASIS                     6-311++G(d,p)
SYMMETRY                  False
THRESH                    12
SCF_CONVERGENCE           8
MAX_SUB_FILE_NUM          128
MEM_STATIC                400
MEM_TOTAL                 4000
$end
--------------------------------------------------------------

             Standard Nuclear Orientation (Angstroms)
    I     Atom           X                Y                Z
 ----------------------------------------------------------------
    1      C      -0.5444400000    -0.6837000000    -0.0668900000
    2      C      -0.5570900000     0.7187800000     0.0549300000
    3      C      -1.7432000000    -1.4161600000    -0.1255200000
    4      C      -2.9395200000    -0.7005600000    -0.0528500000
    5      C      -2.9531300000     0.6825500000     0.0693400000
    6      C      -1.7716100000     1.4240400000     0.1281000000
    7      H      -3.9035400000     1.2032500000     0.1171000000
    8      H      -3.8789200000    -1.2421100000    -0.0898800000
    9      C      -1.8396000000     2.9274600000     0.2483900000
   10      H      -1.2421400000     3.4235200000    -0.5206500000
   11      H      -1.4550300000     3.2642700000     1.2128400000
   12      H      -2.8721100000     3.2662300000     0.1463800000
   13      H      -1.7387800000    -2.4439300000    -0.2187500000
   14      H       0.3582500000    -1.1816600000    -0.1138600000
   15      H       0.3355100000     1.2354900000     0.0909700000
   16      GH     -0.8862200000    -1.3986800000     9.9016600000
   17      GH     -0.8988700000     0.0038000000    10.0234800000
   18      GH     -2.0849800000    -2.1311400000     9.8430300000
   19      GH     -3.2813000000    -1.4155400000     9.9157000000
   20      GH     -3.2949100000    -0.0324300000    10.0378900000
   21      GH     -2.1133900000     0.7090600000    10.0966500000
   22      GH     -4.2453200000     0.4882700000    10.0856500000
   23      GH     -4.2207000000    -1.9570900000     9.8786700000
   24      GH     -2.1813800000     2.2124800000    10.2169400000
   25      GH     -1.5839200000     2.7085400000     9.4479000000
   26      GH     -1.7968100000     2.5492900000    11.1813900000
   27      GH     -3.2138900000     2.5512500000    10.1149300000
   28      GH     -2.0805600000    -3.1589100000     9.7498000000
   29      GH      0.0164700000    -1.8966400000     9.8546900000
   30      GH     -0.0062700000     0.5205100000    10.0595200000
 ----------------------------------------------------------------

   12    -271.6435264151      9.47E-09 Convergence criterion met
 Total energy in the final basis set = -271.64352642

                    Orbital Energies (a.u.)
 --------------------------------------------------------------

 Alpha MOs
 -- Occupied --
-10.185 -10.174 -10.172 -10.171 -10.170 -10.169 -10.169  -0.858
 -0.776  -0.748  -0.691  -0.611  -0.591  -0.521  -0.465  -0.463
 -0.424  -0.423  -0.418  -0.390  -0.358  -0.350  -0.342  -0.255
 -0.247

          Ground-State Mulliken Net Atomic Charges

     Atom                 Charge (a.u.)
  ----------------------------------------
      1 C                     0.198610
      2 C                    -0.696284
      3 C                    -0.498506
      4 C                     0.180830
      5 C                    -1.145482
      6 C                     1.340067
      7 H                     0.111213
      8 H                     0.168761
      9 C                    -0.551148
     10 H                     0.148565
     11 H                     0.158275
     12 H                     0.149261
     13 H                     0.141318
     14 H                     0.155997
     15 H                     0.138520
     16 GH                   -0.000000
     17 GH                   -0.000000
     18 GH                   -0.000000
     19 GH                   -0.000000
     20 GH                   -0.000000
     21 GH                    0.000001
     22 GH                    0.000000
     23 GH                    0.000000
     24 GH                   -0.000001
     25 GH                    0.000002
     26 GH                   -0.000000
     27 GH                    0.000000
     28 GH                    0.000000
     29 GH                    0.000000
     30 GH                    0.000000
  ----------------------------------------
  Sum of atomic charges =     0.000000

                    Cartesian Multipole Moments
 -----------------------------------------------------------------
    Charge (ESU x 10^10)
                 0.0000
    Dipole Moment (Debye)
         X       0.0624      Y       0.3877      Z       0.0345
       Tot       0.3942
    Quadrupole Moments (Debye-Ang)
        XX     -39.3471     XY      -0.6303     YY     -38.0632
        XZ      -0.0903     YZ       0.7300     ZZ     -46.4262

 Total job time:  38.89s(wall), 154.41s(cpu)
        *  Thank you very much for using Q-Chem.  Have a nice day.  *
