 Q-Chem 5.0, Q-Chem, Inc., Pleasanton, CA (2017)
 Q-Chem 5.0.1 for Intel X86 EM64T Linux

User input:
--------------------------------------------------------------
$molecule
0  1
--
0  1
C        -0.54444000        -0.68370000        -0.06689000
C        -0.55709000        +0.71878000        +0.05493000
C        -1.74320000        -1.41616000        -0.12552000
C        -2.93952000        -0.70056000        -0.05285000
C        -2.95313000        +0.68255000        +0.06934000
C        -1.77161000        +1.42404000        +0.12810000
H        -3.90354000        +1.20325000        +0.11710000
H        -3.87892000        -1.24211000        -0.08988000
C        -1.83960000        +2.92746000        +0.24839000
H        -1.24214000        +3.42352000        -0.52065000
H        -1.45503000        +3.26427000        +1.21284000
H        -2.87211000        +3.26623000        +0.14638000
H        -1.73878000        -2.44393000        -0.21875000
H        +0.35825000        -1.18166000        -0.11386000
H        +0.33551000        +1.23549000        +0.09097000
--
0  1
C        -0.47562000        -1.55562000        +9.89479000
C        -0.48827000        -0.15314000       +10.01661000
C        -1.67438000        -2.28808000        +9.83616000
C        -2.87070000        -1.57248000        +9.90883000
C        -2.88431000        -0.18937000       +10.03102000
C        -1.70279000        +0.55212000       +10.08978000
H        -3.83472000        +0.33133000       +10.07878000
H        -3.81010000        -2.11403000        +9.87180000
C        -1.77078000        +2.05554000       +10.21007000
H        -1.17332000        +2.55160000        +9.44103000
H        -1.38621000        +2.39235000       +11.17452000
H        -2.80329000        +2.39431000       +10.10806000
H        -1.66996000        -3.31585000        +9.74293000
H        +0.42707000        -2.05358000        +9.84782000
H        +0.40433000        +0.36357000       +10.05265000
$end

$rem
JOBTYPE                   SP
METHOD                    B3LYP
DFT_D                     d3_op
BASIS                     6-311++G(d,p)
SYMMETRY                  False
THRESH                    12
SCF_CONVERGENCE           8
MAX_SUB_FILE_NUM          128
MEM_STATIC                400
MEM_TOTAL                 4000
$end
--------------------------------------------------------------

             Standard Nuclear Orientation (Angstroms)
    I     Atom           X                Y                Z
 ----------------------------------------------------------------
    1      C       4.9973315096    -1.2296045631     1.1900929484
    2      C       4.9985902900     0.1779264018     1.2184704651
    3      C       5.0000147892    -1.9291491826    -0.0295753637
    4      C       4.9983911878    -1.1753870561    -1.2044735941
    5      C       4.9975958189     0.2129168542    -1.1776310816
    6      C       4.9956908166     0.9219666080     0.0250719099
    7      H       5.0020635998     0.7632655440    -2.1123957762
    8      H       4.9944469914    -1.6905011550    -2.1593358312
    9      C       5.0076736620     2.4314854962     0.0011311884
   10      H       5.8129709813     2.8407127463     0.6163431698
   11      H       4.0737060210     2.8400707058     0.3913381022
   12      H       5.1460077885     2.7899628929    -1.0204390141
   13      H       5.0030680193    -2.9608257284    -0.0552020035
   14      H       4.9943924894    -1.7558508244     2.0778292906
   15      H       5.0016733900     0.6695832068     2.1258220762
   16      C      -5.0026707994    -1.2278983527     1.1899937945
   17      C      -5.0014120190     0.1796326123     1.2183713112
   18      C      -4.9999875198    -1.9274429721    -0.0296745176
   19      C      -5.0016111213    -1.1736808456    -1.2045727480
   20      C      -5.0024064901     0.2146230646    -1.1777302355
   21      C      -5.0043114924     0.9236728185     0.0249727560
   22      H      -4.9979387092     0.7649717544    -2.1124949301
   23      H      -5.0055553176    -1.6887949445    -2.1594349851
   24      C      -4.9923286470     2.4331917067     0.0010320345
   25      H      -4.1870313277     2.8424189568     0.6162440159
   26      H      -5.9262962880     2.8417769162     0.3912389483
   27      H      -4.8539945205     2.7916691033    -1.0205381680
   28      H      -4.9969342897    -2.9591195180    -0.0553011574
   29      H      -5.0056098196    -1.7541446140     2.0777301367
   30      H      -4.9983289191     0.6712894173     2.1257229223
 ----------------------------------------------------------------

   13    -543.2869532565      2.19E-09 Convergence criterion met
 Total energy in the final basis set = -543.28695326

                    Orbital Energies (a.u.)
 --------------------------------------------------------------

 Alpha MOs
 -- Occupied --
-10.184 -10.184 -10.173 -10.173 -10.171 -10.171 -10.170 -10.170
-10.169 -10.169 -10.169 -10.169 -10.169 -10.169  -0.857  -0.857
 -0.775  -0.775  -0.747  -0.747  -0.691  -0.691  -0.610  -0.610
 -0.590  -0.590  -0.521  -0.521  -0.464  -0.464  -0.462  -0.462
 -0.424  -0.423  -0.422  -0.422  -0.417  -0.417  -0.389  -0.389
 -0.357  -0.357  -0.350  -0.350  -0.342  -0.342  -0.254  -0.254
 -0.247  -0.247

          Ground-State Mulliken Net Atomic Charges

     Atom                 Charge (a.u.)
  ----------------------------------------
      1 C                     0.201465
      2 C                    -0.699045
      3 C                    -0.499355
      4 C                     0.181624
      5 C                    -1.148314
      6 C                     1.345430
      7 H                     0.110917
      8 H                     0.168543
      9 C                    -0.552105
     10 H                     0.148466
     11 H                     0.158276
     12 H                     0.149210
     13 H                     0.141152
     14 H                     0.155862
     15 H                     0.137873
     16 C                     0.202986
     17 C                    -0.700704
     18 C                    -0.499295
     19 C                     0.182461
     20 C                    -1.148759
     21 C                     1.345010
     22 H                     0.111073
     23 H                     0.168455
     24 C                    -0.551929
     25 H                     0.148208
     26 H                     0.158591
     27 H                     0.149082
     28 H                     0.141147
     29 H                     0.155870
     30 H                     0.137803
  ----------------------------------------
  Sum of atomic charges =     0.000000

                    Cartesian Multipole Moments
 -----------------------------------------------------------------
    Charge (ESU x 10^10)
                 0.0000
    Dipole Moment (Debye)
         X      -0.0029      Y       0.7580      Z       0.1445
       Tot       0.7716
    Quadrupole Moments (Debye-Ang)
        XX     -93.2257     XY       0.0270     YY     -76.8243
        XZ      -0.0320     YZ       0.0826     ZZ     -78.2571

 Total job time:  45.65s(wall), 181.94s(cpu)
        *  Thank you very much for using Q-Chem.  Have a nice day.  *
