 Q-Chem 5.0, Q-Chem, Inc., Pleasanton, CA (2017)
 Q-Chem 5.0.1 for Intel X86 EM64T Linux

User input:
--------------------------------------------------------------
$molecule
0  1
C        -0.71875000        -1.04834000        +5.01707000
C        -0.73140000        +0.35414000        +5.13889000
C        -1.91751000        -1.78080000        +4.95844000
C        -3.11383000        -1.06520000        +5.03111000
C        -3.12744000        +0.31791000        +5.15330000
C        -1.94592000        +1.05940000        +5.21206000
H        -4.07785000        +0.83861000        +5.20106000
H        -4.05323000        -1.60675000        +4.99408000
C        -2.01391000        +2.56282000        +5.33235000
H        -1.41645000        +3.05888000        +4.56331000
H        -1.62934000        +2.89963000        +6.29680000
H        -3.04642000        +2.90159000        +5.23034000
H        -1.91309000        -2.80857000        +4.86521000
H        +0.18394000        -1.54630000        +4.97010000
H        +0.16120000        +0.87085000        +5.17493000
@C        -0.54444000        -0.68370000        -0.06689000
@C        -0.55709000        +0.71878000        +0.05493000
@C        -1.74320000        -1.41616000        -0.12552000
@C        -2.93952000        -0.70056000        -0.05285000
@C        -2.95313000        +0.68255000        +0.06934000
@C        -1.77161000        +1.42404000        +0.12810000
@H        -3.90354000        +1.20325000        +0.11710000
@H        -3.87892000        -1.24211000        -0.08988000
@C        -1.83960000        +2.92746000        +0.24839000
@H        -1.24214000        +3.42352000        -0.52065000
@H        -1.45503000        +3.26427000        +1.21284000
@H        -2.87211000        +3.26623000        +0.14638000
@H        -1.73878000        -2.44393000        -0.21875000
@H        +0.35825000        -1.18166000        -0.11386000
@H        +0.33551000        +1.23549000        +0.09097000
$end

$rem
JOBTYPE                   SP
METHOD                    B3LYP
DFT_D                     d3_op
BASIS                     6-311++G(d,p)
SYMMETRY                  False
THRESH                    12
SCF_CONVERGENCE           8
MAX_SUB_FILE_NUM          128
MEM_STATIC                400
MEM_TOTAL                 4000
$end
--------------------------------------------------------------

             Standard Nuclear Orientation (Angstroms)
    I     Atom           X                Y                Z
 ----------------------------------------------------------------
    1      C      -0.7187500000    -1.0483400000     5.0170700000
    2      C      -0.7314000000     0.3541400000     5.1388900000
    3      C      -1.9175100000    -1.7808000000     4.9584400000
    4      C      -3.1138300000    -1.0652000000     5.0311100000
    5      C      -3.1274400000     0.3179100000     5.1533000000
    6      C      -1.9459200000     1.0594000000     5.2120600000
    7      H      -4.0778500000     0.8386100000     5.2010600000
    8      H      -4.0532300000    -1.6067500000     4.9940800000
    9      C      -2.0139100000     2.5628200000     5.3323500000
   10      H      -1.4164500000     3.0588800000     4.5633100000
   11      H      -1.6293400000     2.8996300000     6.2968000000
   12      H      -3.0464200000     2.9015900000     5.2303400000
   13      H      -1.9130900000    -2.8085700000     4.8652100000
   14      H       0.1839400000    -1.5463000000     4.9701000000
   15      H       0.1612000000     0.8708500000     5.1749300000
   16      GH     -0.5444400000    -0.6837000000    -0.0668900000
   17      GH     -0.5570900000     0.7187800000     0.0549300000
   18      GH     -1.7432000000    -1.4161600000    -0.1255200000
   19      GH     -2.9395200000    -0.7005600000    -0.0528500000
   20      GH     -2.9531300000     0.6825500000     0.0693400000
   21      GH     -1.7716100000     1.4240400000     0.1281000000
   22      GH     -3.9035400000     1.2032500000     0.1171000000
   23      GH     -3.8789200000    -1.2421100000    -0.0898800000
   24      GH     -1.8396000000     2.9274600000     0.2483900000
   25      GH     -1.2421400000     3.4235200000    -0.5206500000
   26      GH     -1.4550300000     3.2642700000     1.2128400000
   27      GH     -2.8721100000     3.2662300000     0.1463800000
   28      GH     -1.7387800000    -2.4439300000    -0.2187500000
   29      GH      0.3582500000    -1.1816600000    -0.1138600000
   30      GH      0.3355100000     1.2354900000     0.0909700000
 ----------------------------------------------------------------

   12    -271.6437331759      9.69E-09 Convergence criterion met
 Total energy in the final basis set = -271.64373318

                    Orbital Energies (a.u.)
 --------------------------------------------------------------

 Alpha MOs
 -- Occupied --
-10.185 -10.174 -10.172 -10.171 -10.170 -10.169 -10.169  -0.858
 -0.776  -0.747  -0.691  -0.611  -0.591  -0.521  -0.465  -0.462
 -0.424  -0.423  -0.418  -0.390  -0.358  -0.350  -0.342  -0.255
 -0.247

          Ground-State Mulliken Net Atomic Charges

     Atom                 Charge (a.u.)
  ----------------------------------------
      1 C                    -0.121521
      2 C                    -0.376418
      3 C                    -0.315988
      4 C                    -0.165299
      5 C                    -0.488148
      6 C                     0.872636
      7 H                     0.148215
      8 H                     0.171767
      9 C                    -0.648628
     10 H                     0.153182
     11 H                     0.158608
     12 H                     0.145129
     13 H                     0.150329
     14 H                     0.160915
     15 H                     0.166664
     16 GH                   -0.017851
     17 GH                    0.011407
     18 GH                    0.017540
     19 GH                   -0.015090
     20 GH                   -0.002310
     21 GH                   -0.010238
     22 GH                   -0.000565
     23 GH                   -0.000402
     24 GH                    0.007635
     25 GH                   -0.000313
     26 GH                   -0.002439
     27 GH                    0.000887
     28 GH                    0.001628
     29 GH                   -0.001037
     30 GH                   -0.000295
  ----------------------------------------
  Sum of atomic charges =     0.000000

                    Cartesian Multipole Moments
 -----------------------------------------------------------------
    Charge (ESU x 10^10)
                 0.0000
    Dipole Moment (Debye)
         X       0.0626      Y       0.3873      Z       0.0330
       Tot       0.3937
    Quadrupole Moments (Debye-Ang)
        XX     -39.3819     XY      -0.7200     YY     -38.3583
        XZ       0.2266     YZ       2.6830     ZZ     -46.0784

 Total job time:  77.84s(wall), 309.73s(cpu)
        *  Thank you very much for using Q-Chem.  Have a nice day.  *
