 Q-Chem 5.0, Q-Chem, Inc., Pleasanton, CA (2017)
 Q-Chem 5.0.1 for Intel X86 EM64T Linux

User input:
--------------------------------------------------------------
$molecule
0  1
C        -0.55335000        -0.66344000        -0.04955000
C        -0.58369000        +0.72363000        +0.07143000
C        -1.74416000        -1.38805000        -0.12104000
C        -2.96100000        -0.71253000        -0.06974000
C        -2.98560000        +0.67733000        +0.05133000
C        -1.80096000        +1.41593000        +0.12202000
H        -3.93869000        +1.19496000        +0.09042000
H        -3.89285000        -1.26490000        -0.12448000
C        -1.82561000        +2.92062000        +0.24749000
H        -1.30124000        +3.39464000        -0.58804000
H        -1.33421000        +3.24931000        +1.16844000
H        -2.84892000        +3.30103000        +0.25949000
H        -1.72216000        -2.46788000        -0.21620000
H        +0.39889000        -1.18111000        -0.08841000
H        +0.34820000        +1.27792000        +0.12648000
@C        -0.57917000        -1.00260000        +3.83559000
@C        -0.60951000        +0.38447000        +3.95657000
@C        -1.76998000        -1.72721000        +3.76410000
@C        -2.98682000        -1.05169000        +3.81540000
@C        -3.01142000        +0.33817000        +3.93647000
@C        -1.82678000        +1.07677000        +4.00716000
@H        -3.96451000        +0.85580000        +3.97556000
@H        -3.91867000        -1.60406000        +3.76066000
@C        -1.85143000        +2.58146000        +4.13263000
@H        -1.32706000        +3.05548000        +3.29710000
@H        -1.36003000        +2.91015000        +5.05358000
@H        -2.87474000        +2.96187000        +4.14463000
@H        -1.74798000        -2.80704000        +3.66894000
@H        +0.37307000        -1.52027000        +3.79673000
@H        +0.32238000        +0.93876000        +4.01162000
$end

$rem
JOBTYPE                   SP
METHOD                    B3LYP
DFT_D                     d3_op
BASIS                     6-311++G(d,p)
SYMMETRY                  False
THRESH                    12
SCF_CONVERGENCE           8
MAX_SUB_FILE_NUM          128
MEM_STATIC                400
MEM_TOTAL                 4000
$end
--------------------------------------------------------------

             Standard Nuclear Orientation (Angstroms)
    I     Atom           X                Y                Z
 ----------------------------------------------------------------
    1      C      -0.5533500000    -0.6634400000    -0.0495500000
    2      C      -0.5836900000     0.7236300000     0.0714300000
    3      C      -1.7441600000    -1.3880500000    -0.1210400000
    4      C      -2.9610000000    -0.7125300000    -0.0697400000
    5      C      -2.9856000000     0.6773300000     0.0513300000
    6      C      -1.8009600000     1.4159300000     0.1220200000
    7      H      -3.9386900000     1.1949600000     0.0904200000
    8      H      -3.8928500000    -1.2649000000    -0.1244800000
    9      C      -1.8256100000     2.9206200000     0.2474900000
   10      H      -1.3012400000     3.3946400000    -0.5880400000
   11      H      -1.3342100000     3.2493100000     1.1684400000
   12      H      -2.8489200000     3.3010300000     0.2594900000
   13      H      -1.7221600000    -2.4678800000    -0.2162000000
   14      H       0.3988900000    -1.1811100000    -0.0884100000
   15      H       0.3482000000     1.2779200000     0.1264800000
   16      GH     -0.5791700000    -1.0026000000     3.8355900000
   17      GH     -0.6095100000     0.3844700000     3.9565700000
   18      GH     -1.7699800000    -1.7272100000     3.7641000000
   19      GH     -2.9868200000    -1.0516900000     3.8154000000
   20      GH     -3.0114200000     0.3381700000     3.9364700000
   21      GH     -1.8267800000     1.0767700000     4.0071600000
   22      GH     -3.9645100000     0.8558000000     3.9755600000
   23      GH     -3.9186700000    -1.6040600000     3.7606600000
   24      GH     -1.8514300000     2.5814600000     4.1326300000
   25      GH     -1.3270600000     3.0554800000     3.2971000000
   26      GH     -1.3600300000     2.9101500000     5.0535800000
   27      GH     -2.8747400000     2.9618700000     4.1446300000
   28      GH     -1.7479800000    -2.8070400000     3.6689400000
   29      GH      0.3730700000    -1.5202700000     3.7967300000
   30      GH      0.3223800000     0.9387600000     4.0116200000
 ----------------------------------------------------------------

   13    -271.6505486104      8.98E-10 Convergence criterion met
 Total energy in the final basis set = -271.65054861

                    Orbital Energies (a.u.)
 --------------------------------------------------------------

 Alpha MOs
 -- Occupied --
-10.185 -10.176 -10.175 -10.173 -10.173 -10.173 -10.170  -0.860
 -0.775  -0.748  -0.689  -0.608  -0.587  -0.515  -0.464  -0.457
 -0.424  -0.423  -0.412  -0.389  -0.359  -0.346  -0.343  -0.257
 -0.248

          Ground-State Mulliken Net Atomic Charges

     Atom                 Charge (a.u.)
  ----------------------------------------
      1 C                    -0.204404
      2 C                    -0.180904
      3 C                    -0.331139
      4 C                    -0.266493
      5 C                    -0.211605
      6 C                     0.587690
      7 H                     0.162183
      8 H                     0.173711
      9 C                    -0.731408
     10 H                     0.156165
     11 H                     0.172364
     12 H                     0.140316
     13 H                     0.154067
     14 H                     0.169585
     15 H                     0.180629
     16 GH                   -0.011591
     17 GH                    0.026397
     18 GH                    0.005952
     19 GH                   -0.006008
     20 GH                   -0.011998
     21 GH                   -0.004790
     22 GH                    0.005786
     23 GH                    0.003668
     24 GH                    0.015644
     25 GH                   -0.010166
     26 GH                    0.000158
     27 GH                    0.001578
     28 GH                    0.004043
     29 GH                    0.004378
     30 GH                    0.006189
  ----------------------------------------
  Sum of atomic charges =    -0.000000

                    Cartesian Multipole Moments
 -----------------------------------------------------------------
    Charge (ESU x 10^10)
                -0.0000
    Dipole Moment (Debye)
         X       0.0350      Y       0.4017      Z       0.0396
       Tot       0.4052
    Quadrupole Moments (Debye-Ang)
        XX     -39.2862     XY      -0.6424     YY     -38.4404
        XZ      -0.0162     YZ       0.7026     ZZ     -46.4525

 Total job time:  104.10s(wall), 414.31s(cpu)
        *  Thank you very much for using Q-Chem.  Have a nice day.  *
