 Q-Chem 5.0, Q-Chem, Inc., Pleasanton, CA (2017)
 Q-Chem 5.0.1 for Intel X86 EM64T Linux

User input:
--------------------------------------------------------------
$molecule
0  1
--
0  1
C        -0.54444000        -0.68370000        -0.06689000
C        -0.55709000        +0.71878000        +0.05493000
C        -1.74320000        -1.41616000        -0.12552000
C        -2.93952000        -0.70056000        -0.05285000
C        -2.95313000        +0.68255000        +0.06934000
C        -1.77161000        +1.42404000        +0.12810000
H        -3.90354000        +1.20325000        +0.11710000
H        -3.87892000        -1.24211000        -0.08988000
C        -1.83960000        +2.92746000        +0.24839000
H        -1.24214000        +3.42352000        -0.52065000
H        -1.45503000        +3.26427000        +1.21284000
H        -2.87211000        +3.26623000        +0.14638000
H        -1.73878000        -2.44393000        -0.21875000
H        +0.35825000        -1.18166000        -0.11386000
H        +0.33551000        +1.23549000        +0.09097000
--
0  1
C        -0.50934000        -1.12838000        +5.01357000
C        -0.52199000        +0.27410000        +5.13539000
C        -1.70810000        -1.86084000        +4.95494000
C        -2.90442000        -1.14524000        +5.02761000
C        -2.91803000        +0.23787000        +5.14980000
C        -1.73651000        +0.97936000        +5.20856000
H        -3.86844000        +0.75857000        +5.19756000
H        -3.84382000        -1.68679000        +4.99058000
C        -1.80450000        +2.48278000        +5.32885000
H        -1.20704000        +2.97884000        +4.55981000
H        -1.41993000        +2.81959000        +6.29330000
H        -2.83701000        +2.82155000        +5.22684000
H        -1.70368000        -2.88861000        +4.86171000
H        +0.39335000        -1.62634000        +4.96660000
H        +0.37061000        +0.79081000        +5.17143000
$end

$rem
JOBTYPE                   SP
METHOD                    B3LYP
DFT_D                     d3_op
BASIS                     6-311++G(d,p)
SYMMETRY                  False
THRESH                    12
SCF_CONVERGENCE           8
MAX_SUB_FILE_NUM          128
MEM_STATIC                400
MEM_TOTAL                 4000
$end
--------------------------------------------------------------

             Standard Nuclear Orientation (Angstroms)
    I     Atom           X                Y                Z
 ----------------------------------------------------------------
    1      C       2.5463507988    -1.2311348514     1.1901546192
    2      C       2.5486855953     0.1763947421     1.2185320313
    3      C       2.5485403360    -1.9306814787    -0.0295135275
    4      C       2.5475334772    -1.1769184843    -1.2044118915
    5      C       2.5477994655     0.2113856317    -1.1775695515
    6      C       2.5463960560     0.9204367929     0.0251333001
    7      H       2.5527201696     0.7617306195    -2.1123341511
    8      H       2.5432276442    -1.6920295394    -2.1592742083
    9      C       2.5595347321     2.4299460673     0.0011928284
   10      H       3.3651239954     2.8385570991     0.6164321805
   11      H       1.6258667136     2.8392458404     0.3913679051
   12      H       2.6981778857     2.7883173781    -1.0203727019
   13      H       2.5508050428    -2.9623600621    -0.0551399553
   14      H       2.5429788982    -1.7573785937     2.0778909160
   15      H       2.5521140011     0.6680491628     2.1258836953
   16      C      -2.5536514858    -1.2263629483     1.1899321980
   17      C      -2.5513166894     0.1811666452     1.2183096100
   18      C      -2.5514619487    -1.9259095756    -0.0297359488
   19      C      -2.5524688074    -1.1721465812    -1.2046343128
   20      C      -2.5522028191     0.2161575348    -1.1777919728
   21      C      -2.5536062286     0.9252086960     0.0249108789
   22      H      -2.5472821151     0.7665025226    -2.1125565724
   23      H      -2.5567746405    -1.6872576363    -2.1594966296
   24      C      -2.5404675526     2.4347179704     0.0009704072
   25      H      -1.7348782893     2.8433290022     0.6162097593
   26      H      -3.4741355711     2.8440177435     0.3911454838
   27      H      -2.4018243989     2.7930892812    -1.0205951231
   28      H      -2.5491972419    -2.9575881591    -0.0553623766
   29      H      -2.5570233865    -1.7526066906     2.0776684948
   30      H      -2.5478882836     0.6728210659     2.1256612741
 ----------------------------------------------------------------

   13    -543.2879692800      5.35E-09 Convergence criterion met
 Total energy in the final basis set = -543.28796928

                    Orbital Energies (a.u.)
 --------------------------------------------------------------

 Alpha MOs
 -- Occupied --
-10.182 -10.182 -10.171 -10.170 -10.169 -10.169 -10.168 -10.168
-10.168 -10.168 -10.166 -10.166 -10.166 -10.166  -0.855  -0.855
 -0.773  -0.773  -0.744  -0.744  -0.689  -0.689  -0.608  -0.608
 -0.588  -0.588  -0.518  -0.518  -0.462  -0.462  -0.460  -0.459
 -0.423  -0.421  -0.420  -0.420  -0.415  -0.415  -0.388  -0.388
 -0.356  -0.353  -0.348  -0.347  -0.339  -0.339  -0.252  -0.250
 -0.245  -0.243

          Ground-State Mulliken Net Atomic Charges

     Atom                 Charge (a.u.)
  ----------------------------------------
      1 C                    -0.067385
      2 C                    -0.425521
      3 C                    -0.312370
      4 C                    -0.119401
      5 C                    -0.601319
      6 C                     0.941482
      7 H                     0.144953
      8 H                     0.166036
      9 C                    -0.640577
     10 H                     0.146039
     11 H                     0.154056
     12 H                     0.144248
     13 H                     0.149147
     14 H                     0.156585
     15 H                     0.163511
     16 C                    -0.128660
     17 C                    -0.376710
     18 C                    -0.297055
     19 C                    -0.178220
     20 C                    -0.481103
     21 C                     0.880632
     22 H                     0.145499
     23 H                     0.167928
     24 C                    -0.651808
     25 H                     0.147526
     26 H                     0.157598
     27 H                     0.143894
     28 H                     0.149059
     29 H                     0.158117
     30 H                     0.163820
  ----------------------------------------
  Sum of atomic charges =     0.000000

                    Cartesian Multipole Moments
 -----------------------------------------------------------------
    Charge (ESU x 10^10)
                 0.0000
    Dipole Moment (Debye)
         X      -0.0056      Y       0.6552      Z       0.1304
       Tot       0.6681
    Quadrupole Moments (Debye-Ang)
        XX     -93.9710     XY       0.0421     YY     -77.1746
        XZ      -0.0306     YZ       0.0552     ZZ     -78.4169

 Total job time:  82.57s(wall), 329.08s(cpu)
        *  Thank you very much for using Q-Chem.  Have a nice day.  *
