 Q-Chem 5.0, Q-Chem, Inc., Pleasanton, CA (2017)
 Q-Chem 5.0.1 for Intel X86 EM64T Linux

User input:
--------------------------------------------------------------
$molecule
0  1
--
0  1
C        -0.55335000        -0.66344000        -0.04955000
C        -0.58369000        +0.72363000        +0.07143000
C        -1.74416000        -1.38805000        -0.12104000
C        -2.96100000        -0.71253000        -0.06974000
C        -2.98560000        +0.67733000        +0.05133000
C        -1.80096000        +1.41593000        +0.12202000
H        -3.93869000        +1.19496000        +0.09042000
H        -3.89285000        -1.26490000        -0.12448000
C        -1.82561000        +2.92062000        +0.24749000
H        -1.30124000        +3.39464000        -0.58804000
H        -1.33421000        +3.24931000        +1.16844000
H        -2.84892000        +3.30103000        +0.25949000
H        -1.72216000        -2.46788000        -0.21620000
H        +0.39889000        -1.18111000        -0.08841000
H        +0.34820000        +1.27792000        +0.12648000
--
0  1
C        -0.57917000        -1.00260000        +3.83559000
C        -0.60951000        +0.38447000        +3.95657000
C        -1.76998000        -1.72721000        +3.76410000
C        -2.98682000        -1.05169000        +3.81540000
C        -3.01142000        +0.33817000        +3.93647000
C        -1.82678000        +1.07677000        +4.00716000
H        -3.96451000        +0.85580000        +3.97556000
H        -3.91867000        -1.60406000        +3.76066000
C        -1.85143000        +2.58146000        +4.13263000
H        -1.32706000        +3.05548000        +3.29710000
H        -1.36003000        +2.91015000        +5.05358000
H        -2.87474000        +2.96187000        +4.14463000
H        -1.74798000        -2.80704000        +3.66894000
H        +0.37307000        -1.52027000        +3.79673000
H        +0.32238000        +0.93876000        +4.01162000
$end

$rem
JOBTYPE                   SP
METHOD                    B3LYP
DFT_D                     d3_op
BASIS                     6-311++G(d,p)
SYMMETRY                  False
THRESH                    12
SCF_CONVERGENCE           8
MAX_SUB_FILE_NUM          128
MEM_STATIC                400
MEM_TOTAL                 4000
$end
--------------------------------------------------------------

             Standard Nuclear Orientation (Angstroms)
    I     Atom           X                Y                Z
 ----------------------------------------------------------------
    1      C       1.9453453198    -1.2001509563     1.2062312621
    2      C       1.9487057529     0.1924991116     1.2003697986
    3      C       1.9439247471    -1.9071869283     0.0027791257
    4      C       1.9452582107    -1.2084812298    -1.2019893644
    5      C       1.9488162103     0.1868543068    -1.2020638575
    6      C       1.9522442473     0.9078593078    -0.0045501821
    7      H       1.9499210667     0.7225947162    -2.1459019719
    8      H       1.9442593404    -1.7470523408    -2.1434741851
    9      C       1.9616894321     2.4179419821    -0.0026941750
   10      H       2.8396892746     2.8061493552     0.5228346541
   11      H       1.0770720563     2.8188699912     0.5016557120
   12      H       1.9770419447     2.8158481064    -1.0192836403
   13      H       1.9422715080    -2.9914197916     0.0057150133
   14      H       1.9440022327    -1.7358957043     2.1492207144
   15      H       1.9495678493     0.7330092338     2.1419296445
   16      C      -1.9546438319    -1.1904756414     1.2061835987
   17      C      -1.9512833989     0.2021744265     1.2003221352
   18      C      -1.9560644046    -1.8975116135     0.0027314623
   19      C      -1.9547309411    -1.1988059149    -1.2020370278
   20      C      -1.9511729414     0.1965296216    -1.2021115209
   21      C      -1.9477449045     0.9175346226    -0.0045978455
   22      H      -1.9500680850     0.7322700310    -2.1459496353
   23      H      -1.9557298114    -1.7373770260    -2.1435218485
   24      C      -1.9382997196     2.4276172969    -0.0027418384
   25      H      -1.0602998772     2.8158246700     0.5227869907
   26      H      -2.8229170954     2.8285453060     0.5016080486
   27      H      -1.9229472071     2.8255234212    -1.0193313037
   28      H      -1.9577176437    -2.9817444768     0.0056673499
   29      H      -1.9559869190    -1.7262203895     2.1491730510
   30      H      -1.9504213024     0.7426845486     2.1418819811
 ----------------------------------------------------------------

   13    -543.3035770612      6.22E-09 Convergence criterion met
 Total energy in the final basis set = -543.30357706

                    Orbital Energies (a.u.)
 --------------------------------------------------------------

 Alpha MOs
 -- Occupied --
-10.180 -10.180 -10.171 -10.171 -10.170 -10.170 -10.168 -10.168
-10.168 -10.168 -10.168 -10.168 -10.168 -10.168  -0.856  -0.854
 -0.772  -0.770  -0.743  -0.742  -0.687  -0.684  -0.604  -0.603
 -0.584  -0.582  -0.511  -0.510  -0.461  -0.459  -0.454  -0.452
 -0.433  -0.419  -0.418  -0.412  -0.409  -0.407  -0.388  -0.385
 -0.363  -0.346  -0.343  -0.341  -0.340  -0.338  -0.259  -0.250
 -0.243  -0.235

          Ground-State Mulliken Net Atomic Charges

     Atom                 Charge (a.u.)
  ----------------------------------------
      1 C                    -0.203490
      2 C                    -0.194688
      3 C                    -0.318018
      4 C                    -0.276013
      5 C                    -0.205662
      6 C                     0.611460
      7 H                     0.161779
      8 H                     0.171049
      9 C                    -0.686673
     10 H                     0.154872
     11 H                     0.146892
     12 H                     0.139638
     13 H                     0.152324
     14 H                     0.168132
     15 H                     0.177792
     16 C                    -0.221149
     17 C                    -0.152980
     18 C                    -0.315371
     19 C                    -0.261965
     20 C                    -0.235981
     21 C                     0.611510
     22 H                     0.161186
     23 H                     0.171422
     24 C                    -0.691460
     25 H                     0.140815
     26 H                     0.155588
     27 H                     0.139258
     28 H                     0.152253
     29 H                     0.167636
     30 H                     0.179843
  ----------------------------------------
  Sum of atomic charges =    -0.000000

                    Cartesian Multipole Moments
 -----------------------------------------------------------------
    Charge (ESU x 10^10)
                -0.0000
    Dipole Moment (Debye)
         X       0.0074      Y       0.5984      Z       0.0477
       Tot       0.6003
    Quadrupole Moments (Debye-Ang)
        XX     -94.5182     XY       0.0418     YY     -78.2964
        XZ      -0.0025     YZ       0.0471     ZZ     -78.6442

 Total job time:  105.52s(wall), 420.13s(cpu)
        *  Thank you very much for using Q-Chem.  Have a nice day.  *
