 Q-Chem 5.0, Q-Chem, Inc., Pleasanton, CA (2017)
 Q-Chem 5.0.1 for Intel X86 EM64T Linux

User input:
--------------------------------------------------------------
$molecule
0  1
--
0  1
C        -0.54444000        -0.68370000        -0.06689000
C        -0.55709000        +0.71878000        +0.05493000
C        -1.74320000        -1.41616000        -0.12552000
C        -2.93952000        -0.70056000        -0.05285000
C        -2.95313000        +0.68255000        +0.06934000
C        -1.77161000        +1.42404000        +0.12810000
H        -3.90354000        +1.20325000        +0.11710000
H        -3.87892000        -1.24211000        -0.08988000
C        -1.83960000        +2.92746000        +0.24839000
H        -1.24214000        +3.42352000        -0.52065000
H        -1.45503000        +3.26427000        +1.21284000
H        -2.87211000        +3.26623000        +0.14638000
H        -1.73878000        -2.44393000        -0.21875000
H        +0.35825000        -1.18166000        -0.11386000
H        +0.33551000        +1.23549000        +0.09097000
--
0  1
C        -0.71875000        -1.04834000        +5.01707000
C        -0.73140000        +0.35414000        +5.13889000
C        -1.91751000        -1.78080000        +4.95844000
C        -3.11383000        -1.06520000        +5.03111000
C        -3.12744000        +0.31791000        +5.15330000
C        -1.94592000        +1.05940000        +5.21206000
H        -4.07785000        +0.83861000        +5.20106000
H        -4.05323000        -1.60675000        +4.99408000
C        -2.01391000        +2.56282000        +5.33235000
H        -1.41645000        +3.05888000        +4.56331000
H        -1.62934000        +2.89963000        +6.29680000
H        -3.04642000        +2.90159000        +5.23034000
H        -1.91309000        -2.80857000        +4.86521000
H        +0.18394000        -1.54630000        +4.97010000
H        +0.16120000        +0.87085000        +5.17493000
$end

$rem
JOBTYPE                   SP
METHOD                    B3LYP
DFT_D                     d3_op
BASIS                     6-311++G(d,p)
SYMMETRY                  False
THRESH                    12
SCF_CONVERGENCE           8
MAX_SUB_FILE_NUM          128
MEM_STATIC                400
MEM_TOTAL                 4000
$end
--------------------------------------------------------------

             Standard Nuclear Orientation (Angstroms)
    I     Atom           X                Y                Z
 ----------------------------------------------------------------
    1      C       2.6363983128    -1.2039768457     1.1696161305
    2      C       2.6026745513     0.2031662448     1.1972080863
    3      C       2.5982087250    -1.9053402168    -0.0484116373
    4      C       2.5203479443    -1.1539149225    -1.2222274479
    5      C       2.4849955173     0.2339519182    -1.1960599367
    6      C       2.5228969434     0.9448078031     0.0049800547
    7      H       2.4300739949     0.7826063013    -2.1302176696
    8      H       2.4835733358    -1.6706195534    -2.1755290455
    9      C       2.4947190492     2.4540901780    -0.0202536465
   10      H       3.3179654842     2.8850056268     0.5551016176
   11      H       1.5704571602     2.8391468050     0.4144534019
   12      H       2.5742236528     2.8142364188    -1.0474935194
   13      H       2.6266638647    -2.9366383886    -0.0736490730
   14      H       2.6899513495    -1.7285792376     2.0567147616
   15      H       2.6368994136     0.6963165825     2.1031077877
   16      C      -2.4632518678    -1.2487040260     1.2091522153
   17      C      -2.4969756293     0.1584390645     1.2367441711
   18      C      -2.5014414556    -1.9500673972    -0.0088755525
   19      C      -2.5793022363    -1.1986421029    -1.1826913631
   20      C      -2.6146546633     0.1892247378    -1.1565238519
   21      C      -2.5767532372     0.9000806227     0.0445161395
   22      H      -2.6695761857     0.7378791209    -2.0906815848
   23      H      -2.6160768448    -1.7153467338    -2.1359929607
   24      C      -2.6049311314     2.4093629976     0.0192824382
   25      H      -1.7816846964     2.8402784464     0.5946377024
   26      H      -3.5291930204     2.7944196246     0.4539894867
   27      H      -2.5254265279     2.7695092384    -1.0079574346
   28      H      -2.4729863160    -2.9813655689    -0.0341129882
   29      H      -2.4096988311    -1.7733064180     2.0962508464
   30      H      -2.4627507670     0.6515894021     2.1426438725
 ----------------------------------------------------------------

   13    -543.2879590968      6.35E-09 Convergence criterion met
 Total energy in the final basis set = -543.28795910

                    Orbital Energies (a.u.)
 --------------------------------------------------------------

 Alpha MOs
 -- Occupied --
-10.182 -10.182 -10.171 -10.170 -10.169 -10.169 -10.168 -10.168
-10.168 -10.167 -10.166 -10.166 -10.166 -10.166  -0.855  -0.855
 -0.773  -0.773  -0.744  -0.744  -0.689  -0.689  -0.608  -0.608
 -0.588  -0.588  -0.518  -0.518  -0.462  -0.462  -0.460  -0.459
 -0.423  -0.421  -0.420  -0.420  -0.415  -0.415  -0.388  -0.388
 -0.356  -0.353  -0.348  -0.347  -0.339  -0.339  -0.252  -0.250
 -0.245  -0.243

          Ground-State Mulliken Net Atomic Charges

     Atom                 Charge (a.u.)
  ----------------------------------------
      1 C                    -0.063936
      2 C                    -0.429139
      3 C                    -0.320811
      4 C                    -0.111662
      5 C                    -0.604027
      6 C                     0.954765
      7 H                     0.144146
      8 H                     0.166269
      9 C                    -0.649740
     10 H                     0.145693
     11 H                     0.153382
     12 H                     0.144525
     13 H                     0.148993
     14 H                     0.156996
     15 H                     0.163484
     16 C                    -0.128471
     17 C                    -0.362887
     18 C                    -0.294136
     19 C                    -0.181991
     20 C                    -0.494378
     21 C                     0.877681
     22 H                     0.145056
     23 H                     0.168477
     24 C                    -0.649360
     25 H                     0.148074
     26 H                     0.157684
     27 H                     0.144631
     28 H                     0.149069
     29 H                     0.157685
     30 H                     0.163929
  ----------------------------------------
  Sum of atomic charges =     0.000000

                    Cartesian Multipole Moments
 -----------------------------------------------------------------
    Charge (ESU x 10^10)
                 0.0000
    Dipole Moment (Debye)
         X      -0.0183      Y       0.6556      Z       0.1296
       Tot       0.6685
    Quadrupole Moments (Debye-Ang)
        XX     -93.9293     XY      -0.3756     YY     -77.1827
        XZ       0.6479     YZ       0.0699     ZZ     -78.4501

 Total job time:  83.37s(wall), 331.48s(cpu)
        *  Thank you very much for using Q-Chem.  Have a nice day.  *
