 Q-Chem 5.0, Q-Chem, Inc., Pleasanton, CA (2017)
 Q-Chem 5.0.1 for Intel X86 EM64T Linux

User input:
--------------------------------------------------------------
$molecule
0  1
C        -0.47562000        -1.55562000        +9.89479000
C        -0.48827000        -0.15314000       +10.01661000
C        -1.67438000        -2.28808000        +9.83616000
C        -2.87070000        -1.57248000        +9.90883000
C        -2.88431000        -0.18937000       +10.03102000
C        -1.70279000        +0.55212000       +10.08978000
H        -3.83472000        +0.33133000       +10.07878000
H        -3.81010000        -2.11403000        +9.87180000
C        -1.77078000        +2.05554000       +10.21007000
H        -1.17332000        +2.55160000        +9.44103000
H        -1.38621000        +2.39235000       +11.17452000
H        -2.80329000        +2.39431000       +10.10806000
H        -1.66996000        -3.31585000        +9.74293000
H        +0.42707000        -2.05358000        +9.84782000
H        +0.40433000        +0.36357000       +10.05265000
@C        -0.54444000        -0.68370000        -0.06689000
@C        -0.55709000        +0.71878000        +0.05493000
@C        -1.74320000        -1.41616000        -0.12552000
@C        -2.93952000        -0.70056000        -0.05285000
@C        -2.95313000        +0.68255000        +0.06934000
@C        -1.77161000        +1.42404000        +0.12810000
@H        -3.90354000        +1.20325000        +0.11710000
@H        -3.87892000        -1.24211000        -0.08988000
@C        -1.83960000        +2.92746000        +0.24839000
@H        -1.24214000        +3.42352000        -0.52065000
@H        -1.45503000        +3.26427000        +1.21284000
@H        -2.87211000        +3.26623000        +0.14638000
@H        -1.73878000        -2.44393000        -0.21875000
@H        +0.35825000        -1.18166000        -0.11386000
@H        +0.33551000        +1.23549000        +0.09097000
$end

$rem
JOBTYPE                   SP
METHOD                    B3LYP
DFT_D                     d3_op
BASIS                     6-311++G(d,p)
SYMMETRY                  False
THRESH                    12
SCF_CONVERGENCE           8
MAX_SUB_FILE_NUM          128
MEM_STATIC                400
MEM_TOTAL                 4000
$end
--------------------------------------------------------------

             Standard Nuclear Orientation (Angstroms)
    I     Atom           X                Y                Z
 ----------------------------------------------------------------
    1      C      -0.4756200000    -1.5556200000     9.8947900000
    2      C      -0.4882700000    -0.1531400000    10.0166100000
    3      C      -1.6743800000    -2.2880800000     9.8361600000
    4      C      -2.8707000000    -1.5724800000     9.9088300000
    5      C      -2.8843100000    -0.1893700000    10.0310200000
    6      C      -1.7027900000     0.5521200000    10.0897800000
    7      H      -3.8347200000     0.3313300000    10.0787800000
    8      H      -3.8101000000    -2.1140300000     9.8718000000
    9      C      -1.7707800000     2.0555400000    10.2100700000
   10      H      -1.1733200000     2.5516000000     9.4410300000
   11      H      -1.3862100000     2.3923500000    11.1745200000
   12      H      -2.8032900000     2.3943100000    10.1080600000
   13      H      -1.6699600000    -3.3158500000     9.7429300000
   14      H       0.4270700000    -2.0535800000     9.8478200000
   15      H       0.4043300000     0.3635700000    10.0526500000
   16      GH     -0.5444400000    -0.6837000000    -0.0668900000
   17      GH     -0.5570900000     0.7187800000     0.0549300000
   18      GH     -1.7432000000    -1.4161600000    -0.1255200000
   19      GH     -2.9395200000    -0.7005600000    -0.0528500000
   20      GH     -2.9531300000     0.6825500000     0.0693400000
   21      GH     -1.7716100000     1.4240400000     0.1281000000
   22      GH     -3.9035400000     1.2032500000     0.1171000000
   23      GH     -3.8789200000    -1.2421100000    -0.0898800000
   24      GH     -1.8396000000     2.9274600000     0.2483900000
   25      GH     -1.2421400000     3.4235200000    -0.5206500000
   26      GH     -1.4550300000     3.2642700000     1.2128400000
   27      GH     -2.8721100000     3.2662300000     0.1463800000
   28      GH     -1.7387800000    -2.4439300000    -0.2187500000
   29      GH      0.3582500000    -1.1816600000    -0.1138600000
   30      GH      0.3355100000     1.2354900000     0.0909700000
 ----------------------------------------------------------------

   12    -271.6435251301      9.47E-09 Convergence criterion met
 Total energy in the final basis set = -271.64352513

                    Orbital Energies (a.u.)
 --------------------------------------------------------------

 Alpha MOs
 -- Occupied --
-10.185 -10.174 -10.172 -10.171 -10.170 -10.169 -10.169  -0.858
 -0.776  -0.748  -0.691  -0.611  -0.591  -0.521  -0.465  -0.463
 -0.424  -0.423  -0.418  -0.390  -0.358  -0.350  -0.342  -0.255
 -0.247

          Ground-State Mulliken Net Atomic Charges

     Atom                 Charge (a.u.)
  ----------------------------------------
      1 C                     0.200039
      2 C                    -0.697801
      3 C                    -0.498577
      4 C                     0.181468
      5 C                    -1.146006
      6 C                     1.340088
      7 H                     0.111361
      8 H                     0.168714
      9 C                    -0.551096
     10 H                     0.148090
     11 H                     0.158868
     12 H                     0.149097
     13 H                     0.141311
     14 H                     0.156010
     15 H                     0.138431
     16 GH                    0.000000
     17 GH                   -0.000001
     18 GH                   -0.000001
     19 GH                    0.000000
     20 GH                    0.000000
     21 GH                    0.000000
     22 GH                    0.000000
     23 GH                    0.000000
     24 GH                   -0.000001
     25 GH                   -0.000000
     26 GH                    0.000003
     27 GH                   -0.000000
     28 GH                    0.000000
     29 GH                    0.000000
     30 GH                    0.000000
  ----------------------------------------
  Sum of atomic charges =     0.000000

                    Cartesian Multipole Moments
 -----------------------------------------------------------------
    Charge (ESU x 10^10)
                 0.0000
    Dipole Moment (Debye)
         X       0.0624      Y       0.3877      Z       0.0345
       Tot       0.3942
    Quadrupole Moments (Debye-Ang)
        XX     -39.3384     XY      -0.6579     YY     -38.7392
        XZ       0.5337     YZ       4.5618     ZZ     -45.7394

 Total job time:  38.59s(wall), 153.75s(cpu)
        *  Thank you very much for using Q-Chem.  Have a nice day.  *
