 Q-Chem 5.0, Q-Chem, Inc., Pleasanton, CA (2017)
 Q-Chem 5.0.1 for Intel X86 EM64T Linux

User input:
--------------------------------------------------------------
$molecule
0  1
--
0  1
C        -0.54444000        -0.68370000        -0.06689000
C        -0.55709000        +0.71878000        +0.05493000
C        -1.74320000        -1.41616000        -0.12552000
C        -2.93952000        -0.70056000        -0.05285000
C        -2.95313000        +0.68255000        +0.06934000
C        -1.77161000        +1.42404000        +0.12810000
H        -3.90354000        +1.20325000        +0.11710000
H        -3.87892000        -1.24211000        -0.08988000
C        -1.83960000        +2.92746000        +0.24839000
H        -1.24214000        +3.42352000        -0.52065000
H        -1.45503000        +3.26427000        +1.21284000
H        -2.87211000        +3.26623000        +0.14638000
H        -1.73878000        -2.44393000        -0.21875000
H        +0.35825000        -1.18166000        -0.11386000
H        +0.33551000        +1.23549000        +0.09097000
--
0  1
C        -0.51760000        -1.02375000        +3.81816000
C        -0.53025000        +0.37873000        +3.93998000
C        -1.71636000        -1.75621000        +3.75953000
C        -2.91268000        -1.04061000        +3.83220000
C        -2.92629000        +0.34250000        +3.95439000
C        -1.74477000        +1.08399000        +4.01315000
H        -3.87670000        +0.86320000        +4.00215000
H        -3.85208000        -1.58216000        +3.79517000
C        -1.81276000        +2.58741000        +4.13344000
H        -1.21530000        +3.08347000        +3.36440000
H        -1.42819000        +2.92422000        +5.09789000
H        -2.84527000        +2.92618000        +4.03143000
H        -1.71194000        -2.78398000        +3.66630000
H        +0.38509000        -1.52171000        +3.77119000
H        +0.36235000        +0.89544000        +3.97602000
$end

$rem
JOBTYPE                   SP
METHOD                    B3LYP
DFT_D                     d3_op
BASIS                     6-311++G(d,p)
SYMMETRY                  False
THRESH                    12
SCF_CONVERGENCE           8
MAX_SUB_FILE_NUM          128
MEM_STATIC                400
MEM_TOTAL                 4000
$end
--------------------------------------------------------------

             Standard Nuclear Orientation (Angstroms)
    I     Atom           X                Y                Z
 ----------------------------------------------------------------
    1      C       1.9441116478    -1.2340212201     1.1902116603
    2      C       1.9489405911     0.1735020289     1.2185889420
    3      C       1.9451126368    -1.9335709200    -0.0294562787
    4      C       1.9454918528    -1.1798076046    -1.2043548070
    5      C       1.9482179721     0.2084938644    -1.1775126818
    6      C       1.9480206782     0.9175466855     0.0251899938
    7      H       1.9541539403     0.7588290414    -2.1122771618
    8      H       1.9403132456    -1.6949104437    -2.1592172215
    9      C       1.9638364954     2.4270302890     0.0012498329
   10      H       2.7701228464     2.8342126284     0.6165232351
   11      H       1.0308790520     2.8379847739     0.3913853011
   12      H       2.1031580366     2.7851549987    -1.0203098833
   13      H       1.9455494041    -2.9652519032    -0.0550824426
   14      H       1.9397692003    -1.7602579463     2.0779478991
   15      H       1.9532021991     0.6651498147     2.1259406705
   16      C      -1.9558699190    -1.2234592083     1.1898752457
   17      C      -1.9510409757     0.1840640407     1.2182525274
   18      C      -1.9548689300    -1.9230089081    -0.0297926933
   19      C      -1.9544897140    -1.1692455927    -1.2046912216
   20      C      -1.9517635947     0.2190558763    -1.1778490964
   21      C      -1.9519608886     0.9281086974     0.0248535792
   22      H      -1.9458276265     0.7693910532    -2.1126135764
   23      H      -1.9596683212    -1.6843484318    -2.1595536361
   24      C      -1.9361450714     2.4375923009     0.0009134182
   25      H      -1.1298587204     2.8447746403     0.6161868205
   26      H      -2.8691025148     2.8485467858     0.3910488865
   27      H      -1.7968235302     2.7957170106    -1.0206462979
   28      H      -1.9544321627    -2.9546898914    -0.0554188573
   29      H      -1.9602123665    -1.7496959345     2.0776114845
   30      H      -1.9467793677     0.6757118266     2.1256042558
 ----------------------------------------------------------------

   13    -543.2900175405      6.15E-09 Convergence criterion met
 Total energy in the final basis set = -543.29001754

                    Orbital Energies (a.u.)
 --------------------------------------------------------------

 Alpha MOs
 -- Occupied --
-10.180 -10.180 -10.169 -10.168 -10.168 -10.167 -10.167 -10.167
-10.166 -10.166 -10.164 -10.164 -10.164 -10.164  -0.854  -0.852
 -0.773  -0.771  -0.743  -0.742  -0.689  -0.686  -0.607  -0.606
 -0.587  -0.585  -0.517  -0.516  -0.461  -0.460  -0.459  -0.457
 -0.432  -0.419  -0.418  -0.415  -0.414  -0.411  -0.389  -0.386
 -0.361  -0.347  -0.346  -0.343  -0.338  -0.337  -0.257  -0.250
 -0.241  -0.235

          Ground-State Mulliken Net Atomic Charges

     Atom                 Charge (a.u.)
  ----------------------------------------
      1 C                    -0.143982
      2 C                    -0.340477
      3 C                    -0.272824
      4 C                    -0.321742
      5 C                    -0.189994
      6 C                     0.701890
      7 H                     0.160758
      8 H                     0.163013
      9 C                    -0.691899
     10 H                     0.150573
     11 H                     0.162680
     12 H                     0.141246
     13 H                     0.146919
     14 H                     0.160409
     15 H                     0.165231
     16 C                    -0.263858
     17 C                    -0.058031
     18 C                    -0.323721
     19 C                    -0.210835
     20 C                    -0.312343
     21 C                     0.594441
     22 H                     0.154814
     23 H                     0.173985
     24 C                    -0.652958
     25 H                     0.128539
     26 H                     0.160235
     27 H                     0.136509
     28 H                     0.143599
     29 H                     0.161116
     30 H                     0.176707
  ----------------------------------------
  Sum of atomic charges =     0.000000

                    Cartesian Multipole Moments
 -----------------------------------------------------------------
    Charge (ESU x 10^10)
                 0.0000
    Dipole Moment (Debye)
         X      -0.0195      Y       0.5707      Z       0.1133
       Tot       0.5821
    Quadrupole Moments (Debye-Ang)
        XX     -94.3627     XY       0.0481     YY     -77.6596
        XZ      -0.0312     YZ       0.0099     ZZ     -78.6926

 Total job time:  104.32s(wall), 415.96s(cpu)
        *  Thank you very much for using Q-Chem.  Have a nice day.  *
