 Q-Chem 5.0, Q-Chem, Inc., Pleasanton, CA (2017)
 Q-Chem 5.0.1 for Intel X86 EM64T Linux

User input:
--------------------------------------------------------------
$molecule
0  1
--
0  1
C        -0.54444000        -0.68370000        -0.06689000
C        -0.55709000        +0.71878000        +0.05493000
C        -1.74320000        -1.41616000        -0.12552000
C        -2.93952000        -0.70056000        -0.05285000
C        -2.95313000        +0.68255000        +0.06934000
C        -1.77161000        +1.42404000        +0.12810000
H        -3.90354000        +1.20325000        +0.11710000
H        -3.87892000        -1.24211000        -0.08988000
C        -1.83960000        +2.92746000        +0.24839000
H        -1.24214000        +3.42352000        -0.52065000
H        -1.45503000        +3.26427000        +1.21284000
H        -2.87211000        +3.26623000        +0.14638000
H        -1.73878000        -2.44393000        -0.21875000
H        +0.35825000        -1.18166000        -0.11386000
H        +0.33551000        +1.23549000        +0.09097000
--
0  1
C        -0.88622000        -1.39868000        +9.90166000
C        -0.89887000        +0.00380000       +10.02348000
C        -2.08498000        -2.13114000        +9.84303000
C        -3.28130000        -1.41554000        +9.91570000
C        -3.29491000        -0.03243000       +10.03789000
C        -2.11339000        +0.70906000       +10.09665000
H        -4.24532000        +0.48827000       +10.08565000
H        -4.22070000        -1.95709000        +9.87867000
C        -2.18138000        +2.21248000       +10.21694000
H        -1.58392000        +2.70854000        +9.44790000
H        -1.79681000        +2.54929000       +11.18139000
H        -3.21389000        +2.55125000       +10.11493000
H        -2.08056000        -3.15891000        +9.74980000
H        +0.01647000        -1.89664000        +9.85469000
H        -0.00627000        +0.52051000       +10.05952000
$end

$rem
JOBTYPE                   SP
METHOD                    B3LYP
DFT_D                     d3_op
BASIS                     6-311++G(d,p)
SYMMETRY                  False
THRESH                    12
SCF_CONVERGENCE           8
MAX_SUB_FILE_NUM          128
MEM_STATIC                400
MEM_TOTAL                 4000
$end
--------------------------------------------------------------

             Standard Nuclear Orientation (Angstroms)
    I     Atom           X                Y                Z
 ----------------------------------------------------------------
    1      C       5.0706428009    -1.2191308695     1.1807863021
    2      C       5.0468439985     0.1882130829     1.2084792963
    3      C       5.0347178886    -1.9199920297    -0.0375993925
    4      C       4.9692747701    -1.1678250590    -1.2116981437
    5      C       4.9437176973     0.2202550642    -1.1854434719
    6      C       4.9795242125     0.9306134937     0.0159550729
    7      H       4.8983243778     0.7694504656    -2.1197948690
    8      H       4.9345039692    -1.6840880867    -2.1653141362
    9      C       4.9623195655     2.4400634563    -0.0091214307
   10      H       5.7851753211     2.8649651621     0.5712434913
   11      H       4.0382564006     2.8316627840     0.4201291921
   12      H       5.0505521988     2.7998076989    -1.0357894079
   13      H       5.0559288642    -2.9514633585    -0.0628884124
   14      H       5.1151218487    -1.7442569596     2.0680764364
   15      H       5.0791800525     0.6809488920     2.1146739045
   16      C      -4.9293287444    -1.2351392467     1.1984468784
   17      C      -4.9531275468     0.1722047057     1.2261398725
   18      C      -4.9652536567    -1.9360004070    -0.0199388162
   19      C      -5.0306967753    -1.1838334363    -1.1940375675
   20      C      -5.0562538480     0.2042466870    -1.1677828956
   21      C      -5.0204473329     0.9146051164     0.0336156491
   22      H      -5.1016471675     0.7534420884    -2.1021342928
   23      H      -5.0654675761    -1.7000964640    -2.1476535599
   24      C      -5.0376519798     2.4240550790     0.0085391455
   25      H      -4.2147962242     2.8489567849     0.5889040675
   26      H      -5.9617151448     2.8156544068     0.4377897684
   27      H      -4.9494193465     2.7837993216    -1.0181288317
   28      H      -4.9440426811    -2.9674717358    -0.0452278361
   29      H      -4.8848496966    -1.7602653368     2.0857370127
   30      H      -4.9207914928     0.6649405147     2.1323344807
 ----------------------------------------------------------------

   13    -543.2869443551      2.19E-09 Convergence criterion met
 Total energy in the final basis set = -543.28694436

                    Orbital Energies (a.u.)
 --------------------------------------------------------------

 Alpha MOs
 -- Occupied --
-10.184 -10.184 -10.173 -10.173 -10.171 -10.171 -10.170 -10.170
-10.169 -10.169 -10.169 -10.169 -10.169 -10.169  -0.858  -0.857
 -0.775  -0.775  -0.747  -0.747  -0.691  -0.691  -0.610  -0.610
 -0.590  -0.590  -0.521  -0.521  -0.464  -0.464  -0.462  -0.462
 -0.424  -0.423  -0.422  -0.422  -0.417  -0.417  -0.389  -0.389
 -0.357  -0.357  -0.350  -0.350  -0.342  -0.342  -0.254  -0.254
 -0.247  -0.247

          Ground-State Mulliken Net Atomic Charges

     Atom                 Charge (a.u.)
  ----------------------------------------
      1 C                     0.200937
      2 C                    -0.699207
      3 C                    -0.499175
      4 C                     0.181574
      5 C                    -1.148087
      6 C                     1.345747
      7 H                     0.110903
      8 H                     0.168588
      9 C                    -0.552067
     10 H                     0.148420
     11 H                     0.158262
     12 H                     0.149179
     13 H                     0.141132
     14 H                     0.155826
     15 H                     0.137969
     16 C                     0.202683
     17 C                    -0.700752
     18 C                    -0.499130
     19 C                     0.182288
     20 C                    -1.149063
     21 C                     1.345584
     22 H                     0.111040
     23 H                     0.168474
     24 C                    -0.551854
     25 H                     0.148185
     26 H                     0.158612
     27 H                     0.149034
     28 H                     0.141146
     29 H                     0.155892
     30 H                     0.137860
  ----------------------------------------
  Sum of atomic charges =     0.000000

                    Cartesian Multipole Moments
 -----------------------------------------------------------------
    Charge (ESU x 10^10)
                 0.0000
    Dipole Moment (Debye)
         X      -0.0117      Y       0.7580      Z       0.1442
       Tot       0.7717
    Quadrupole Moments (Debye-Ang)
        XX     -93.1973     XY      -0.2684     YY     -76.8284
        XZ       0.5759     YZ       0.0921     ZZ     -78.2815

 Total job time:  45.64s(wall), 181.33s(cpu)
        *  Thank you very much for using Q-Chem.  Have a nice day.  *
