 Q-Chem 5.0, Q-Chem, Inc., Pleasanton, CA (2017)
 Q-Chem 5.0.1 for Intel X86 EM64T Linux

User input:
--------------------------------------------------------------
$molecule
0  1
C        -0.54444000        -0.68370000        -0.06689000
C        -0.55709000        +0.71878000        +0.05493000
C        -1.74320000        -1.41616000        -0.12552000
C        -2.93952000        -0.70056000        -0.05285000
C        -2.95313000        +0.68255000        +0.06934000
C        -1.77161000        +1.42404000        +0.12810000
H        -3.90354000        +1.20325000        +0.11710000
H        -3.87892000        -1.24211000        -0.08988000
C        -1.83960000        +2.92746000        +0.24839000
C        -1.78103000        -2.92226000        -0.24590000
H        -1.39752000        -3.25223000        -1.21323000
H        -2.80572000        -3.28175000        -0.13627000
H        -1.16958000        -3.40777000        +0.51926000
H        -1.24214000        +3.42352000        -0.52065000
H        -1.45503000        +3.26427000        +1.21284000
H        -2.87211000        +3.26623000        +0.14638000
H        +0.35825000        -1.18166000        -0.11386000
H        +0.33551000        +1.23549000        +0.09097000
@C        -3.59203000        +0.96821000        +9.31306000
@C        -3.60468000        +2.37069000        +9.43488000
@C        -4.79079000        +0.23575000        +9.25443000
@C        -5.98711000        +0.95135000        +9.32710000
@C        -6.00072000        +2.33446000        +9.44929000
@C        -4.81920000        +3.07595000        +9.50805000
@H        -6.95113000        +2.85516000        +9.49705000
@H        -6.92651000        +0.40980000        +9.29007000
@C        -4.88719000        +4.57937000        +9.62834000
@C        -4.82862000        -1.27035000        +9.13405000
@H        -4.44511000        -1.60032000        +8.16672000
@H        -5.85331000        -1.62984000        +9.24368000
@H        -4.21717000        -1.75586000        +9.89921000
@H        -4.28973000        +5.07543000        +8.85930000
@H        -4.50262000        +4.91618000       +10.59279000
@H        -5.91970000        +4.91814000        +9.52633000
@H        -2.68934000        +0.47025000        +9.26609000
@H        -2.71208000        +2.88740000        +9.47092000
$end

$rem
JOBTYPE                   SP
METHOD                    B3LYP
DFT_D                     d3_op
BASIS                     6-311++G(d,p)
SYMMETRY                  False
THRESH                    12
SCF_CONVERGENCE           8
MAX_SUB_FILE_NUM          128
MEM_STATIC                400
MEM_TOTAL                 4000
$end
--------------------------------------------------------------

             Standard Nuclear Orientation (Angstroms)
    I     Atom           X                Y                Z
 ----------------------------------------------------------------
    1      C      -0.5444400000    -0.6837000000    -0.0668900000
    2      C      -0.5570900000     0.7187800000     0.0549300000
    3      C      -1.7432000000    -1.4161600000    -0.1255200000
    4      C      -2.9395200000    -0.7005600000    -0.0528500000
    5      C      -2.9531300000     0.6825500000     0.0693400000
    6      C      -1.7716100000     1.4240400000     0.1281000000
    7      H      -3.9035400000     1.2032500000     0.1171000000
    8      H      -3.8789200000    -1.2421100000    -0.0898800000
    9      C      -1.8396000000     2.9274600000     0.2483900000
   10      C      -1.7810300000    -2.9222600000    -0.2459000000
   11      H      -1.3975200000    -3.2522300000    -1.2132300000
   12      H      -2.8057200000    -3.2817500000    -0.1362700000
   13      H      -1.1695800000    -3.4077700000     0.5192600000
   14      H      -1.2421400000     3.4235200000    -0.5206500000
   15      H      -1.4550300000     3.2642700000     1.2128400000
   16      H      -2.8721100000     3.2662300000     0.1463800000
   17      H       0.3582500000    -1.1816600000    -0.1138600000
   18      H       0.3355100000     1.2354900000     0.0909700000
   19      GH     -3.5920300000     0.9682100000     9.3130600000
   20      GH     -3.6046800000     2.3706900000     9.4348800000
   21      GH     -4.7907900000     0.2357500000     9.2544300000
   22      GH     -5.9871100000     0.9513500000     9.3271000000
   23      GH     -6.0007200000     2.3344600000     9.4492900000
   24      GH     -4.8192000000     3.0759500000     9.5080500000
   25      GH     -6.9511300000     2.8551600000     9.4970500000
   26      GH     -6.9265100000     0.4098000000     9.2900700000
   27      GH     -4.8871900000     4.5793700000     9.6283400000
   28      GH     -4.8286200000    -1.2703500000     9.1340500000
   29      GH     -4.4451100000    -1.6003200000     8.1667200000
   30      GH     -5.8533100000    -1.6298400000     9.2436800000
   31      GH     -4.2171700000    -1.7558600000     9.8992100000
   32      GH     -4.2897300000     5.0754300000     8.8593000000
   33      GH     -4.5026200000     4.9161800000    10.5927900000
   34      GH     -5.9197000000     4.9181400000     9.5263300000
   35      GH     -2.6893400000     0.4702500000     9.2660900000
   36      GH     -2.7120800000     2.8874000000     9.4709200000
 ----------------------------------------------------------------

   11    -310.9757767456      9.24E-09 Convergence criterion met
 Total energy in the final basis set = -310.97577675

                    Orbital Energies (a.u.)
 --------------------------------------------------------------

 Alpha MOs
 -- Occupied --
-10.180 -10.180 -10.168 -10.168 -10.168 -10.167 -10.167 -10.167
 -0.859  -0.787  -0.745  -0.721  -0.658  -0.612  -0.577  -0.496
 -0.472  -0.460  -0.425  -0.421  -0.417  -0.404  -0.397  -0.376
 -0.345  -0.343  -0.339  -0.252  -0.236

          Ground-State Mulliken Net Atomic Charges

     Atom                 Charge (a.u.)
  ----------------------------------------
      1 C                    -0.163344
      2 C                    -0.159104
      3 C                     0.717120
      4 C                    -0.686412
      5 C                    -0.693662
      6 C                     0.720002
      7 H                     0.126016
      8 H                     0.126818
      9 C                    -0.591579
     10 C                    -0.594534
     11 H                     0.156961
     12 H                     0.148587
     13 H                     0.146437
     14 H                     0.146216
     15 H                     0.156480
     16 H                     0.148434
     17 H                     0.147606
     18 H                     0.147954
     19 GH                   -0.000006
     20 GH                    0.000001
     21 GH                    0.000000
     22 GH                    0.000005
     23 GH                   -0.000001
     24 GH                    0.000001
     25 GH                   -0.000000
     26 GH                    0.000001
     27 GH                   -0.000001
     28 GH                   -0.000002
     29 GH                    0.000006
     30 GH                   -0.000001
     31 GH                    0.000000
     32 GH                    0.000001
     33 GH                   -0.000000
     34 GH                   -0.000000
     35 GH                   -0.000001
     36 GH                    0.000002
  ----------------------------------------
  Sum of atomic charges =    -0.000000

                    Cartesian Multipole Moments
 -----------------------------------------------------------------
    Charge (ESU x 10^10)
                -0.0000
    Dipole Moment (Debye)
         X       0.0926      Y       0.0019      Z      -0.0004
       Tot       0.0926
    Quadrupole Moments (Debye-Ang)
        XX     -46.2600     XY       0.0005     YY     -44.6814
        XZ      -0.0460     YZ       0.6807     ZZ     -52.7334

 Total job time:  58.30s(wall), 231.93s(cpu)
        *  Thank you very much for using Q-Chem.  Have a nice day.  *
