 Q-Chem 5.0, Q-Chem, Inc., Pleasanton, CA (2017)
 Q-Chem 5.0.1 for Intel X86 EM64T Linux

User input:
--------------------------------------------------------------
$molecule
0  1
--
0  1
C        -0.58454000        -0.67556000        -0.07544000
C        -0.59851000        +0.70920000        +0.05808000
C        -1.77633000        -1.40990000        -0.13252000
C        -2.97828000        -0.70388000        -0.05611000
C        -2.99244000        +0.68477000        +0.07719000
C        -1.80513000        +1.41687000        +0.13452000
H        -3.94378000        +1.20441000        +0.13594000
H        -3.91864000        -1.24474000        -0.10022000
C        -1.81546000        +2.92210000        +0.24949000
C        -1.75732000        -2.91589000        -0.24640000
H        -1.03160000        -3.25185000        -0.99235000
H        -2.73712000        -3.30600000        -0.53105000
H        -1.48213000        -3.37940000        +0.70725000
H        -1.54006000        +3.39064000        -0.70147000
H        -1.10219000        +3.26991000        +1.00208000
H        -2.80465000        +3.29345000        +0.52612000
H        +0.36601000        -1.19708000        -0.13515000
H        +0.34176000        +1.25035000        +0.10232000
--
0  1
C        -0.54926000        -1.04867000        +3.80651000
C        -0.56323000        +0.33609000        +3.94003000
C        -1.74105000        -1.78301000        +3.74943000
C        -2.94300000        -1.07699000        +3.82584000
C        -2.95716000        +0.31166000        +3.95914000
C        -1.76985000        +1.04376000        +4.01647000
H        -3.90850000        +0.83130000        +4.01789000
H        -3.88336000        -1.61785000        +3.78173000
C        -1.78018000        +2.54899000        +4.13144000
C        -1.72204000        -3.28900000        +3.63555000
H        -0.99632000        -3.62496000        +2.88960000
H        -2.70184000        -3.67911000        +3.35090000
H        -1.44685000        -3.75251000        +4.58920000
H        -1.50478000        +3.01753000        +3.18048000
H        -1.06691000        +2.89680000        +4.88403000
H        -2.76937000        +2.92034000        +4.40807000
H        +0.40129000        -1.57019000        +3.74680000
H        +0.37704000        +0.87724000        +3.98427000
$end

$rem
JOBTYPE                   SP
METHOD                    B3LYP
DFT_D                     d3_op
BASIS                     6-311++G(d,p)
SYMMETRY                  False
THRESH                    12
SCF_CONVERGENCE           8
MAX_SUB_FILE_NUM          128
MEM_STATIC                400
MEM_TOTAL                 4000
$end
--------------------------------------------------------------

             Standard Nuclear Orientation (Angstroms)
    I     Atom           X                Y                Z
 ----------------------------------------------------------------
    1      C       1.8181338591    -0.9905532501     1.1967464650
    2      C       2.0348419440     0.3837176262     1.1963301636
    3      C       1.7024664837    -1.7060524820    -0.0022358841
    4      C       1.8173824660    -0.9934847680    -1.1972371817
    5      C       2.0352770800     0.3844992079    -1.1978005893
    6      C       2.1501898125     1.0979288076    -0.0033235300
    7      H       2.1181227883     0.9101335372    -2.1440406372
    8      H       1.7348484970    -1.5204710667    -2.1428722837
    9      C       2.4149082672     2.5841807098     0.0013225032
   10      C       1.4364120320    -3.1928392226     0.0017804818
   11      H       2.0671843749    -3.7104605146     0.7299113025
   12      H       1.6248441528    -3.6336335194    -0.9797556603
   13      H       0.3943967976    -3.4056362310     0.2643467843
   14      H       3.4498161184     2.7979980418     0.2893289291
   15      H       1.7656148096     3.1031161490     0.7121260013
   16      H       2.2501513367     3.0209784006    -0.9860906660
   17      H       1.7357564086    -1.5182412508     2.1421844728
   18      H       2.1173234087     0.9110179364     2.1418772877
   19      C      -2.0341327050    -0.3822491555     1.1967288753
   20      C      -1.8174246201     0.9920217209     1.1963125738
   21      C      -2.1498000805    -1.0977483873    -0.0022534739
   22      C      -2.0348840981    -0.3851806734    -1.1972547714
   23      C      -1.8169894841     0.9928033025    -1.1978181790
   24      C      -1.7020767517     1.7062329023    -0.0033411197
   25      H      -1.7341437758     1.5184376318    -2.1440582269
   26      H      -2.1174180671    -0.9121669721    -2.1428898734
   27      C      -1.4373582969     3.1924848045     0.0013049135
   28      C      -2.4158545322    -2.5845351280     0.0017628921
   29      H      -1.7850821892    -3.1021564200     0.7298937128
   30      H      -2.2274224113    -3.0253294248    -0.9797732500
   31      H      -3.4578697666    -2.7973321364     0.2643291945
   32      H      -0.4024504457     3.4063021364     0.2893113394
   33      H      -2.0866517546     3.7114202437     0.7121084116
   34      H      -1.6021152274     3.6292824952    -0.9861082557
   35      H      -2.1165101555    -0.9099371562     2.1421668831
   36      H      -1.7349431554     1.5193220310     2.1418596980
 ----------------------------------------------------------------

   13    -621.9663393034      7.01E-09 Convergence criterion met
 Total energy in the final basis set = -621.96633930

                    Orbital Energies (a.u.)
 --------------------------------------------------------------

 Alpha MOs
 -- Occupied --
-10.176 -10.176 -10.176 -10.176 -10.166 -10.166 -10.166 -10.166
-10.166 -10.166 -10.166 -10.165 -10.165 -10.165 -10.164 -10.164
 -0.856  -0.855  -0.785  -0.783  -0.741  -0.739  -0.720  -0.717
 -0.656  -0.653  -0.605  -0.604  -0.572  -0.570  -0.491  -0.489
 -0.470  -0.468  -0.450  -0.448  -0.432  -0.425  -0.415  -0.414
 -0.413  -0.406  -0.401  -0.398  -0.396  -0.394  -0.374  -0.371
 -0.350  -0.339  -0.338  -0.334  -0.334  -0.332  -0.256  -0.240
 -0.239  -0.225

          Ground-State Mulliken Net Atomic Charges

     Atom                 Charge (a.u.)
  ----------------------------------------
      1 C                    -0.399381
      2 C                    -0.281098
      3 C                     0.489952
      4 C                    -0.393806
      5 C                    -0.340273
      6 C                     0.563992
      7 H                     0.159695
      8 H                     0.172175
      9 C                    -0.515621
     10 C                    -0.692402
     11 H                     0.140837
     12 H                     0.135811
     13 H                     0.186690
     14 H                     0.162785
     15 H                     0.124675
     16 H                     0.134463
     17 H                     0.174952
     18 H                     0.176455
     19 C                    -0.281826
     20 C                    -0.398378
     21 C                     0.575591
     22 C                    -0.344090
     23 C                    -0.394300
     24 C                     0.478720
     25 H                     0.171704
     26 H                     0.160174
     27 C                    -0.687312
     28 C                    -0.516344
     29 H                     0.124678
     30 H                     0.134426
     31 H                     0.163095
     32 H                     0.185596
     33 H                     0.141617
     34 H                     0.135376
     35 H                     0.175977
     36 H                     0.175396
  ----------------------------------------
  Sum of atomic charges =     0.000000

                    Cartesian Multipole Moments
 -----------------------------------------------------------------
    Charge (ESU x 10^10)
                -0.0000
    Dipole Moment (Debye)
         X      -0.0058      Y       0.0008      Z       0.0711
       Tot       0.0714
    Quadrupole Moments (Debye-Ang)
        XX    -106.4720     XY       2.8499     YY     -91.4360
        XZ       0.0005     YZ       0.0065     ZZ     -92.5091

 Total job time:  189.16s(wall), 751.63s(cpu)
        *  Thank you very much for using Q-Chem.  Have a nice day.  *
