 Q-Chem 5.0, Q-Chem, Inc., Pleasanton, CA (2017)
 Q-Chem 5.0.1 for Intel X86 EM64T Linux

User input:
--------------------------------------------------------------
$molecule
0  1
C        -0.54926000        -1.04867000        +3.80651000
C        -0.56323000        +0.33609000        +3.94003000
C        -1.74105000        -1.78301000        +3.74943000
C        -2.94300000        -1.07699000        +3.82584000
C        -2.95716000        +0.31166000        +3.95914000
C        -1.76985000        +1.04376000        +4.01647000
H        -3.90850000        +0.83130000        +4.01789000
H        -3.88336000        -1.61785000        +3.78173000
C        -1.78018000        +2.54899000        +4.13144000
C        -1.72204000        -3.28900000        +3.63555000
H        -0.99632000        -3.62496000        +2.88960000
H        -2.70184000        -3.67911000        +3.35090000
H        -1.44685000        -3.75251000        +4.58920000
H        -1.50478000        +3.01753000        +3.18048000
H        -1.06691000        +2.89680000        +4.88403000
H        -2.76937000        +2.92034000        +4.40807000
H        +0.40129000        -1.57019000        +3.74680000
H        +0.37704000        +0.87724000        +3.98427000
@C        -0.58454000        -0.67556000        -0.07544000
@C        -0.59851000        +0.70920000        +0.05808000
@C        -1.77633000        -1.40990000        -0.13252000
@C        -2.97828000        -0.70388000        -0.05611000
@C        -2.99244000        +0.68477000        +0.07719000
@C        -1.80513000        +1.41687000        +0.13452000
@H        -3.94378000        +1.20441000        +0.13594000
@H        -3.91864000        -1.24474000        -0.10022000
@C        -1.81546000        +2.92210000        +0.24949000
@C        -1.75732000        -2.91589000        -0.24640000
@H        -1.03160000        -3.25185000        -0.99235000
@H        -2.73712000        -3.30600000        -0.53105000
@H        -1.48213000        -3.37940000        +0.70725000
@H        -1.54006000        +3.39064000        -0.70147000
@H        -1.10219000        +3.26991000        +1.00208000
@H        -2.80465000        +3.29345000        +0.52612000
@H        +0.36601000        -1.19708000        -0.13515000
@H        +0.34176000        +1.25035000        +0.10232000
$end

$rem
JOBTYPE                   SP
METHOD                    B3LYP
DFT_D                     d3_op
BASIS                     6-311++G(d,p)
SYMMETRY                  False
THRESH                    12
SCF_CONVERGENCE           8
MAX_SUB_FILE_NUM          128
MEM_STATIC                400
MEM_TOTAL                 4000
$end
--------------------------------------------------------------

             Standard Nuclear Orientation (Angstroms)
    I     Atom           X                Y                Z
 ----------------------------------------------------------------
    1      C      -0.5492600000    -1.0486700000     3.8065100000
    2      C      -0.5632300000     0.3360900000     3.9400300000
    3      C      -1.7410500000    -1.7830100000     3.7494300000
    4      C      -2.9430000000    -1.0769900000     3.8258400000
    5      C      -2.9571600000     0.3116600000     3.9591400000
    6      C      -1.7698500000     1.0437600000     4.0164700000
    7      H      -3.9085000000     0.8313000000     4.0178900000
    8      H      -3.8833600000    -1.6178500000     3.7817300000
    9      C      -1.7801800000     2.5489900000     4.1314400000
   10      C      -1.7220400000    -3.2890000000     3.6355500000
   11      H      -0.9963200000    -3.6249600000     2.8896000000
   12      H      -2.7018400000    -3.6791100000     3.3509000000
   13      H      -1.4468500000    -3.7525100000     4.5892000000
   14      H      -1.5047800000     3.0175300000     3.1804800000
   15      H      -1.0669100000     2.8968000000     4.8840300000
   16      H      -2.7693700000     2.9203400000     4.4080700000
   17      H       0.4012900000    -1.5701900000     3.7468000000
   18      H       0.3770400000     0.8772400000     3.9842700000
   19      GH     -0.5845400000    -0.6755600000    -0.0754400000
   20      GH     -0.5985100000     0.7092000000     0.0580800000
   21      GH     -1.7763300000    -1.4099000000    -0.1325200000
   22      GH     -2.9782800000    -0.7038800000    -0.0561100000
   23      GH     -2.9924400000     0.6847700000     0.0771900000
   24      GH     -1.8051300000     1.4168700000     0.1345200000
   25      GH     -3.9437800000     1.2044100000     0.1359400000
   26      GH     -3.9186400000    -1.2447400000    -0.1002200000
   27      GH     -1.8154600000     2.9221000000     0.2494900000
   28      GH     -1.7573200000    -2.9158900000    -0.2464000000
   29      GH     -1.0316000000    -3.2518500000    -0.9923500000
   30      GH     -2.7371200000    -3.3060000000    -0.5310500000
   31      GH     -1.4821300000    -3.3794000000     0.7072500000
   32      GH     -1.5400600000     3.3906400000    -0.7014700000
   33      GH     -1.1021900000     3.2699100000     1.0020800000
   34      GH     -2.8046500000     3.2934500000     0.5261200000
   35      GH      0.3660100000    -1.1970800000    -0.1351500000
   36      GH      0.3417600000     1.2503500000     0.1023200000
 ----------------------------------------------------------------

   13    -310.9811602342      9.80E-10 Convergence criterion met
 Total energy in the final basis set = -310.98116023

                    Orbital Energies (a.u.)
 --------------------------------------------------------------

 Alpha MOs
 -- Occupied --
-10.180 -10.180 -10.171 -10.170 -10.170 -10.170 -10.167 -10.167
 -0.860  -0.787  -0.744  -0.721  -0.657  -0.608  -0.575  -0.494
 -0.473  -0.452  -0.425  -0.419  -0.417  -0.402  -0.398  -0.375
 -0.346  -0.342  -0.337  -0.254  -0.237

          Ground-State Mulliken Net Atomic Charges

     Atom                 Charge (a.u.)
  ----------------------------------------
      1 C                    -0.306972
      2 C                    -0.381326
      3 C                     0.619024
      4 C                    -0.361433
      5 C                    -0.428557
      6 C                     0.532711
      7 H                     0.170214
      8 H                     0.161457
      9 C                    -0.704598
     10 C                    -0.585900
     11 H                     0.140047
     12 H                     0.136349
     13 H                     0.164217
     14 H                     0.185048
     15 H                     0.144050
     16 H                     0.137820
     17 H                     0.176324
     18 H                     0.177630
     19 GH                   -0.009988
     20 GH                    0.013700
     21 GH                   -0.086362
     22 GH                    0.024598
     23 GH                    0.008001
     24 GH                   -0.012097
     25 GH                    0.004263
     26 GH                    0.008219
     27 GH                    0.042208
     28 GH                    0.006053
     29 GH                   -0.000300
     30 GH                   -0.001417
     31 GH                    0.020551
     32 GH                   -0.000400
     33 GH                   -0.003941
     34 GH                    0.000557
     35 GH                    0.004459
     36 GH                    0.005792
  ----------------------------------------
  Sum of atomic charges =     0.000000

                    Cartesian Multipole Moments
 -----------------------------------------------------------------
    Charge (ESU x 10^10)
                 0.0000
    Dipole Moment (Debye)
         X       0.0592      Y       0.0008      Z      -0.0105
       Tot       0.0602
    Quadrupole Moments (Debye-Ang)
        XX     -46.3296     XY      -0.0278     YY     -44.8556
        XZ       0.1931     YZ       0.6188     ZZ     -52.7933

 Total job time:  180.97s(wall), 716.54s(cpu)
        *  Thank you very much for using Q-Chem.  Have a nice day.  *
