 Q-Chem 5.0, Q-Chem, Inc., Pleasanton, CA (2017)
 Q-Chem 5.0.1 for Intel X86 EM64T Linux

User input:
--------------------------------------------------------------
$molecule
0  1
--
0  1
C        -0.54444000        -0.68370000        -0.06689000
C        -0.55709000        +0.71878000        +0.05493000
C        -1.74320000        -1.41616000        -0.12552000
C        -2.93952000        -0.70056000        -0.05285000
C        -2.95313000        +0.68255000        +0.06934000
C        -1.77161000        +1.42404000        +0.12810000
H        -3.90354000        +1.20325000        +0.11710000
H        -3.87892000        -1.24211000        -0.08988000
C        -1.83960000        +2.92746000        +0.24839000
C        -1.78103000        -2.92226000        -0.24590000
H        -1.39752000        -3.25223000        -1.21323000
H        -2.80572000        -3.28175000        -0.13627000
H        -1.16958000        -3.40777000        +0.51926000
H        -1.24214000        +3.42352000        -0.52065000
H        -1.45503000        +3.26427000        +1.21284000
H        -2.87211000        +3.26623000        +0.14638000
H        +0.35825000        -1.18166000        -0.11386000
H        +0.33551000        +1.23549000        +0.09097000
--
0  1
C        -3.59203000        +0.96821000        +9.31306000
C        -3.60468000        +2.37069000        +9.43488000
C        -4.79079000        +0.23575000        +9.25443000
C        -5.98711000        +0.95135000        +9.32710000
C        -6.00072000        +2.33446000        +9.44929000
C        -4.81920000        +3.07595000        +9.50805000
H        -6.95113000        +2.85516000        +9.49705000
H        -6.92651000        +0.40980000        +9.29007000
C        -4.88719000        +4.57937000        +9.62834000
C        -4.82862000        -1.27035000        +9.13405000
H        -4.44511000        -1.60032000        +8.16672000
H        -5.85331000        -1.62984000        +9.24368000
H        -4.21717000        -1.75586000        +9.89921000
H        -4.28973000        +5.07543000        +8.85930000
H        -4.50262000        +4.91618000       +10.59279000
H        -5.91970000        +4.91814000        +9.52633000
H        -2.68934000        +0.47025000        +9.26609000
H        -2.71208000        +2.88740000        +9.47092000
$end

$rem
JOBTYPE                   SP
METHOD                    B3LYP
DFT_D                     d3_op
BASIS                     6-311++G(d,p)
SYMMETRY                  False
THRESH                    12
SCF_CONVERGENCE           8
MAX_SUB_FILE_NUM          128
MEM_STATIC                400
MEM_TOTAL                 4000
$end
--------------------------------------------------------------

             Standard Nuclear Orientation (Angstroms)
    I     Atom           X                Y                Z
 ----------------------------------------------------------------
    1      C       5.5820127334    -0.3381770481     1.1086059618
    2      C       5.1804199513     1.0106903975     1.0735326549
    3      C       5.4109376360    -1.1738004373    -0.0091719806
    4      C       4.8249317207    -0.6160233974    -1.1467253518
    5      C       4.4266263302     0.7137275308    -1.1817137119
    6      C       4.5903681121     1.5562973722    -0.0805714145
    7      H       3.9800327969     1.1118598403    -2.0865526787
    8      H       4.6760137113    -1.2407073835    -2.0212042408
    9      C       4.1524426033     2.9981913214    -0.1729137593
   10      C       5.8164655313    -2.6297370106    -0.0166207289
   11      H       6.9009184442    -2.7393434684     0.0436764849
   12      H       5.4678677215    -3.1115876013    -0.9317933729
   13      H       5.3956368153    -3.1743826916     0.8326879089
   14      H       4.9520157367     3.6845053930     0.1171074404
   15      H       3.3089818713     3.1980143894     0.4905194314
   16      H       3.8561488933     3.2360777964    -1.1960794915
   17      H       6.0083660784    -0.7193637043     1.9676398010
   18      H       5.3206915138     1.6061942819     1.9046294472
   19      C      -4.4101217940    -0.7167384006     1.2269797291
   20      C      -4.8117145760     0.6321290450     1.1919064222
   21      C      -4.5811968913    -1.5523617898     0.1092017867
   22      C      -5.1672028067    -0.9945847499    -1.0283515845
   23      C      -5.5655081971     0.3351661782    -1.0633399446
   24      C      -5.4017664152     1.1777360197     0.0378023528
   25      H      -6.0121017304     0.7332984878    -1.9681789114
   26      H      -5.3161208160    -1.6192687360    -1.9028304735
   27      C      -5.8396919240     2.6196299689    -0.0545399920
   28      C      -4.1756689960    -3.0082983632     0.1017530384
   29      H      -3.0912160831    -3.1179048209     0.1620502522
   30      H      -4.5242668059    -3.4901489538    -0.8134196056
   31      H      -4.5964977121    -3.5529440441     0.9510616762
   32      H      -5.0401187906     3.3059440405     0.2354812077
   33      H      -6.6831526561     2.8194530369     0.6088931987
   34      H      -6.1359856340     2.8575164439    -1.0777057242
   35      H      -3.9837684489    -1.0979250568     2.0860135683
   36      H      -4.6714430136     1.2276329294     2.0230032145
 ----------------------------------------------------------------

   13    -621.9514426648      1.46E-09 Convergence criterion met
 Total energy in the final basis set = -621.95144266

                    Orbital Energies (a.u.)
 --------------------------------------------------------------

 Alpha MOs
 -- Occupied --
-10.179 -10.179 -10.179 -10.179 -10.168 -10.168 -10.167 -10.167
-10.167 -10.167 -10.167 -10.167 -10.166 -10.166 -10.166 -10.166
 -0.858  -0.858  -0.787  -0.787  -0.745  -0.745  -0.720  -0.720
 -0.658  -0.657  -0.612  -0.612  -0.576  -0.576  -0.495  -0.495
 -0.471  -0.471  -0.459  -0.459  -0.424  -0.424  -0.420  -0.420
 -0.416  -0.416  -0.404  -0.404  -0.397  -0.397  -0.375  -0.375
 -0.345  -0.345  -0.342  -0.342  -0.338  -0.338  -0.252  -0.252
 -0.236  -0.236

          Ground-State Mulliken Net Atomic Charges

     Atom                 Charge (a.u.)
  ----------------------------------------
      1 C                    -0.163148
      2 C                    -0.158109
      3 C                     0.718958
      4 C                    -0.687019
      5 C                    -0.694948
      6 C                     0.723394
      7 H                     0.126219
      8 H                     0.126873
      9 C                    -0.593900
     10 C                    -0.596655
     11 H                     0.156692
     12 H                     0.148796
     13 H                     0.146395
     14 H                     0.146002
     15 H                     0.156571
     16 H                     0.148706
     17 H                     0.147398
     18 H                     0.147778
     19 C                    -0.158280
     20 C                    -0.159189
     21 C                     0.724245
     22 C                    -0.693690
     23 C                    -0.695898
     24 C                     0.722862
     25 H                     0.125726
     26 H                     0.125403
     27 C                    -0.594581
     28 C                    -0.596361
     29 H                     0.156983
     30 H                     0.148718
     31 H                     0.146518
     32 H                     0.146059
     33 H                     0.156859
     34 H                     0.148362
     35 H                     0.148141
     36 H                     0.148122
  ----------------------------------------
  Sum of atomic charges =    -0.000000

                    Cartesian Multipole Moments
 -----------------------------------------------------------------
    Charge (ESU x 10^10)
                -0.0000
    Dipole Moment (Debye)
         X       0.0590      Y       0.0248      Z       0.1700
       Tot       0.1816
    Quadrupole Moments (Debye-Ang)
        XX    -103.2196     XY      -3.8326     YY     -90.4009
        XZ       4.1195     YZ       1.1321     ZZ     -93.4246

 Total job time:  77.79s(wall), 309.51s(cpu)
        *  Thank you very much for using Q-Chem.  Have a nice day.  *
