 Q-Chem 5.0, Q-Chem, Inc., Pleasanton, CA (2017)
 Q-Chem 5.0.1 for Intel X86 EM64T Linux

User input:
--------------------------------------------------------------
$molecule
0  1
C        -2.09871000        +0.15878000        +4.71688000
C        -2.11136000        +1.56126000        +4.83870000
C        -3.29747000        -0.57368000        +4.65825000
C        -4.49379000        +0.14192000        +4.73092000
C        -4.50740000        +1.52503000        +4.85311000
C        -3.32588000        +2.26652000        +4.91187000
H        -5.45781000        +2.04573000        +4.90087000
H        -5.43319000        -0.39963000        +4.69389000
C        -3.39387000        +3.76994000        +5.03216000
C        -3.33530000        -2.07978000        +4.53787000
H        -2.95179000        -2.40975000        +3.57054000
H        -4.35999000        -2.43927000        +4.64750000
H        -2.72385000        -2.56529000        +5.30303000
H        -2.79641000        +4.26600000        +4.26312000
H        -3.00930000        +4.10675000        +5.99661000
H        -4.42638000        +4.10871000        +4.93015000
H        -1.19602000        -0.33918000        +4.66991000
H        -1.21876000        +2.07797000        +4.87474000
@C        -0.54444000        -0.68370000        -0.06689000
@C        -0.55709000        +0.71878000        +0.05493000
@C        -1.74320000        -1.41616000        -0.12552000
@C        -2.93952000        -0.70056000        -0.05285000
@C        -2.95313000        +0.68255000        +0.06934000
@C        -1.77161000        +1.42404000        +0.12810000
@H        -3.90354000        +1.20325000        +0.11710000
@H        -3.87892000        -1.24211000        -0.08988000
@C        -1.83960000        +2.92746000        +0.24839000
@C        -1.78103000        -2.92226000        -0.24590000
@H        -1.39752000        -3.25223000        -1.21323000
@H        -2.80572000        -3.28175000        -0.13627000
@H        -1.16958000        -3.40777000        +0.51926000
@H        -1.24214000        +3.42352000        -0.52065000
@H        -1.45503000        +3.26427000        +1.21284000
@H        -2.87211000        +3.26623000        +0.14638000
@H        +0.35825000        -1.18166000        -0.11386000
@H        +0.33551000        +1.23549000        +0.09097000
$end

$rem
JOBTYPE                   SP
METHOD                    B3LYP
DFT_D                     d3_op
BASIS                     6-311++G(d,p)
SYMMETRY                  False
THRESH                    12
SCF_CONVERGENCE           8
MAX_SUB_FILE_NUM          128
MEM_STATIC                400
MEM_TOTAL                 4000
$end
--------------------------------------------------------------

             Standard Nuclear Orientation (Angstroms)
    I     Atom           X                Y                Z
 ----------------------------------------------------------------
    1      C      -2.0987100000     0.1587800000     4.7168800000
    2      C      -2.1113600000     1.5612600000     4.8387000000
    3      C      -3.2974700000    -0.5736800000     4.6582500000
    4      C      -4.4937900000     0.1419200000     4.7309200000
    5      C      -4.5074000000     1.5250300000     4.8531100000
    6      C      -3.3258800000     2.2665200000     4.9118700000
    7      H      -5.4578100000     2.0457300000     4.9008700000
    8      H      -5.4331900000    -0.3996300000     4.6938900000
    9      C      -3.3938700000     3.7699400000     5.0321600000
   10      C      -3.3353000000    -2.0797800000     4.5378700000
   11      H      -2.9517900000    -2.4097500000     3.5705400000
   12      H      -4.3599900000    -2.4392700000     4.6475000000
   13      H      -2.7238500000    -2.5652900000     5.3030300000
   14      H      -2.7964100000     4.2660000000     4.2631200000
   15      H      -3.0093000000     4.1067500000     5.9966100000
   16      H      -4.4263800000     4.1087100000     4.9301500000
   17      H      -1.1960200000    -0.3391800000     4.6699100000
   18      H      -1.2187600000     2.0779700000     4.8747400000
   19      GH     -0.5444400000    -0.6837000000    -0.0668900000
   20      GH     -0.5570900000     0.7187800000     0.0549300000
   21      GH     -1.7432000000    -1.4161600000    -0.1255200000
   22      GH     -2.9395200000    -0.7005600000    -0.0528500000
   23      GH     -2.9531300000     0.6825500000     0.0693400000
   24      GH     -1.7716100000     1.4240400000     0.1281000000
   25      GH     -3.9035400000     1.2032500000     0.1171000000
   26      GH     -3.8789200000    -1.2421100000    -0.0898800000
   27      GH     -1.8396000000     2.9274600000     0.2483900000
   28      GH     -1.7810300000    -2.9222600000    -0.2459000000
   29      GH     -1.3975200000    -3.2522300000    -1.2132300000
   30      GH     -2.8057200000    -3.2817500000    -0.1362700000
   31      GH     -1.1695800000    -3.4077700000     0.5192600000
   32      GH     -1.2421400000     3.4235200000    -0.5206500000
   33      GH     -1.4550300000     3.2642700000     1.2128400000
   34      GH     -2.8721100000     3.2662300000     0.1463800000
   35      GH      0.3582500000    -1.1816600000    -0.1138600000
   36      GH      0.3355100000     1.2354900000     0.0909700000
 ----------------------------------------------------------------

   11    -310.9759611867      9.63E-09 Convergence criterion met
 Total energy in the final basis set = -310.97596119

                    Orbital Energies (a.u.)
 --------------------------------------------------------------

 Alpha MOs
 -- Occupied --
-10.180 -10.180 -10.168 -10.168 -10.168 -10.167 -10.167 -10.167
 -0.858  -0.787  -0.745  -0.721  -0.658  -0.612  -0.577  -0.496
 -0.472  -0.460  -0.424  -0.421  -0.417  -0.404  -0.397  -0.376
 -0.345  -0.342  -0.339  -0.252  -0.236

          Ground-State Mulliken Net Atomic Charges

     Atom                 Charge (a.u.)
  ----------------------------------------
      1 C                    -0.296857
      2 C                    -0.184708
      3 C                     0.613167
      4 C                    -0.503088
      5 C                    -0.486958
      6 C                     0.591558
      7 H                     0.150885
      8 H                     0.157238
      9 C                    -0.632375
     10 C                    -0.637595
     11 H                     0.182522
     12 H                     0.139265
     13 H                     0.147586
     14 H                     0.153602
     15 H                     0.159912
     16 H                     0.142932
     17 H                     0.163596
     18 H                     0.163559
     19 GH                   -0.005177
     20 GH                   -0.026915
     21 GH                   -0.003886
     22 GH                   -0.009117
     23 GH                    0.003831
     24 GH                    0.031419
     25 GH                   -0.002470
     26 GH                   -0.001368
     27 GH                   -0.012027
     28 GH                    0.002090
     29 GH                   -0.000017
     30 GH                   -0.000667
     31 GH                    0.002422
     32 GH                   -0.001438
     33 GH                   -0.001967
     34 GH                    0.003111
     35 GH                   -0.001203
     36 GH                   -0.000863
  ----------------------------------------
  Sum of atomic charges =     0.000000

                    Cartesian Multipole Moments
 -----------------------------------------------------------------
    Charge (ESU x 10^10)
                 0.0000
    Dipole Moment (Debye)
         X       0.0940      Y       0.0039      Z      -0.0115
       Tot       0.0948
    Quadrupole Moments (Debye-Ang)
        XX     -46.5887     XY       0.0675     YY     -44.7114
        XZ       0.4436     YZ       0.6832     ZZ     -52.8055

 Total job time:  123.34s(wall), 490.65s(cpu)
        *  Thank you very much for using Q-Chem.  Have a nice day.  *
