 Q-Chem 5.0, Q-Chem, Inc., Pleasanton, CA (2017)
 Q-Chem 5.0.1 for Intel X86 EM64T Linux

User input:
--------------------------------------------------------------
$molecule
0  1
--
0  1
C        -0.54444000        -0.68370000        -0.06689000
C        -0.55709000        +0.71878000        +0.05493000
C        -1.74320000        -1.41616000        -0.12552000
C        -2.93952000        -0.70056000        -0.05285000
C        -2.95313000        +0.68255000        +0.06934000
C        -1.77161000        +1.42404000        +0.12810000
H        -3.90354000        +1.20325000        +0.11710000
H        -3.87892000        -1.24211000        -0.08988000
C        -1.83960000        +2.92746000        +0.24839000
C        -1.78103000        -2.92226000        -0.24590000
H        -1.39752000        -3.25223000        -1.21323000
H        -2.80572000        -3.28175000        -0.13627000
H        -1.16958000        -3.40777000        +0.51926000
H        -1.24214000        +3.42352000        -0.52065000
H        -1.45503000        +3.26427000        +1.21284000
H        -2.87211000        +3.26623000        +0.14638000
H        +0.35825000        -1.18166000        -0.11386000
H        +0.33551000        +1.23549000        +0.09097000
--
0  1
C        -1.73300000        -0.03945000        +3.59129000
C        -1.74565000        +1.36303000        +3.71311000
C        -2.93176000        -0.77191000        +3.53266000
C        -4.12808000        -0.05631000        +3.60533000
C        -4.14169000        +1.32680000        +3.72752000
C        -2.96017000        +2.06829000        +3.78628000
H        -5.09210000        +1.84750000        +3.77528000
H        -5.06748000        -0.59786000        +3.56830000
C        -3.02816000        +3.57171000        +3.90657000
C        -2.96959000        -2.27801000        +3.41228000
H        -2.58608000        -2.60798000        +2.44495000
H        -3.99428000        -2.63750000        +3.52191000
H        -2.35814000        -2.76352000        +4.17744000
H        -2.43070000        +4.06777000        +3.13753000
H        -2.64359000        +3.90852000        +4.87102000
H        -4.06067000        +3.91048000        +3.80456000
H        -0.83031000        -0.53741000        +3.54432000
H        -0.85305000        +1.87974000        +3.74915000
$end

$rem
JOBTYPE                   SP
METHOD                    B3LYP
DFT_D                     d3_op
BASIS                     6-311++G(d,p)
SYMMETRY                  False
THRESH                    12
SCF_CONVERGENCE           8
MAX_SUB_FILE_NUM          128
MEM_STATIC                400
MEM_TOTAL                 4000
$end
--------------------------------------------------------------

             Standard Nuclear Orientation (Angstroms)
    I     Atom           X                Y                Z
 ----------------------------------------------------------------
    1      C       2.4679243654     0.9731228663     0.9496191208
    2      C       1.4319196444     1.9254303119     0.9077260147
    3      C       2.6876543619     0.0945667619    -0.1259358830
    4      C       1.8380025681     0.2008069605    -1.2283653278
    5      C       0.8145960157     1.1383699280    -1.2698817168
    6      C       0.5841200847     2.0180678732    -0.2105130186
    7      H       0.1787952039     1.1936809464    -2.1470286227
    8      H       1.9821164045    -0.4692218176    -2.0694435775
    9      C      -0.5337240541     3.0280380733    -0.3092485081
   10      C       3.7794647670    -0.9505190137    -0.1236068454
   11      H       4.7689072269    -0.4899628381    -0.1476708753
   12      H       3.6770739871    -1.6019598396    -0.9933093069
   13      H       3.7431774102    -1.5758435004     0.7723358995
   14      H      -0.1830702199     4.0427536438    -0.1046740807
   15      H      -1.3232415577     2.8152316346     0.4138520345
   16      H      -0.9651174118     3.0142087021    -1.3117237310
   17      H       3.0752105393     0.9190580087     1.7822655481
   18      H       1.2929501638     2.5631349019     1.7071277942
   19      C      -0.7964393678    -1.1295799754     1.3137400140
   20      C      -1.8324440889    -0.1772725298     1.2718469079
   21      C      -0.5767093714    -2.0081360799     0.2381850102
   22      C      -1.4263611651    -1.9018958813    -0.8642444346
   23      C      -2.4497677176    -0.9643329137    -0.9057608236
   24      C      -2.6802436486    -0.0846349685     0.1536078746
   25      H      -3.0855685294    -0.9090218953    -1.7829077295
   26      H      -1.2822473287    -2.5719246593    -1.7053226844
   27      C      -3.7980877874     0.9253352316     0.0548723851
   28      C       0.5151010337    -3.0532218554     0.2405140478
   29      H       1.5045434937    -2.5926656799     0.2164500179
   30      H       0.4127102538    -3.7046626814    -0.6291884137
   31      H       0.4788136769    -3.6785463421     1.1364567927
   32      H      -3.4474339531     1.9400508020     0.2594468125
   33      H      -4.5876052910     0.7125287929     0.7779729277
   34      H      -4.2294811451     0.9115058603    -0.9476028378
   35      H      -0.1891531940    -1.1836448331     2.1463864413
   36      H      -1.9714135695     0.4604320602     2.0712486874
 ----------------------------------------------------------------

   14    -621.9596870648      5.19E-09 Convergence criterion met
 Total energy in the final basis set = -621.95968706

                    Orbital Energies (a.u.)
 --------------------------------------------------------------

 Alpha MOs
 -- Occupied --
-10.177 -10.176 -10.176 -10.175 -10.167 -10.165 -10.164 -10.164
-10.164 -10.164 -10.164 -10.164 -10.163 -10.163 -10.162 -10.162
 -0.856  -0.853  -0.786  -0.783  -0.742  -0.741  -0.720  -0.717
 -0.656  -0.654  -0.609  -0.608  -0.574  -0.573  -0.493  -0.492
 -0.469  -0.468  -0.457  -0.456  -0.432  -0.424  -0.417  -0.416
 -0.412  -0.407  -0.402  -0.400  -0.394  -0.394  -0.374  -0.372
 -0.349  -0.340  -0.338  -0.335  -0.335  -0.334  -0.253  -0.243
 -0.235  -0.229

          Ground-State Mulliken Net Atomic Charges

     Atom                 Charge (a.u.)
  ----------------------------------------
      1 C                    -0.424890
      2 C                    -0.287363
      3 C                     0.368157
      4 C                    -0.303956
      5 C                    -0.337567
      6 C                     0.720141
      7 H                     0.143130
      8 H                     0.160527
      9 C                    -0.650111
     10 C                    -0.632740
     11 H                     0.164605
     12 H                     0.132262
     13 H                     0.161083
     14 H                     0.153691
     15 H                     0.154731
     16 H                     0.138077
     17 H                     0.159421
     18 H                     0.167621
     19 C                    -0.459886
     20 C                    -0.261417
     21 C                     0.574979
     22 C                    -0.187898
     23 C                    -0.609254
     24 C                     0.623526
     25 H                     0.143435
     26 H                     0.168422
     27 C                    -0.577287
     28 C                    -0.695102
     29 H                     0.234199
     30 H                     0.125843
     31 H                     0.152121
     32 H                     0.152142
     33 H                     0.164575
     34 H                     0.138544
     35 H                     0.150969
     36 H                     0.175268
  ----------------------------------------
  Sum of atomic charges =    -0.000000

                    Cartesian Multipole Moments
 -----------------------------------------------------------------
    Charge (ESU x 10^10)
                -0.0000
    Dipole Moment (Debye)
         X       0.0866      Y       0.0778      Z       0.1160
       Tot       0.1643
    Quadrupole Moments (Debye-Ang)
        XX     -97.5420     XY      -6.8340     YY     -97.8786
        XZ       3.4210     YZ       3.4748     ZZ     -94.6031

 Total job time:  189.05s(wall), 752.66s(cpu)
        *  Thank you very much for using Q-Chem.  Have a nice day.  *
