 Q-Chem 5.0, Q-Chem, Inc., Pleasanton, CA (2017)
 Q-Chem 5.0.1 for Intel X86 EM64T Linux

User input:
--------------------------------------------------------------
$molecule
0  1
--
0  1
C        -0.54444000        -0.68370000        -0.06689000
C        -0.55709000        +0.71878000        +0.05493000
C        -1.74320000        -1.41616000        -0.12552000
C        -2.93952000        -0.70056000        -0.05285000
C        -2.95313000        +0.68255000        +0.06934000
C        -1.77161000        +1.42404000        +0.12810000
H        -3.90354000        +1.20325000        +0.11710000
H        -3.87892000        -1.24211000        -0.08988000
C        -1.83960000        +2.92746000        +0.24839000
C        -1.78103000        -2.92226000        -0.24590000
H        -1.39752000        -3.25223000        -1.21323000
H        -2.80572000        -3.28175000        -0.13627000
H        -1.16958000        -3.40777000        +0.51926000
H        -1.24214000        +3.42352000        -0.52065000
H        -1.45503000        +3.26427000        +1.21284000
H        -2.87211000        +3.26623000        +0.14638000
H        +0.35825000        -1.18166000        -0.11386000
H        +0.33551000        +1.23549000        +0.09097000
--
0  1
C        -2.09871000        +0.15878000        +4.71688000
C        -2.11136000        +1.56126000        +4.83870000
C        -3.29747000        -0.57368000        +4.65825000
C        -4.49379000        +0.14192000        +4.73092000
C        -4.50740000        +1.52503000        +4.85311000
C        -3.32588000        +2.26652000        +4.91187000
H        -5.45781000        +2.04573000        +4.90087000
H        -5.43319000        -0.39963000        +4.69389000
C        -3.39387000        +3.76994000        +5.03216000
C        -3.33530000        -2.07978000        +4.53787000
H        -2.95179000        -2.40975000        +3.57054000
H        -4.35999000        -2.43927000        +4.64750000
H        -2.72385000        -2.56529000        +5.30303000
H        -2.79641000        +4.26600000        +4.26312000
H        -3.00930000        +4.10675000        +5.99661000
H        -4.42638000        +4.10871000        +4.93015000
H        -1.19602000        -0.33918000        +4.66991000
H        -1.21876000        +2.07797000        +4.87474000
$end

$rem
JOBTYPE                   SP
METHOD                    B3LYP
DFT_D                     d3_op
BASIS                     6-311++G(d,p)
SYMMETRY                  False
THRESH                    12
SCF_CONVERGENCE           8
MAX_SUB_FILE_NUM          128
MEM_STATIC                400
MEM_TOTAL                 4000
$end
--------------------------------------------------------------

             Standard Nuclear Orientation (Angstroms)
    I     Atom           X                Y                Z
 ----------------------------------------------------------------
    1      C       3.1965280700     0.1823510924     1.0248782596
    2      C       2.5494827039     1.4320752939     0.9865116120
    3      C       3.1459760082    -0.6931342170    -0.0741807143
    4      C       2.4275037447    -0.2773146267    -1.1964273477
    5      C       1.7872538455     0.9542429119    -1.2345717554
    6      C       1.8287386975     1.8348498371    -0.1519545015
    7      H       1.2434306423     1.2438916581    -2.1273475409
    8      H       2.3677308239    -0.9364991583    -2.0560917792
    9      C       1.1267047306     3.1680389087    -0.2474491576
   10      C       3.8153900550    -2.0481754009    -0.0769891044
   11      H       4.9026799881    -1.9530629307    -0.0559731756
   12      H       3.5315265050    -2.6049880139    -0.9717642673
   13      H       3.5329409880    -2.6441051929     0.7948773394
   14      H       1.7937550168     3.9967742103     0.0029469533
   15      H       0.2840780034     3.2211067790     0.4444054970
   16      H       0.7562713142     3.3257886270    -1.2619156004
   17      H       3.7157444966    -0.0953470981     1.8724144511
   18      H       2.6047169150     2.0601023121     1.8035514592
   19      C      -1.7689319930    -0.9532097348     1.2792228431
   20      C      -2.4159773591     0.2965144667     1.2408561954
   21      C      -1.8194840548    -1.8286950442     0.1801638691
   22      C      -2.5379563183    -1.4128754539    -0.9420827643
   23      C      -3.1782062175    -0.1813179153    -0.9802271720
   24      C      -3.1367213654     0.6992890100     0.1023900819
   25      H      -3.7220294207     0.1083308309    -1.8730029575
   26      H      -2.5977292390    -2.0720599855    -1.8017471957
   27      C      -3.8387553323     2.0324780815     0.0068954258
   28      C      -1.1500700079    -3.1837362281     0.1773554790
   29      H      -0.0627800748    -3.0886237579     0.1983714078
   30      H      -1.4339335579    -3.7405488411    -0.7174196839
   31      H      -1.4325190749    -3.7796660200     1.0492219228
   32      H      -3.1717050461     2.8612133831     0.2572915368
   33      H      -4.6813820596     2.0855459518     0.6987500805
   34      H      -4.2091887487     2.1902277998    -1.0075710169
   35      H      -1.2497155663    -1.2309079253     2.1267590346
   36      H      -2.3607431479     0.9245414850     2.0578960426
 ----------------------------------------------------------------

   13    -621.9537198817      6.62E-09 Convergence criterion met
 Total energy in the final basis set = -621.95371988

                    Orbital Energies (a.u.)
 --------------------------------------------------------------

 Alpha MOs
 -- Occupied --
-10.178 -10.177 -10.177 -10.177 -10.166 -10.166 -10.166 -10.166
-10.165 -10.165 -10.165 -10.165 -10.165 -10.164 -10.164 -10.164
 -0.856  -0.856  -0.785  -0.785  -0.743  -0.742  -0.719  -0.718
 -0.656  -0.656  -0.610  -0.609  -0.575  -0.574  -0.494  -0.493
 -0.470  -0.469  -0.458  -0.457  -0.424  -0.421  -0.418  -0.418
 -0.416  -0.413  -0.402  -0.402  -0.395  -0.395  -0.374  -0.373
 -0.344  -0.342  -0.340  -0.340  -0.336  -0.336  -0.250  -0.249
 -0.234  -0.233

          Ground-State Mulliken Net Atomic Charges

     Atom                 Charge (a.u.)
  ----------------------------------------
      1 C                    -0.182203
      2 C                    -0.375940
      3 C                     0.529842
      4 C                    -0.451034
      5 C                    -0.372996
      6 C                     0.652207
      7 H                     0.149958
      8 H                     0.143541
      9 C                    -0.674965
     10 C                    -0.648136
     11 H                     0.156160
     12 H                     0.142696
     13 H                     0.149446
     14 H                     0.142759
     15 H                     0.166870
     16 H                     0.138078
     17 H                     0.162707
     18 H                     0.166911
     19 C                    -0.341323
     20 C                    -0.212861
     21 C                     0.664451
     22 C                    -0.489094
     23 C                    -0.491953
     24 C                     0.608178
     25 H                     0.147790
     26 H                     0.154697
     27 C                    -0.623842
     28 C                    -0.650921
     29 H                     0.183076
     30 H                     0.137229
     31 H                     0.145710
     32 H                     0.150467
     33 H                     0.159404
     34 H                     0.142659
     35 H                     0.157536
     36 H                     0.162895
  ----------------------------------------
  Sum of atomic charges =     0.000000

                    Cartesian Multipole Moments
 -----------------------------------------------------------------
    Charge (ESU x 10^10)
                 0.0000
    Dipole Moment (Debye)
         X       0.0727      Y       0.0395      Z       0.1466
       Tot       0.1683
    Quadrupole Moments (Debye-Ang)
        XX    -101.9515     XY      -5.7003     YY     -92.7944
        XZ       4.0909     YZ       1.9728     ZZ     -93.9486

 Total job time:  138.72s(wall), 552.06s(cpu)
        *  Thank you very much for using Q-Chem.  Have a nice day.  *
