 Q-Chem 5.0, Q-Chem, Inc., Pleasanton, CA (2017)
 Q-Chem 5.0.1 for Intel X86 EM64T Linux

User input:
--------------------------------------------------------------
$molecule
0  1
C        -0.54444000        -0.68370000        -0.06689000
C        -0.55709000        +0.71878000        +0.05493000
C        -1.74320000        -1.41616000        -0.12552000
C        -2.93952000        -0.70056000        -0.05285000
C        -2.95313000        +0.68255000        +0.06934000
C        -1.77161000        +1.42404000        +0.12810000
H        -3.90354000        +1.20325000        +0.11710000
H        -3.87892000        -1.24211000        -0.08988000
C        -1.83960000        +2.92746000        +0.24839000
C        -1.78103000        -2.92226000        -0.24590000
H        -1.39752000        -3.25223000        -1.21323000
H        -2.80572000        -3.28175000        -0.13627000
H        -1.16958000        -3.40777000        +0.51926000
H        -1.24214000        +3.42352000        -0.52065000
H        -1.45503000        +3.26427000        +1.21284000
H        -2.87211000        +3.26623000        +0.14638000
H        +0.35825000        -1.18166000        -0.11386000
H        +0.33551000        +1.23549000        +0.09097000
@C        -1.73300000        -0.03945000        +3.59129000
@C        -1.74565000        +1.36303000        +3.71311000
@C        -2.93176000        -0.77191000        +3.53266000
@C        -4.12808000        -0.05631000        +3.60533000
@C        -4.14169000        +1.32680000        +3.72752000
@C        -2.96017000        +2.06829000        +3.78628000
@H        -5.09210000        +1.84750000        +3.77528000
@H        -5.06748000        -0.59786000        +3.56830000
@C        -3.02816000        +3.57171000        +3.90657000
@C        -2.96959000        -2.27801000        +3.41228000
@H        -2.58608000        -2.60798000        +2.44495000
@H        -3.99428000        -2.63750000        +3.52191000
@H        -2.35814000        -2.76352000        +4.17744000
@H        -2.43070000        +4.06777000        +3.13753000
@H        -2.64359000        +3.90852000        +4.87102000
@H        -4.06067000        +3.91048000        +3.80456000
@H        -0.83031000        -0.53741000        +3.54432000
@H        -0.85305000        +1.87974000        +3.74915000
$end

$rem
JOBTYPE                   SP
METHOD                    B3LYP
DFT_D                     d3_op
BASIS                     6-311++G(d,p)
SYMMETRY                  False
THRESH                    12
SCF_CONVERGENCE           8
MAX_SUB_FILE_NUM          128
MEM_STATIC                400
MEM_TOTAL                 4000
$end
--------------------------------------------------------------

             Standard Nuclear Orientation (Angstroms)
    I     Atom           X                Y                Z
 ----------------------------------------------------------------
    1      C      -0.5444400000    -0.6837000000    -0.0668900000
    2      C      -0.5570900000     0.7187800000     0.0549300000
    3      C      -1.7432000000    -1.4161600000    -0.1255200000
    4      C      -2.9395200000    -0.7005600000    -0.0528500000
    5      C      -2.9531300000     0.6825500000     0.0693400000
    6      C      -1.7716100000     1.4240400000     0.1281000000
    7      H      -3.9035400000     1.2032500000     0.1171000000
    8      H      -3.8789200000    -1.2421100000    -0.0898800000
    9      C      -1.8396000000     2.9274600000     0.2483900000
   10      C      -1.7810300000    -2.9222600000    -0.2459000000
   11      H      -1.3975200000    -3.2522300000    -1.2132300000
   12      H      -2.8057200000    -3.2817500000    -0.1362700000
   13      H      -1.1695800000    -3.4077700000     0.5192600000
   14      H      -1.2421400000     3.4235200000    -0.5206500000
   15      H      -1.4550300000     3.2642700000     1.2128400000
   16      H      -2.8721100000     3.2662300000     0.1463800000
   17      H       0.3582500000    -1.1816600000    -0.1138600000
   18      H       0.3355100000     1.2354900000     0.0909700000
   19      GH     -1.7330000000    -0.0394500000     3.5912900000
   20      GH     -1.7456500000     1.3630300000     3.7131100000
   21      GH     -2.9317600000    -0.7719100000     3.5326600000
   22      GH     -4.1280800000    -0.0563100000     3.6053300000
   23      GH     -4.1416900000     1.3268000000     3.7275200000
   24      GH     -2.9601700000     2.0682900000     3.7862800000
   25      GH     -5.0921000000     1.8475000000     3.7752800000
   26      GH     -5.0674800000    -0.5978600000     3.5683000000
   27      GH     -3.0281600000     3.5717100000     3.9065700000
   28      GH     -2.9695900000    -2.2780100000     3.4122800000
   29      GH     -2.5860800000    -2.6079800000     2.4449500000
   30      GH     -3.9942800000    -2.6375000000     3.5219100000
   31      GH     -2.3581400000    -2.7635200000     4.1774400000
   32      GH     -2.4307000000     4.0677700000     3.1375300000
   33      GH     -2.6435900000     3.9085200000     4.8710200000
   34      GH     -4.0606700000     3.9104800000     3.8045600000
   35      GH     -0.8303100000    -0.5374100000     3.5443200000
   36      GH     -0.8530500000     1.8797400000     3.7491500000
 ----------------------------------------------------------------

   13    -310.9766736203      1.34E-09 Convergence criterion met
 Total energy in the final basis set = -310.97667362

                    Orbital Energies (a.u.)
 --------------------------------------------------------------

 Alpha MOs
 -- Occupied --
-10.180 -10.180 -10.168 -10.168 -10.168 -10.167 -10.167 -10.167
 -0.859  -0.787  -0.745  -0.721  -0.658  -0.612  -0.577  -0.496
 -0.472  -0.460  -0.425  -0.421  -0.417  -0.404  -0.397  -0.376
 -0.346  -0.342  -0.339  -0.252  -0.237

          Ground-State Mulliken Net Atomic Charges

     Atom                 Charge (a.u.)
  ----------------------------------------
      1 C                    -0.305307
      2 C                    -0.322856
      3 C                     0.481302
      4 C                    -0.370655
      5 C                    -0.367418
      6 C                     0.559911
      7 H                     0.155727
      8 H                     0.152833
      9 C                    -0.658850
     10 C                    -0.658934
     11 H                     0.164531
     12 H                     0.137214
     13 H                     0.163578
     14 H                     0.156543
     15 H                     0.180667
     16 H                     0.133912
     17 H                     0.167768
     18 H                     0.168253
     19 GH                   -0.136607
     20 GH                   -0.061436
     21 GH                    0.069319
     22 GH                    0.147026
     23 GH                   -0.081551
     24 GH                    0.119490
     25 GH                   -0.006812
     26 GH                    0.010064
     27 GH                    0.015159
     28 GH                   -0.071178
     29 GH                    0.049866
     30 GH                   -0.008303
     31 GH                    0.001714
     32 GH                    0.004500
     33 GH                   -0.000787
     34 GH                   -0.000154
     35 GH                   -0.005035
     36 GH                    0.016509
  ----------------------------------------
  Sum of atomic charges =    -0.000000

                    Cartesian Multipole Moments
 -----------------------------------------------------------------
    Charge (ESU x 10^10)
                -0.0000
    Dipole Moment (Debye)
         X       0.0876      Y       0.0021      Z      -0.0005
       Tot       0.0876
    Quadrupole Moments (Debye-Ang)
        XX     -46.3412     XY      -0.0036     YY     -44.7689
        XZ      -0.0479     YZ       0.6613     ZZ     -52.6574

 Total job time:  168.74s(wall), 671.48s(cpu)
        *  Thank you very much for using Q-Chem.  Have a nice day.  *
