 Q-Chem 5.0, Q-Chem, Inc., Pleasanton, CA (2017)
 Q-Chem 5.0.1 for Intel X86 EM64T Linux

User input:
--------------------------------------------------------------
$molecule
0  1
--
0  1
C        +0.22270000        +1.04488000        +0.58595000
C        +0.62626000        -0.41353000        +0.99871000
C        -1.18200000        +1.23223000        +0.04377000
C        -0.37457000        -1.51643000        +0.72333000
O        -2.09172000        +0.78832000        +0.93966000
O        -1.47336000        +1.75939000        -0.99882000
O        -0.91364000        -1.42792000        -0.50620000
O        -0.62208000        -2.40877000        +1.49911000
C        -1.86134000        -2.44741000        -0.86560000
C        -3.47068000        +0.87492000        +0.53920000
C        +1.33008000        +1.39974000        -0.43491000
C        +2.63070000        +1.71700000        +0.32855000
C        +3.04336000        +0.29351000        +0.80300000
C        +1.94423000        -0.59299000        +0.15262000
O        +1.62840000        +0.13663000        -1.04376000
H        +0.27811000        +1.68786000        +1.46900000
H        +0.83923000        -0.48042000        +2.06408000
H        -2.68749000        -2.46677000        -0.15296000
H        -3.76076000        +1.91522000        +0.38406000
H        +3.37234000        +2.13782000        -0.35195000
H        +2.48236000        +2.42488000        +1.14651000
H        +4.02182000        +0.00994000        +0.41161000
H        +3.07359000        +0.18738000        +1.88928000
H        -2.21148000        -2.17765000        -1.85937000
H        -1.38062000        -3.42697000        -0.88096000
H        -4.03855000        +0.43623000        +1.35671000
H        -3.63120000        +0.31700000        -0.38495000
H        +1.03270000        +2.19943000        -1.08064000
H        +2.24339000        -1.61496000        +0.04786000
--
0  1
C        +0.24461000        +2.28594000        +4.59834000
C        +0.64817000        +0.82753000        +5.01110000
C        -1.16009000        +2.47329000        +4.05616000
C        -0.35266000        -0.27537000        +4.73572000
O        -2.06981000        +2.02938000        +4.95205000
O        -1.45145000        +3.00045000        +3.01357000
O        -0.89173000        -0.18686000        +3.50619000
O        -0.60017000        -1.16771000        +5.51150000
C        -1.83943000        -1.20635000        +3.14679000
C        -3.44877000        +2.11598000        +4.55159000
C        +1.35199000        +2.64080000        +3.57748000
C        +2.65261000        +2.95806000        +4.34094000
C        +3.06527000        +1.53457000        +4.81539000
C        +1.96614000        +0.64807000        +4.16501000
O        +1.65031000        +1.37769000        +2.96863000
H        +0.30002000        +2.92892000        +5.48139000
H        +0.86114000        +0.76064000        +6.07647000
H        -2.66558000        -1.22571000        +3.85943000
H        -3.73885000        +3.15628000        +4.39645000
H        +3.39425000        +3.37888000        +3.66044000
H        +2.50427000        +3.66594000        +5.15890000
H        +4.04373000        +1.25100000        +4.42400000
H        +3.09550000        +1.42844000        +5.90167000
H        -2.18957000        -0.93659000        +2.15302000
H        -1.35871000        -2.18591000        +3.13143000
H        -4.01664000        +1.67729000        +5.36910000
H        -3.60929000        +1.55806000        +3.62744000
H        +1.05461000        +3.44049000        +2.93175000
H        +2.26530000        -0.37390000        +4.06025000
$end

$rem
JOBTYPE                   SP
METHOD                    B3LYP
DFT_D                     d3_op
BASIS                     6-311++G(d,p)
SYMMETRY                  False
THRESH                    12
SCF_CONVERGENCE           8
MAX_SUB_FILE_NUM          128
MEM_STATIC                400
MEM_TOTAL                 4000
$end
--------------------------------------------------------------

             Standard Nuclear Orientation (Angstroms)
    I     Atom           X                Y                Z
 ----------------------------------------------------------------
    1      C      -1.2178681252     0.7319652990     0.8953975826
    2      C      -1.3591235239     0.8493829958    -0.6623094554
    3      C      -1.8810985359    -0.4664575802     1.5481986930
    4      C      -2.2273454811    -0.1760958520    -1.3612136040
    5      O      -1.4164758032    -1.6125151198     1.0023568745
    6      O      -2.6588741152    -0.4313087206     2.4666821873
    7      O      -3.3931290377    -0.3851936396    -0.7229336339
    8      O      -1.9319571495    -0.7077652373    -2.4049759728
    9      C      -4.2939397837    -1.3292941526    -1.3261564215
   10      C      -1.9881166561    -2.8324670555     1.5066806427
   11      C      -1.7951409835     2.0883609084     1.3658422886
   12      C      -0.7494949760     3.1916783375     1.1119672384
   13      C      -0.8196968304     3.3069112064    -0.4383578706
   14      C      -1.9557753453     2.3034628445    -0.7838721890
   15      O      -2.7950103170     2.3761992040     0.3796625643
   16      H      -0.1568218994     0.6453643477     1.1463000198
   17      H      -0.3904833173     0.7870395476    -1.1549484454
   18      H      -3.8089600173    -2.3005934494    -1.4362777360
   19      H      -1.7625868636    -2.9522917068     2.5674432371
   20      H      -1.0598547585     4.1207324895     1.5923158618
   21      H       0.2426436110     2.9323576478     1.4868955193
   22      H      -1.1101356687     4.3111561791    -0.7515979777
   23      H       0.1193500021     3.0589440847    -0.9372416459
   24      H      -5.1414765060    -1.3927354050    -0.6474782931
   25      H      -4.6142764082    -0.9772793905    -2.3081622748
   26      H      -1.5307359320    -3.6296882565     0.9248824965
   27      H      -3.0708047467    -2.8271035273     1.3693767815
   28      H      -2.1081742743     2.0528955074     2.3884167640
   29      H      -2.4058923861     2.4974951277    -1.7349979256
   30      C       2.8889280501    -0.0793734167     0.5549006709
   31      C       2.7476726514     0.0380442801    -1.0028063670
   32      C       2.2256976394    -1.2777962960     1.2077017813
   33      C       1.8794506942    -0.9874345678    -1.7017105157
   34      O       2.6903203721    -2.4238538356     0.6618599628
   35      O       1.4479220601    -1.2426474363     2.1261852756
   36      O       0.7136671376    -1.1965323554    -1.0634305456
   37      O       2.1748390258    -1.5191039530    -2.7454728844
   38      C      -0.1871436084    -2.1406328683    -1.6666533332
   39      C       2.1186795192    -3.6438057712     1.1661837311
   40      C       2.3116551917     1.2770221926     1.0253453770
   41      C       3.3573011993     2.3803396217     0.7714703267
   42      C       3.2870993449     2.4955724906    -0.7788547823
   43      C       2.1510208300     1.4921241288    -1.1243691006
   44      O       1.3117858583     1.5648604883     0.0391656526
   45      H       3.9499742758    -0.1659743681     0.8058031082
   46      H       3.7163128580    -0.0242991681    -1.4954453571
   47      H       0.2978361580    -3.1119321651    -1.7767746477
   48      H       2.3442093117    -3.7636304225     2.2269463254
   49      H       3.0469414167     3.3093937737     1.2518189501
   50      H       4.3494397863     2.1210189320     1.1463986076
   51      H       2.9966605066     3.4998174633    -1.0920948893
   52      H       4.2261461774     2.2476053690    -1.2777385576
   53      H      -1.0346803308    -2.2040741208    -0.9879752048
   54      H      -0.5074802329    -1.7886181062    -2.6486591865
   55      H       2.5760602433    -4.4410269722     0.5843855848
   56      H       1.0359914286    -3.6384422430     1.0288798698
   57      H       1.9986219010     1.2415567917     2.0479198523
   58      H       1.7009037892     1.6861564120    -2.0754948372
 ----------------------------------------------------------------

   15   -1531.6923891722      5.07E-09 Convergence criterion met
 Total energy in the final basis set = -1531.69238917

                    Orbital Energies (a.u.)
 --------------------------------------------------------------

 Alpha MOs
 -- Occupied --
-19.181 -19.170 -19.168 -19.165 -19.153 -19.128 -19.121 -19.114
-19.112 -19.106 -10.318 -10.305 -10.300 -10.296 -10.256 -10.247
-10.236 -10.228 -10.228 -10.228 -10.217 -10.215 -10.214 -10.199
-10.194 -10.193 -10.187 -10.182 -10.165 -10.162  -1.125  -1.116
 -1.111  -1.105  -1.086  -1.050  -1.039  -1.030  -1.024  -1.019
 -0.845  -0.816  -0.796  -0.790  -0.770  -0.764  -0.744  -0.732
 -0.725  -0.721  -0.665  -0.646  -0.621  -0.612  -0.599  -0.588
 -0.581  -0.574  -0.568  -0.562  -0.555  -0.542  -0.529  -0.520
 -0.514  -0.502  -0.499  -0.495  -0.492  -0.487  -0.481  -0.478
 -0.476  -0.473  -0.468  -0.465  -0.462  -0.450  -0.449  -0.434
 -0.432  -0.425  -0.424  -0.413  -0.413  -0.408  -0.402  -0.394
 -0.384  -0.380  -0.379  -0.375  -0.370  -0.369  -0.368  -0.364
 -0.355  -0.354  -0.349  -0.347  -0.344  -0.337  -0.325  -0.323
 -0.319  -0.314  -0.305  -0.299  -0.297  -0.293  -0.281  -0.279
 -0.272  -0.259

          Ground-State Mulliken Net Atomic Charges

     Atom                 Charge (a.u.)
  ----------------------------------------
      1 C                     0.485855
      2 C                     0.065890
      3 C                    -0.639672
      4 C                    -0.286408
      5 O                    -0.005379
      6 O                    -0.151776
      7 O                     0.075398
      8 O                    -0.016644
      9 C                    -0.144947
     10 C                    -0.275828
     11 C                    -0.495579
     12 C                    -0.216661
     13 C                    -0.267580
     14 C                    -0.697897
     15 O                    -0.101183
     16 H                     0.329849
     17 H                     0.272381
     18 H                     0.183920
     19 H                     0.208227
     20 H                     0.203899
     21 H                     0.124086
     22 H                     0.192554
     23 H                     0.097633
     24 H                     0.182235
     25 H                     0.170510
     26 H                     0.129998
     27 H                     0.197865
     28 H                     0.262402
     29 H                     0.250457
     30 C                    -0.045332
     31 C                     0.100912
     32 C                    -0.623444
     33 C                    -0.465837
     34 O                     0.082688
     35 O                    -0.092834
     36 O                     0.005738
     37 O                    -0.126654
     38 C                    -0.425498
     39 C                    -0.153648
     40 C                    -0.148171
     41 C                    -0.713732
     42 C                    -0.483231
     43 C                    -0.045849
     44 O                     0.218863
     45 H                     0.249891
     46 H                     0.300787
     47 H                     0.208104
     48 H                     0.167815
     49 H                     0.175373
     50 H                     0.144219
     51 H                     0.181189
     52 H                     0.134621
     53 H                     0.042537
     54 H                     0.266033
     55 H                     0.176018
     56 H                     0.181886
     57 H                     0.285020
     58 H                     0.268930
  ----------------------------------------
  Sum of atomic charges =     0.000000

                    Cartesian Multipole Moments
 -----------------------------------------------------------------
    Charge (ESU x 10^10)
                 0.0000
    Dipole Moment (Debye)
         X       3.7086      Y      -0.4488      Z       0.3976
       Tot       3.7568
    Quadrupole Moments (Debye-Ang)
        XX    -171.3845     XY      17.3366     YY    -160.2942
        XZ      16.0695     YZ      -9.4312     ZZ    -194.9809

 Total job time:  8627.06s(wall), 8606.53s(cpu)
        *  Thank you very much for using Q-Chem.  Have a nice day.  *
