 Q-Chem 5.0, Q-Chem, Inc., Pleasanton, CA (2017)
 Q-Chem 5.0.1 for Intel X86 EM64T Linux

User input:
--------------------------------------------------------------
$molecule
0  1
C        +0.24461000        +2.28594000        +4.59834000
C        +0.64817000        +0.82753000        +5.01110000
C        -1.16009000        +2.47329000        +4.05616000
C        -0.35266000        -0.27537000        +4.73572000
O        -2.06981000        +2.02938000        +4.95205000
O        -1.45145000        +3.00045000        +3.01357000
O        -0.89173000        -0.18686000        +3.50619000
O        -0.60017000        -1.16771000        +5.51150000
C        -1.83943000        -1.20635000        +3.14679000
C        -3.44877000        +2.11598000        +4.55159000
C        +1.35199000        +2.64080000        +3.57748000
C        +2.65261000        +2.95806000        +4.34094000
C        +3.06527000        +1.53457000        +4.81539000
C        +1.96614000        +0.64807000        +4.16501000
O        +1.65031000        +1.37769000        +2.96863000
H        +0.30002000        +2.92892000        +5.48139000
H        +0.86114000        +0.76064000        +6.07647000
H        -2.66558000        -1.22571000        +3.85943000
H        -3.73885000        +3.15628000        +4.39645000
H        +3.39425000        +3.37888000        +3.66044000
H        +2.50427000        +3.66594000        +5.15890000
H        +4.04373000        +1.25100000        +4.42400000
H        +3.09550000        +1.42844000        +5.90167000
H        -2.18957000        -0.93659000        +2.15302000
H        -1.35871000        -2.18591000        +3.13143000
H        -4.01664000        +1.67729000        +5.36910000
H        -3.60929000        +1.55806000        +3.62744000
H        +1.05461000        +3.44049000        +2.93175000
H        +2.26530000        -0.37390000        +4.06025000
@C        +0.22270000        +1.04488000        +0.58595000
@C        +0.62626000        -0.41353000        +0.99871000
@C        -1.18200000        +1.23223000        +0.04377000
@C        -0.37457000        -1.51643000        +0.72333000
@O        -2.09172000        +0.78832000        +0.93966000
@O        -1.47336000        +1.75939000        -0.99882000
@O        -0.91364000        -1.42792000        -0.50620000
@O        -0.62208000        -2.40877000        +1.49911000
@C        -1.86134000        -2.44741000        -0.86560000
@C        -3.47068000        +0.87492000        +0.53920000
@C        +1.33008000        +1.39974000        -0.43491000
@C        +2.63070000        +1.71700000        +0.32855000
@C        +3.04336000        +0.29351000        +0.80300000
@C        +1.94423000        -0.59299000        +0.15262000
@O        +1.62840000        +0.13663000        -1.04376000
@H        +0.27811000        +1.68786000        +1.46900000
@H        +0.83923000        -0.48042000        +2.06408000
@H        -2.68749000        -2.46677000        -0.15296000
@H        -3.76076000        +1.91522000        +0.38406000
@H        +3.37234000        +2.13782000        -0.35195000
@H        +2.48236000        +2.42488000        +1.14651000
@H        +4.02182000        +0.00994000        +0.41161000
@H        +3.07359000        +0.18738000        +1.88928000
@H        -2.21148000        -2.17765000        -1.85937000
@H        -1.38062000        -3.42697000        -0.88096000
@H        -4.03855000        +0.43623000        +1.35671000
@H        -3.63120000        +0.31700000        -0.38495000
@H        +1.03270000        +2.19943000        -1.08064000
@H        +2.24339000        -1.61496000        +0.04786000
$end

$rem
JOBTYPE                   SP
METHOD                    B3LYP
DFT_D                     d3_op
BASIS                     6-311++G(d,p)
SYMMETRY                  False
THRESH                    12
SCF_CONVERGENCE           8
MAX_SUB_FILE_NUM          128
MEM_STATIC                400
MEM_TOTAL                 4000
$end
--------------------------------------------------------------

             Standard Nuclear Orientation (Angstroms)
    I     Atom           X                Y                Z
 ----------------------------------------------------------------
    1      C       0.2446100000     2.2859400000     4.5983400000
    2      C       0.6481700000     0.8275300000     5.0111000000
    3      C      -1.1600900000     2.4732900000     4.0561600000
    4      C      -0.3526600000    -0.2753700000     4.7357200000
    5      O      -2.0698100000     2.0293800000     4.9520500000
    6      O      -1.4514500000     3.0004500000     3.0135700000
    7      O      -0.8917300000    -0.1868600000     3.5061900000
    8      O      -0.6001700000    -1.1677100000     5.5115000000
    9      C      -1.8394300000    -1.2063500000     3.1467900000
   10      C      -3.4487700000     2.1159800000     4.5515900000
   11      C       1.3519900000     2.6408000000     3.5774800000
   12      C       2.6526100000     2.9580600000     4.3409400000
   13      C       3.0652700000     1.5345700000     4.8153900000
   14      C       1.9661400000     0.6480700000     4.1650100000
   15      O       1.6503100000     1.3776900000     2.9686300000
   16      H       0.3000200000     2.9289200000     5.4813900000
   17      H       0.8611400000     0.7606400000     6.0764700000
   18      H      -2.6655800000    -1.2257100000     3.8594300000
   19      H      -3.7388500000     3.1562800000     4.3964500000
   20      H       3.3942500000     3.3788800000     3.6604400000
   21      H       2.5042700000     3.6659400000     5.1589000000
   22      H       4.0437300000     1.2510000000     4.4240000000
   23      H       3.0955000000     1.4284400000     5.9016700000
   24      H      -2.1895700000    -0.9365900000     2.1530200000
   25      H      -1.3587100000    -2.1859100000     3.1314300000
   26      H      -4.0166400000     1.6772900000     5.3691000000
   27      H      -3.6092900000     1.5580600000     3.6274400000
   28      H       1.0546100000     3.4404900000     2.9317500000
   29      H       2.2653000000    -0.3739000000     4.0602500000
   30      GH      0.2227000000     1.0448800000     0.5859500000
   31      GH      0.6262600000    -0.4135300000     0.9987100000
   32      GH     -1.1820000000     1.2322300000     0.0437700000
   33      GH     -0.3745700000    -1.5164300000     0.7233300000
   34      GH     -2.0917200000     0.7883200000     0.9396600000
   35      GH     -1.4733600000     1.7593900000    -0.9988200000
   36      GH     -0.9136400000    -1.4279200000    -0.5062000000
   37      GH     -0.6220800000    -2.4087700000     1.4991100000
   38      GH     -1.8613400000    -2.4474100000    -0.8656000000
   39      GH     -3.4706800000     0.8749200000     0.5392000000
   40      GH      1.3300800000     1.3997400000    -0.4349100000
   41      GH      2.6307000000     1.7170000000     0.3285500000
   42      GH      3.0433600000     0.2935100000     0.8030000000
   43      GH      1.9442300000    -0.5929900000     0.1526200000
   44      GH      1.6284000000     0.1366300000    -1.0437600000
   45      GH      0.2781100000     1.6878600000     1.4690000000
   46      GH      0.8392300000    -0.4804200000     2.0640800000
   47      GH     -2.6874900000    -2.4667700000    -0.1529600000
   48      GH     -3.7607600000     1.9152200000     0.3840600000
   49      GH      3.3723400000     2.1378200000    -0.3519500000
   50      GH      2.4823600000     2.4248800000     1.1465100000
   51      GH      4.0218200000     0.0099400000     0.4116100000
   52      GH      3.0735900000     0.1873800000     1.8892800000
   53      GH     -2.2114800000    -2.1776500000    -1.8593700000
   54      GH     -1.3806200000    -3.4269700000    -0.8809600000
   55      GH     -4.0385500000     0.4362300000     1.3567100000
   56      GH     -3.6312000000     0.3170000000    -0.3849500000
   57      GH      1.0327000000     2.1994300000    -1.0806400000
   58      GH      2.2433900000    -1.6149600000     0.0478600000
 ----------------------------------------------------------------

   14    -765.8603522041      6.73E-09 Convergence criterion met
 Total energy in the final basis set = -765.86035220

                    Orbital Energies (a.u.)
 --------------------------------------------------------------

 Alpha MOs
 -- Occupied --
-19.176 -19.174 -19.136 -19.120 -19.116 -10.310 -10.306 -10.242
-10.232 -10.232 -10.230 -10.207 -10.206 -10.182 -10.180  -1.120
 -1.113  -1.065  -1.031  -1.027  -0.833  -0.785  -0.778  -0.740
 -0.729  -0.659  -0.610  -0.596  -0.580  -0.567  -0.551  -0.520
 -0.506  -0.496  -0.489  -0.484  -0.475  -0.473  -0.462  -0.439
 -0.427  -0.425  -0.418  -0.399  -0.385  -0.376  -0.371  -0.368
 -0.362  -0.356  -0.337  -0.334  -0.320  -0.313  -0.290  -0.282
 -0.276

          Ground-State Mulliken Net Atomic Charges

     Atom                 Charge (a.u.)
  ----------------------------------------
      1 C                    -0.108230
      2 C                     0.070445
      3 C                    -0.625041
      4 C                    -0.467817
      5 O                     0.078751
      6 O                    -0.084554
      7 O                    -0.064157
      8 O                    -0.134259
      9 C                    -0.428543
     10 C                    -0.155872
     11 C                     0.012215
     12 C                    -0.709055
     13 C                    -0.524167
     14 C                     0.080195
     15 O                     0.246990
     16 H                     0.240643
     17 H                     0.290818
     18 H                     0.241735
     19 H                     0.168093
     20 H                     0.174129
     21 H                     0.135449
     22 H                     0.175220
     23 H                     0.127681
     24 H                     0.096823
     25 H                     0.221987
     26 H                     0.174249
     27 H                     0.193500
     28 H                     0.278513
     29 H                     0.256689
     30 GH                    0.241750
     31 GH                    0.030966
     32 GH                   -0.097281
     33 GH                    0.016090
     34 GH                   -0.040712
     35 GH                    0.001916
     36 GH                   -0.008175
     37 GH                   -0.013898
     38 GH                    0.003152
     39 GH                    0.011792
     40 GH                   -0.013721
     41 GH                    0.023319
     42 GH                   -0.001210
     43 GH                   -0.067705
     44 GH                   -0.004150
     45 GH                   -0.000790
     46 GH                   -0.010700
     47 GH                    0.002032
     48 GH                    0.004382
     49 GH                   -0.003359
     50 GH                   -0.007172
     51 GH                   -0.003702
     52 GH                   -0.022373
     53 GH                   -0.000046
     54 GH                    0.000123
     55 GH                    0.002692
     56 GH                   -0.000733
     57 GH                   -0.002920
     58 GH                   -0.001996
  ----------------------------------------
  Sum of atomic charges =     0.000000

                    Cartesian Multipole Moments
 -----------------------------------------------------------------
    Charge (ESU x 10^10)
                 0.0000
    Dipole Moment (Debye)
         X      -0.0016      Y       0.7299      Z       1.1878
       Tot       1.3941
    Quadrupole Moments (Debye-Ang)
        XX     -75.2397     XY       2.9418     YY     -87.9627
        XZ       3.3361     YZ      15.0896     ZZ     -86.2305

 Total job time:  7335.33s(wall), 7317.75s(cpu)
        *  Thank you very much for using Q-Chem.  Have a nice day.  *
