 Q-Chem 5.0, Q-Chem, Inc., Pleasanton, CA (2017)
 Q-Chem 5.0.1 for Intel X86 EM64T Linux

User input:
--------------------------------------------------------------
$molecule
0  1
C        -0.51554000        -1.04990000        +4.11701000
C        -0.52819000        +0.35258000        +4.23883000
C        +0.77859000        -1.80396000        +4.09016000
C        +0.75733000        +1.11816000        +4.24988000
O        +1.56535000        -1.45796000        +5.13203000
O        +1.07592000        -2.65025000        +3.28302000
O        +1.56674000        +0.71681000        +3.24513000
O        +1.03925000        +2.00477000        +5.01868000
C        +2.86339000        +1.33501000        +3.19032000
C        +2.85206000        -2.09828000        +5.18865000
C        -1.71430000        -1.78236000        +4.05838000
C        -2.91062000        -1.06676000        +4.13105000
C        -2.92423000        +0.31635000        +4.25324000
C        -1.74271000        +1.05784000        +4.31200000
H        +2.76725000        +2.41369000        +3.05926000
H        +2.73668000        -3.17939000        +5.27945000
H        -3.87464000        +0.83705000        +4.30100000
H        +3.41888000        +1.13473000        +4.10846000
H        +3.36074000        +0.88649000        +2.33323000
H        +3.33985000        -1.68901000        +6.07040000
H        +3.42779000        -1.87554000        +4.28849000
H        -3.85002000        -1.60831000        +4.09402000
H        -1.75996000        +2.08544000        +4.40566000
H        -1.70988000        -2.81013000        +3.96515000
@C        -0.54444000        -0.68370000        -0.06689000
@C        -0.55709000        +0.71878000        +0.05493000
@C        +0.74969000        -1.43776000        -0.09374000
@C        +0.72843000        +1.48436000        +0.06598000
@O        +1.53645000        -1.09176000        +0.94813000
@O        +1.04702000        -2.28405000        -0.90088000
@O        +1.53784000        +1.08301000        -0.93877000
@O        +1.01035000        +2.37097000        +0.83478000
@C        +2.83449000        +1.70121000        -0.99358000
@C        +2.82316000        -1.73208000        +1.00475000
@C        -1.74320000        -1.41616000        -0.12552000
@C        -2.93952000        -0.70056000        -0.05285000
@C        -2.95313000        +0.68255000        +0.06934000
@C        -1.77161000        +1.42404000        +0.12810000
@H        +2.73835000        +2.77989000        -1.12464000
@H        +2.70778000        -2.81319000        +1.09555000
@H        -3.90354000        +1.20325000        +0.11710000
@H        +3.38998000        +1.50093000        -0.07544000
@H        +3.33184000        +1.25269000        -1.85067000
@H        +3.31095000        -1.32281000        +1.88650000
@H        +3.39889000        -1.50934000        +0.10459000
@H        -3.87892000        -1.24211000        -0.08988000
@H        -1.78886000        +2.45164000        +0.22176000
@H        -1.73878000        -2.44393000        -0.21875000
$end

$rem
JOBTYPE                   SP
METHOD                    B3LYP
DFT_D                     d3_op
BASIS                     6-311++G(d,p)
SYMMETRY                  False
THRESH                    12
SCF_CONVERGENCE           8
MAX_SUB_FILE_NUM          128
MEM_STATIC                400
MEM_TOTAL                 4000
$end
--------------------------------------------------------------

             Standard Nuclear Orientation (Angstroms)
    I     Atom           X                Y                Z
 ----------------------------------------------------------------
    1      C      -0.5155400000    -1.0499000000     4.1170100000
    2      C      -0.5281900000     0.3525800000     4.2388300000
    3      C       0.7785900000    -1.8039600000     4.0901600000
    4      C       0.7573300000     1.1181600000     4.2498800000
    5      O       1.5653500000    -1.4579600000     5.1320300000
    6      O       1.0759200000    -2.6502500000     3.2830200000
    7      O       1.5667400000     0.7168100000     3.2451300000
    8      O       1.0392500000     2.0047700000     5.0186800000
    9      C       2.8633900000     1.3350100000     3.1903200000
   10      C       2.8520600000    -2.0982800000     5.1886500000
   11      C      -1.7143000000    -1.7823600000     4.0583800000
   12      C      -2.9106200000    -1.0667600000     4.1310500000
   13      C      -2.9242300000     0.3163500000     4.2532400000
   14      C      -1.7427100000     1.0578400000     4.3120000000
   15      H       2.7672500000     2.4136900000     3.0592600000
   16      H       2.7366800000    -3.1793900000     5.2794500000
   17      H      -3.8746400000     0.8370500000     4.3010000000
   18      H       3.4188800000     1.1347300000     4.1084600000
   19      H       3.3607400000     0.8864900000     2.3332300000
   20      H       3.3398500000    -1.6890100000     6.0704000000
   21      H       3.4277900000    -1.8755400000     4.2884900000
   22      H      -3.8500200000    -1.6083100000     4.0940200000
   23      H      -1.7599600000     2.0854400000     4.4056600000
   24      H      -1.7098800000    -2.8101300000     3.9651500000
   25      GH     -0.5444400000    -0.6837000000    -0.0668900000
   26      GH     -0.5570900000     0.7187800000     0.0549300000
   27      GH      0.7496900000    -1.4377600000    -0.0937400000
   28      GH      0.7284300000     1.4843600000     0.0659800000
   29      GH      1.5364500000    -1.0917600000     0.9481300000
   30      GH      1.0470200000    -2.2840500000    -0.9008800000
   31      GH      1.5378400000     1.0830100000    -0.9387700000
   32      GH      1.0103500000     2.3709700000     0.8347800000
   33      GH      2.8344900000     1.7012100000    -0.9935800000
   34      GH      2.8231600000    -1.7320800000     1.0047500000
   35      GH     -1.7432000000    -1.4161600000    -0.1255200000
   36      GH     -2.9395200000    -0.7005600000    -0.0528500000
   37      GH     -2.9531300000     0.6825500000     0.0693400000
   38      GH     -1.7716100000     1.4240400000     0.1281000000
   39      GH      2.7383500000     2.7798900000    -1.1246400000
   40      GH      2.7077800000    -2.8131900000     1.0955500000
   41      GH     -3.9035400000     1.2032500000     0.1171000000
   42      GH      3.3899800000     1.5009300000    -0.0754400000
   43      GH      3.3318400000     1.2526900000    -1.8506700000
   44      GH      3.3109500000    -1.3228100000     1.8865000000
   45      GH      3.3988900000    -1.5093400000     0.1045900000
   46      GH     -3.8789200000    -1.2421100000    -0.0898800000
   47      GH     -1.7888600000     2.4516400000     0.2217600000
   48      GH     -1.7387800000    -2.4439300000    -0.2187500000
 ----------------------------------------------------------------

   14    -688.2118774798      5.73E-09 Convergence criterion met
 Total energy in the final basis set = -688.21187748

                    Orbital Energies (a.u.)
 --------------------------------------------------------------

 Alpha MOs
 -- Occupied --
-19.179 -19.178 -19.122 -19.122 -10.314 -10.314 -10.233 -10.233
-10.215 -10.214 -10.198 -10.198 -10.197 -10.197  -1.123  -1.116
 -1.033  -1.032  -0.887  -0.800  -0.787  -0.744  -0.733  -0.656
 -0.646  -0.596  -0.579  -0.555  -0.524  -0.516  -0.493  -0.492
 -0.485  -0.479  -0.472  -0.468  -0.440  -0.431  -0.416  -0.408
 -0.389  -0.387  -0.384  -0.369  -0.366  -0.324  -0.315  -0.301
 -0.297  -0.275  -0.272

          Ground-State Mulliken Net Atomic Charges

     Atom                 Charge (a.u.)
  ----------------------------------------
      1 C                     0.717621
      2 C                     0.826781
      3 C                    -0.803808
      4 C                    -0.678838
      5 O                     0.129841
      6 O                    -0.102035
      7 O                     0.081332
      8 O                    -0.152717
      9 C                    -0.417379
     10 C                    -0.140738
     11 C                    -0.435189
     12 C                    -0.320981
     13 C                    -0.309453
     14 C                    -0.208871
     15 H                     0.216001
     16 H                     0.168579
     17 H                     0.183333
     18 H                     0.200851
     19 H                     0.115843
     20 H                     0.171850
     21 H                     0.190156
     22 H                     0.184237
     23 H                     0.209963
     24 H                     0.201386
     25 GH                   -0.093585
     26 GH                   -0.049005
     27 GH                    0.028395
     28 GH                    0.038195
     29 GH                    0.024156
     30 GH                    0.001512
     31 GH                   -0.001422
     32 GH                   -0.001137
     33 GH                   -0.021898
     34 GH                   -0.011775
     35 GH                    0.047539
     36 GH                   -0.016229
     37 GH                    0.024920
     38 GH                   -0.003526
     39 GH                    0.001482
     40 GH                    0.008680
     41 GH                    0.002502
     42 GH                    0.004444
     43 GH                   -0.001785
     44 GH                   -0.016025
     45 GH                    0.001039
     46 GH                    0.000234
     47 GH                    0.002488
     48 GH                    0.003038
  ----------------------------------------
  Sum of atomic charges =     0.000000

                    Cartesian Multipole Moments
 -----------------------------------------------------------------
    Charge (ESU x 10^10)
                 0.0000
    Dipole Moment (Debye)
         X      -0.0473      Y      -0.1164      Z       0.0485
       Tot       0.1347
    Quadrupole Moments (Debye-Ang)
        XX     -61.4169     XY      -0.0525     YY     -84.2869
        XZ      -0.0733     YZ     -10.1993     ZZ     -86.5766

 Total job time:  1336.65s(wall), 2654.94s(cpu)
        *  Thank you very much for using Q-Chem.  Have a nice day.  *
