 Q-Chem 5.0, Q-Chem, Inc., Pleasanton, CA (2017)
 Q-Chem 5.0.1 for Intel X86 EM64T Linux

User input:
--------------------------------------------------------------
$molecule
0  1
--
0  1
C        -0.54444000        -0.68370000        -0.06689000
C        -0.55709000        +0.71878000        +0.05493000
C        +0.74969000        -1.43776000        -0.09374000
C        +0.72843000        +1.48436000        +0.06598000
O        +1.53645000        -1.09176000        +0.94813000
O        +1.04702000        -2.28405000        -0.90088000
O        +1.53784000        +1.08301000        -0.93877000
O        +1.01035000        +2.37097000        +0.83478000
C        +2.83449000        +1.70121000        -0.99358000
C        +2.82316000        -1.73208000        +1.00475000
C        -1.74320000        -1.41616000        -0.12552000
C        -2.93952000        -0.70056000        -0.05285000
C        -2.95313000        +0.68255000        +0.06934000
C        -1.77161000        +1.42404000        +0.12810000
H        +2.73835000        +2.77989000        -1.12464000
H        +2.70778000        -2.81319000        +1.09555000
H        -3.90354000        +1.20325000        +0.11710000
H        +3.38998000        +1.50093000        -0.07544000
H        +3.33184000        +1.25269000        -1.85067000
H        +3.31095000        -1.32281000        +1.88650000
H        +3.39889000        -1.50934000        +0.10459000
H        -3.87892000        -1.24211000        -0.08988000
H        -1.78886000        +2.45164000        +0.22176000
H        -1.73878000        -2.44393000        -0.21875000
--
0  1
C        -0.51554000        -1.04990000        +4.11701000
C        -0.52819000        +0.35258000        +4.23883000
C        +0.77859000        -1.80396000        +4.09016000
C        +0.75733000        +1.11816000        +4.24988000
O        +1.56535000        -1.45796000        +5.13203000
O        +1.07592000        -2.65025000        +3.28302000
O        +1.56674000        +0.71681000        +3.24513000
O        +1.03925000        +2.00477000        +5.01868000
C        +2.86339000        +1.33501000        +3.19032000
C        +2.85206000        -2.09828000        +5.18865000
C        -1.71430000        -1.78236000        +4.05838000
C        -2.91062000        -1.06676000        +4.13105000
C        -2.92423000        +0.31635000        +4.25324000
C        -1.74271000        +1.05784000        +4.31200000
H        +2.76725000        +2.41369000        +3.05926000
H        +2.73668000        -3.17939000        +5.27945000
H        -3.87464000        +0.83705000        +4.30100000
H        +3.41888000        +1.13473000        +4.10846000
H        +3.36074000        +0.88649000        +2.33323000
H        +3.33985000        -1.68901000        +6.07040000
H        +3.42779000        -1.87554000        +4.28849000
H        -3.85002000        -1.60831000        +4.09402000
H        -1.75996000        +2.08544000        +4.40566000
H        -1.70988000        -2.81013000        +3.96515000
$end

$rem
JOBTYPE                   SP
METHOD                    B3LYP
DFT_D                     d3_op
BASIS                     6-311++G(d,p)
SYMMETRY                  False
THRESH                    12
SCF_CONVERGENCE           8
MAX_SUB_FILE_NUM          128
MEM_STATIC                400
MEM_TOTAL                 4000
$end
--------------------------------------------------------------

             Standard Nuclear Orientation (Angstroms)
    I     Atom           X                Y                Z
 ----------------------------------------------------------------
    1      C      -2.0393318072     0.7889994990     0.9049745638
    2      C      -2.1809312667     0.8077040113    -0.4955789052
    3      C      -1.8983985059    -0.5072416012     1.6425358681
    4      C      -2.2857520466    -0.4754054543    -1.2581005197
    5      O      -0.9229486037    -1.2703853040     1.1037320340
    6      O      -2.5275675921    -0.8240601036     2.6222598956
    7      O      -3.1811633221    -1.3073820400    -0.6820774805
    8      O      -1.6896728631    -0.7384320330    -2.2740317400
    9      C      -3.3230196656    -2.6034056415    -1.2876154239
   10      C      -0.7213435387    -2.5571215795     1.7140625232
   11      C      -1.9856042884     1.9844188343     1.6432472998
   12      C      -2.0723317696     3.1837728246     0.9343226343
   13      C      -2.2099830412     3.2033979413    -0.4472619206
   14      C      -2.2656227327     2.0252393199    -1.1943202556
   15      H      -3.6545070989    -2.5075018774    -2.3224529547
   16      H      -0.4333611426    -2.4424343754     2.7601356570
   17      H      -2.2797826974     4.1558856354    -0.9616390938
   18      H      -2.3722697418    -3.1393474786    -1.2651831335
   19      H      -4.0711101589    -3.1203103577    -0.6907062103
   20      H       0.0788119153    -3.0246834530     1.1447987676
   21      H      -1.6350292580    -3.1516860464     1.6589474879
   22      H      -2.0275078327     4.1208272212     1.4793362634
   23      H      -2.3652149759     2.0470190081    -2.2212762178
   24      H      -1.8858254767     1.9754750006     2.6703727735
   25      C       2.1393059867     0.8499148646     0.4863669129
   26      C       1.9977065272     0.8686193769    -0.9141865561
   27      C       2.2802392881    -0.4463262356     1.2239282172
   28      C       1.8928857473    -0.4144900887    -1.6767081707
   29      O       3.2556891902    -1.2094699384     0.6851243830
   30      O       1.6510702019    -0.7631447380     2.2036522447
   31      O       0.9974744718    -1.2464666744    -1.1006851315
   32      O       2.4889649309    -0.6775166674    -2.6926393909
   33      C       0.8556181283    -2.5424902759    -1.7062230748
   34      C       3.4572942552    -2.4962062139     1.2954548723
   35      C       2.1930335056     2.0453341999     1.2246396489
   36      C       2.1063060244     3.2446881902     0.5157149834
   37      C       1.9686547527     3.2643133069    -0.8658695715
   38      C       1.9130150612     2.0861546855    -1.6129279065
   39      H       0.5241306950    -2.4465865118    -2.7410606056
   40      H       3.7452766513    -2.3815190098     2.3415280061
   41      H       1.8988550965     4.2168010010    -1.3802467447
   42      H       1.8063680521    -3.0784321130    -1.6837907844
   43      H       0.1075276350    -3.0593949921    -1.1093138612
   44      H       4.2574497092    -2.9637680874     0.7261911167
   45      H       2.5436085359    -3.0907706808     1.2403398370
   46      H       2.1511299613     4.1817425868     1.0607286125
   47      H       1.8134228180     2.1079343737    -2.6398838687
   48      H       2.2928123173     2.0363903662     2.2517651226
 ----------------------------------------------------------------

   15   -1376.4291533962      7.41E-09 Convergence criterion met
 Total energy in the final basis set = -1376.42915340

                    Orbital Energies (a.u.)
 --------------------------------------------------------------

 Alpha MOs
 -- Occupied --
-19.178 -19.177 -19.167 -19.166 -19.121 -19.121 -19.113 -19.112
-10.313 -10.313 -10.306 -10.305 -10.235 -10.234 -10.225 -10.223
-10.211 -10.211 -10.210 -10.209 -10.195 -10.195 -10.194 -10.194
-10.194 -10.194 -10.193 -10.193  -1.121  -1.120  -1.109  -1.108
 -1.032  -1.032  -1.024  -1.022  -0.884  -0.883  -0.796  -0.795
 -0.783  -0.783  -0.741  -0.740  -0.729  -0.726  -0.653  -0.652
 -0.642  -0.641  -0.593  -0.592  -0.575  -0.574  -0.553  -0.548
 -0.522  -0.519  -0.515  -0.509  -0.493  -0.491  -0.486  -0.486
 -0.485  -0.478  -0.477  -0.468  -0.468  -0.468  -0.464  -0.462
 -0.440  -0.436  -0.430  -0.422  -0.413  -0.413  -0.404  -0.402
 -0.386  -0.386  -0.385  -0.383  -0.380  -0.376  -0.366  -0.365
 -0.363  -0.353  -0.322  -0.320  -0.309  -0.307  -0.299  -0.296
 -0.293  -0.288  -0.275  -0.271  -0.267  -0.264

          Ground-State Mulliken Net Atomic Charges

     Atom                 Charge (a.u.)
  ----------------------------------------
      1 C                     0.689740
      2 C                     0.681302
      3 C                    -0.619284
      4 C                    -0.772137
      5 O                     0.130428
      6 O                    -0.159223
      7 O                     0.131758
      8 O                    -0.119619
      9 C                    -0.151570
     10 C                    -0.386979
     11 C                    -0.148559
     12 C                    -0.323560
     13 C                    -0.291803
     14 C                    -0.449420
     15 H                     0.170339
     16 H                     0.239830
     17 H                     0.181243
     18 H                     0.186860
     19 H                     0.172006
     20 H                     0.064668
     21 H                     0.190141
     22 H                     0.178087
     23 H                     0.200632
     24 H                     0.211912
     25 C                     0.640169
     26 C                     0.747097
     27 C                    -0.786304
     28 C                    -0.641357
     29 O                     0.138449
     30 O                    -0.110741
     31 O                     0.111320
     32 O                    -0.158499
     33 C                    -0.399893
     34 C                    -0.134219
     35 C                    -0.436600
     36 C                    -0.292064
     37 C                    -0.325936
     38 C                    -0.151636
     39 H                     0.242144
     40 H                     0.169390
     41 H                     0.178222
     42 H                     0.194454
     43 H                     0.059913
     44 H                     0.173166
     45 H                     0.183825
     46 H                     0.181252
     47 H                     0.212456
     48 H                     0.198596
  ----------------------------------------
  Sum of atomic charges =     0.000000

                    Cartesian Multipole Moments
 -----------------------------------------------------------------
    Charge (ESU x 10^10)
                 0.0000
    Dipole Moment (Debye)
         X       0.2032      Y       0.2699      Z       0.1968
       Tot       0.3910
    Quadrupole Moments (Debye-Ang)
        XX    -168.4645     XY      -1.1968     YY    -126.2073
        XZ      18.5932     YZ       0.7081     ZZ    -175.8191

 Total job time:  1399.85s(wall), 2786.90s(cpu)
        *  Thank you very much for using Q-Chem.  Have a nice day.  *
