 Q-Chem 5.0, Q-Chem, Inc., Pleasanton, CA (2017)
 Q-Chem 5.0.1 for Intel X86 EM64T Linux

User input:
--------------------------------------------------------------
$molecule
0  1
--
0  1
C        +0.22270000        +1.04488000        +0.58595000
C        +0.62626000        -0.41353000        +0.99871000
C        -1.18200000        +1.23223000        +0.04377000
C        -0.37457000        -1.51643000        +0.72333000
O        -2.09172000        +0.78832000        +0.93966000
O        -1.47336000        +1.75939000        -0.99882000
O        -0.91364000        -1.42792000        -0.50620000
O        -0.62208000        -2.40877000        +1.49911000
C        -1.86134000        -2.44741000        -0.86560000
C        -3.47068000        +0.87492000        +0.53920000
C        +1.33008000        +1.39974000        -0.43491000
C        +2.63070000        +1.71700000        +0.32855000
C        +3.04336000        +0.29351000        +0.80300000
C        +1.94423000        -0.59299000        +0.15262000
O        +1.62840000        +0.13663000        -1.04376000
H        +0.27811000        +1.68786000        +1.46900000
H        +0.83923000        -0.48042000        +2.06408000
H        -2.68749000        -2.46677000        -0.15296000
H        -3.76076000        +1.91522000        +0.38406000
H        +3.37234000        +2.13782000        -0.35195000
H        +2.48236000        +2.42488000        +1.14651000
H        +4.02182000        +0.00994000        +0.41161000
H        +3.07359000        +0.18738000        +1.88928000
H        -2.21148000        -2.17765000        -1.85937000
H        -1.38062000        -3.42697000        -0.88096000
H        -4.03855000        +0.43623000        +1.35671000
H        -3.63120000        +0.31700000        -0.38495000
C        +2.35450000        -2.01267000        -0.16812000
H        +3.26311000        -2.00678000        -0.77366000
H        +2.54990000        -2.57059000        +0.75079000
H        +1.57335000        -2.52896000        -0.72872000
H        +1.03270000        +2.19943000        -1.08064000
--
0  1
C        +0.24461000        +2.28594000        +4.59834000
C        +0.64817000        +0.82753000        +5.01110000
C        -1.16009000        +2.47329000        +4.05616000
C        -0.35266000        -0.27537000        +4.73572000
O        -2.06981000        +2.02938000        +4.95205000
O        -1.45145000        +3.00045000        +3.01357000
O        -0.89173000        -0.18686000        +3.50619000
O        -0.60017000        -1.16771000        +5.51150000
C        -1.83943000        -1.20635000        +3.14679000
C        -3.44877000        +2.11598000        +4.55159000
C        +1.35199000        +2.64080000        +3.57748000
C        +2.65261000        +2.95806000        +4.34094000
C        +3.06527000        +1.53457000        +4.81539000
C        +1.96614000        +0.64807000        +4.16501000
O        +1.65031000        +1.37769000        +2.96863000
H        +0.30002000        +2.92892000        +5.48139000
H        +0.86114000        +0.76064000        +6.07647000
H        -2.66558000        -1.22571000        +3.85943000
H        -3.73885000        +3.15628000        +4.39645000
H        +3.39425000        +3.37888000        +3.66044000
H        +2.50427000        +3.66594000        +5.15890000
H        +4.04373000        +1.25100000        +4.42400000
H        +3.09550000        +1.42844000        +5.90167000
H        -2.18957000        -0.93659000        +2.15302000
H        -1.35871000        -2.18591000        +3.13143000
H        -4.01664000        +1.67729000        +5.36910000
H        -3.60929000        +1.55806000        +3.62744000
C        +2.37641000        -0.77161000        +3.84427000
H        +3.28502000        -0.76572000        +3.23873000
H        +2.57181000        -1.32953000        +4.76318000
H        +1.59526000        -1.28790000        +3.28367000
H        +1.05461000        +3.44049000        +2.93175000
$end

$rem
JOBTYPE                   SP
METHOD                    B3LYP
DFT_D                     d3_op
BASIS                     6-311++G(d,p)
SYMMETRY                  False
THRESH                    12
SCF_CONVERGENCE           8
MAX_SUB_FILE_NUM          128
MEM_STATIC                400
MEM_TOTAL                 4000
$end
--------------------------------------------------------------

             Standard Nuclear Orientation (Angstroms)
    I     Atom           X                Y                Z
 ----------------------------------------------------------------
    1      C      -1.1842553013     0.2365659219     1.1596535479
    2      C      -1.4016452309     0.6089501781    -0.3484123670
    3      C      -1.6698506824    -1.1328036594     1.5969924789
    4      C      -2.1662601239    -0.3783925163    -1.2053847776
    5      O      -1.0917572679    -2.0957711360     0.8448175645
    6      O      -2.4083273352    -1.3597762532     2.5205280213
    7      O      -3.2711745771    -0.8433949356    -0.5945563998
    8      O      -1.8508723422    -0.6750667870    -2.3331619756
    9      C      -4.0741359353    -1.7723841224    -1.3421496436
   10      C      -1.4899069907    -3.4482490596     1.1306124515
   11      C      -1.9027016879     1.4038709765     1.8777098985
   12      C      -1.0101390093     2.6583411337     1.8086161005
   13      C      -1.1564970988     3.0363038167     0.3061386870
   14      C      -2.1751417238     1.9739196116    -0.1945269501
   15      O      -2.9692284283     1.7324586839     0.9778816663
   16      H      -0.1112777658     0.2422917551     1.3716848525
   17      H      -0.4533427076     0.7582297395    -0.8615221668
   18      H      -3.4794801983    -2.6393269052    -1.6346375367
   19      H      -1.2087495899    -3.7243287759     2.1480452121
   20      H      -1.4114991161     3.4406841816     2.4544094359
   21      H       0.0205234048     2.4647959827     2.1126435242
   22      H      -1.5793511041     4.0350249383     0.1847605173
   23      H      -0.2152205760     3.0017653086    -0.2461178360
   24      H      -4.8795092340    -2.0619882999    -0.6709935066
   25      H      -4.4743713843    -1.2956598773    -2.2384816251
   26      H      -0.9628766771    -4.0653090309     0.4062341709
   27      H      -2.5698718464    -3.5561155291     1.0160028769
   28      C      -3.0405380798     2.3965639793    -1.3603518977
   29      H      -3.5395222739     3.3394286227    -1.1273142314
   30      H      -2.4320288268     2.5349362866    -2.2572471358
   31      H      -3.8058656648     1.6478213300    -1.5717311288
   32      H      -2.1674700154     1.1485356880     2.8825023232
   33      C       2.9735680490     0.0261642899     0.6044782376
   34      C       2.7561781193     0.3985485461    -0.9035876773
   35      C       2.4879726679    -1.3432052914     1.0418171686
   36      C       1.9915632264    -0.5887941483    -1.7605600879
   37      O       3.0660660823    -2.3061727680     0.2896422541
   38      O       1.7494960150    -1.5701778852     1.9653527110
   39      O       0.8866487732    -1.0537965676    -1.1497317102
   40      O       2.3069510081    -0.8854684190    -2.8883372859
   41      C       0.0836874150    -1.9827857544    -1.8973249539
   42      C       2.6679163595    -3.6586506916     0.5754371412
   43      C       2.2551216623     1.1934693445     1.3225345882
   44      C       3.1476843410     2.4479395017     1.2534407902
   45      C       3.0013262514     2.8259021847    -0.2490366233
   46      C       1.9826816264     1.7635179796    -0.7497022604
   47      O       1.1885949219     1.5220570519     0.4227063560
   48      H       4.0465455845     0.0318901231     0.8165095422
   49      H       3.7044806426     0.5478281075    -1.4166974771
   50      H       0.6783431519    -2.8497285372    -2.1898128470
   51      H       2.9490737604    -3.9347304079     1.5928699017
   52      H       2.7463242342     3.2302825496     1.8992341256
   53      H       4.1783467551     2.2543943507     1.5574682138
   54      H       2.5784722462     3.8246233063    -0.3704147930
   55      H       3.9426027743     2.7913636766    -0.8012931463
   56      H      -0.7216858837    -2.2723899319    -1.2261688169
   57      H      -0.3165480340    -1.5060615093    -2.7936569354
   58      H       3.1949466731    -4.2757106629    -0.1489411394
   59      H       1.5879515039    -3.7665171611     0.4608275666
   60      C       1.1172852705     2.1861623473    -1.9155272080
   61      H       0.6183010764     3.1290269907    -1.6824895417
   62      H       1.7257945234     2.3245346546    -2.8124224461
   63      H       0.3519576855     1.4374196980    -2.1269064391
   64      H       1.9903533349     0.9381340560     2.3273270128
 ----------------------------------------------------------------

   15   -1610.3599126668      5.26E-09 Convergence criterion met
 Total energy in the final basis set = -1610.35991267

                    Orbital Energies (a.u.)
 --------------------------------------------------------------

 Alpha MOs
 -- Occupied --
-19.180 -19.170 -19.168 -19.164 -19.147 -19.126 -19.116 -19.114
-19.114 -19.105 -10.316 -10.305 -10.300 -10.294 -10.258 -10.243
-10.235 -10.232 -10.229 -10.227 -10.214 -10.212 -10.211 -10.199
-10.191 -10.190 -10.184 -10.180 -10.180 -10.163 -10.160 -10.159
 -1.124  -1.117  -1.111  -1.104  -1.084  -1.048  -1.037  -1.031
 -1.024  -1.018  -0.843  -0.817  -0.810  -0.794  -0.782  -0.769
 -0.748  -0.739  -0.727  -0.721  -0.707  -0.686  -0.663  -0.643
 -0.616  -0.604  -0.595  -0.579  -0.572  -0.567  -0.564  -0.553
 -0.542  -0.529  -0.526  -0.516  -0.514  -0.504  -0.499  -0.495
 -0.494  -0.485  -0.482  -0.480  -0.476  -0.472  -0.467  -0.466
 -0.463  -0.455  -0.446  -0.444  -0.432  -0.430  -0.427  -0.420
 -0.415  -0.412  -0.407  -0.403  -0.399  -0.395  -0.391  -0.381
 -0.380  -0.377  -0.374  -0.370  -0.368  -0.365  -0.363  -0.360
 -0.349  -0.347  -0.342  -0.341  -0.338  -0.331  -0.324  -0.320
 -0.318  -0.312  -0.304  -0.297  -0.295  -0.291  -0.280  -0.279
 -0.271  -0.257

          Ground-State Mulliken Net Atomic Charges

     Atom                 Charge (a.u.)
  ----------------------------------------
      1 C                     0.339346
      2 C                     0.370959
      3 C                    -0.537688
      4 C                    -0.289387
      5 O                    -0.004408
      6 O                    -0.145674
      7 O                     0.152355
      8 O                    -0.003560
      9 C                    -0.156018
     10 C                    -0.300251
     11 C                    -0.605095
     12 C                    -0.279770
     13 C                     0.071548
     14 C                    -0.845460
     15 O                     0.051906
     16 H                     0.298898
     17 H                    -0.377527
     18 H                     0.193712
     19 H                     0.211269
     20 H                     0.197524
     21 H                     0.127717
     22 H                     0.193664
     23 H                     0.023537
     24 H                     0.183769
     25 H                     0.173640
     26 H                     0.118944
     27 H                     0.199645
     28 C                    -0.302589
     29 H                     0.197379
     30 H                     0.151984
     31 H                     0.191107
     32 H                     0.274960
     33 C                    -0.061399
     34 C                     0.215087
     35 C                    -0.719840
     36 C                    -0.667226
     37 O                     0.089641
     38 O                    -0.085236
     39 O                     0.024615
     40 O                    -0.072914
     41 C                    -0.344484
     42 C                    -0.160727
     43 C                    -0.123005
     44 C                    -0.587558
     45 C                    -0.287885
     46 C                    -0.232455
     47 O                     0.219296
     48 H                     0.253157
     49 H                     0.290552
     50 H                     0.208184
     51 H                     0.168077
     52 H                     0.179460
     53 H                     0.146577
     54 H                     0.174790
     55 H                     0.150708
     56 H                     0.095754
     57 H                     0.262205
     58 H                     0.172693
     59 H                     0.182872
     60 C                    -0.417452
     61 H                     0.244078
     62 H                     0.203985
     63 H                     0.308302
     64 H                     0.293719
  ----------------------------------------
  Sum of atomic charges =     0.000000

                    Cartesian Multipole Moments
 -----------------------------------------------------------------
    Charge (ESU x 10^10)
                 0.0000
    Dipole Moment (Debye)
         X       3.4515      Y       0.0884      Z      -0.1837
       Tot       3.4575
    Quadrupole Moments (Debye-Ang)
        XX    -186.5391     XY      10.8996     YY    -167.7992
        XZ      19.0489     YZ      -1.2538     ZZ    -210.9262

 Total job time:  8304.33s(wall), 8285.03s(cpu)
        *  Thank you very much for using Q-Chem.  Have a nice day.  *
