 Q-Chem 5.0, Q-Chem, Inc., Pleasanton, CA (2017)
 Q-Chem 5.0.1 for Intel X86 EM64T Linux

User input:
--------------------------------------------------------------
$molecule
0  1
--
0  1
C        +0.22270000        +1.04488000        +0.58595000
C        +0.62626000        -0.41353000        +0.99871000
C        -1.18200000        +1.23223000        +0.04377000
C        -0.37457000        -1.51643000        +0.72333000
O        -2.09172000        +0.78832000        +0.93966000
O        -1.47336000        +1.75939000        -0.99882000
O        -0.91364000        -1.42792000        -0.50620000
O        -0.62208000        -2.40877000        +1.49911000
C        -1.86134000        -2.44741000        -0.86560000
C        -3.47068000        +0.87492000        +0.53920000
C        +1.33008000        +1.39974000        -0.43491000
C        +2.63070000        +1.71700000        +0.32855000
C        +3.04336000        +0.29351000        +0.80300000
C        +1.94423000        -0.59299000        +0.15262000
O        +1.62840000        +0.13663000        -1.04376000
H        +0.27811000        +1.68786000        +1.46900000
H        +0.83923000        -0.48042000        +2.06408000
H        -2.68749000        -2.46677000        -0.15296000
H        -3.76076000        +1.91522000        +0.38406000
H        +3.37234000        +2.13782000        -0.35195000
H        +2.48236000        +2.42488000        +1.14651000
H        +4.02182000        +0.00994000        +0.41161000
H        +3.07359000        +0.18738000        +1.88928000
H        -2.21148000        -2.17765000        -1.85937000
H        -1.38062000        -3.42697000        -0.88096000
H        -4.03855000        +0.43623000        +1.35671000
H        -3.63120000        +0.31700000        -0.38495000
C        +0.90028000        +2.39077000        -1.49430000
C        +2.35450000        -2.01267000        -0.16812000
H        +3.26311000        -2.00678000        -0.77366000
H        +2.54990000        -2.57059000        +0.75079000
H        +1.57335000        -2.52896000        -0.72872000
H        +1.71845000        +2.58186000        -2.15686000
H        +0.59919000        +3.30478000        -1.02650000
H        +0.07925000        +1.98653000        -2.04874000
--
0  1
C        +0.24461000        +2.28594000        +4.59834000
C        +0.64817000        +0.82753000        +5.01110000
C        -1.16009000        +2.47329000        +4.05616000
C        -0.35266000        -0.27537000        +4.73572000
O        -2.06981000        +2.02938000        +4.95205000
O        -1.45145000        +3.00045000        +3.01357000
O        -0.89173000        -0.18686000        +3.50619000
O        -0.60017000        -1.16771000        +5.51150000
C        -1.83943000        -1.20635000        +3.14679000
C        -3.44877000        +2.11598000        +4.55159000
C        +1.35199000        +2.64080000        +3.57748000
C        +2.65261000        +2.95806000        +4.34094000
C        +3.06527000        +1.53457000        +4.81539000
C        +1.96614000        +0.64807000        +4.16501000
O        +1.65031000        +1.37769000        +2.96863000
H        +0.30002000        +2.92892000        +5.48139000
H        +0.86114000        +0.76064000        +6.07647000
H        -2.66558000        -1.22571000        +3.85943000
H        -3.73885000        +3.15628000        +4.39645000
H        +3.39425000        +3.37888000        +3.66044000
H        +2.50427000        +3.66594000        +5.15890000
H        +4.04373000        +1.25100000        +4.42400000
H        +3.09550000        +1.42844000        +5.90167000
H        -2.18957000        -0.93659000        +2.15302000
H        -1.35871000        -2.18591000        +3.13143000
H        -4.01664000        +1.67729000        +5.36910000
H        -3.60929000        +1.55806000        +3.62744000
C        +0.92219000        +3.63183000        +2.51809000
C        +2.37641000        -0.77161000        +3.84427000
H        +3.28502000        -0.76572000        +3.23873000
H        +2.57181000        -1.32953000        +4.76318000
H        +1.59526000        -1.28790000        +3.28367000
H        +1.74036000        +3.82292000        +1.85553000
H        +0.62110000        +4.54584000        +2.98589000
H        +0.10116000        +3.22759000        +1.96365000
$end

$rem
JOBTYPE                   SP
METHOD                    B3LYP
DFT_D                     d3_op
BASIS                     6-311++G(d,p)
SYMMETRY                  False
THRESH                    12
SCF_CONVERGENCE           8
MAX_SUB_FILE_NUM          128
MEM_STATIC                400
MEM_TOTAL                 4000
$end
--------------------------------------------------------------

             Standard Nuclear Orientation (Angstroms)
    I     Atom           X                Y                Z
 ----------------------------------------------------------------
    1      C      -1.2023528940     0.2709652002     0.8854913841
    2      C      -1.3624693680     0.4250428055    -0.6671882434
    3      C      -1.6658292856    -1.0421172130     1.4881898788
    4      C      -2.0575501625    -0.6973350093    -1.4094913978
    5      O      -1.0256493152    -2.0776550407     0.9007407564
    6      O      -2.4381276382    -1.1667932672     2.4035004050
    7      O      -3.1744596793    -1.1136969433    -0.7855279556
    8      O      -1.6827457346    -1.1342505181    -2.4715615288
    9      C      -3.9145273553    -2.1646976675    -1.4292366030
   10      C      -1.3954686469    -3.3916408640     1.3546938057
   11      C      -1.9872799913     1.4990475913     1.4051781322
   12      C      -1.1306225944     2.7635214094     1.1993103804
   13      C      -1.2202321631     2.9264447560    -0.3457271488
   14      C      -2.1828134276     1.7694776071    -0.7353776036
   15      O      -3.0214505872     1.6625718233     0.4259483220
   16      H      -0.1407104544     0.3443313651     1.1380851041
   17      H      -0.3968654489     0.5366247882    -1.1570885009
   18      H      -3.2814688709    -3.0415714540    -1.5744389432
   19      H      -1.1524026888    -3.5153443104     2.4111289970
   20      H      -1.5840925611     3.6120391001     1.7136860505
   21      H      -0.1093996042     2.6507149694     1.5688177862
   22      H      -1.6670015679     3.8832212680    -0.6213316726
   23      H      -0.2543489479     2.8504450814    -0.8491904863
   24      H      -4.7403361986    -2.3883770608    -0.7577050896
   25      H      -4.2880000274    -1.8300624785    -2.3984645922
   26      H      -0.8179312964    -4.0827911394     0.7447677785
   27      H      -2.4654199203    -3.5530139974     1.2123645971
   28      C      -2.6029328915     1.3058783027     2.7736929496
   29      C      -3.0069575655     1.9968890751    -1.9826776425
   30      H      -3.5440814065     2.9442138750    -1.9029329330
   31      H      -2.3629753825     2.0328313422    -2.8646337502
   32      H      -3.7390963782     1.1991728394    -2.1192229203
   33      H      -3.1248934995     2.1953724150     3.0587554663
   34      H      -1.8313669242     1.1012425971     3.4862352251
   35      H      -3.2879259582     0.4844155357     2.7439041395
   36      C       2.9807547806     0.1362924444     0.5341270211
   37      C       2.8206383066     0.2903700497    -1.0185526064
   38      C       2.5172783889    -1.1767899688     1.1368255157
   39      C       2.1255575120    -0.8320077652    -1.7608557609
   40      O       3.1574583594    -2.2123277965     0.5493763933
   41      O       1.7449800363    -1.3014660231     2.0521360419
   42      O       1.0086479953    -1.2483696991    -1.1368923187
   43      O       2.5003619400    -1.2689232739    -2.8229258919
   44      C       0.2685803193    -2.2993704233    -1.7806009661
   45      C       2.7876390277    -3.5263136199     1.0033294427
   46      C       2.1958276832     1.3643748355     1.0538137692
   47      C       3.0524850801     2.6288486536     0.8479460174
   48      C       2.9628755114     2.7917720002    -0.6970915118
   49      C       2.0002942470     1.6348048512    -1.0867419666
   50      O       1.1616570874     1.5278990674     0.0745839590
   51      H       4.0423972201     0.2096586092     0.7867207411
   52      H       3.7862422257     0.4019520324    -1.5084528640
   53      H       0.9016388036    -3.1762442099    -1.9258033063
   54      H       3.0307049857    -3.6500170662     2.0597646340
   55      H       2.5990151134     3.4773663443     1.3623216874
   56      H       4.0737080704     2.5160422136     1.2174534231
   57      H       2.5161061066     3.7485485122    -0.9726960356
   58      H       3.9287587266     2.7157723256    -1.2005548494
   59      H      -0.5572285240    -2.5230498166    -1.1090694526
   60      H      -0.1048923528    -1.9647352343    -2.7498289553
   61      H       3.3651763782    -4.2174638952     0.3934034154
   62      H       1.7176877542    -3.6876867532     0.8610002340
   63      C       1.5801747831     1.1712055469     2.4223285866
   64      C       1.1761501091     1.8622163192    -2.3340420056
   65      H       0.6390262680     2.8095411192    -2.2542972961
   66      H       1.8201322920     1.8981585864    -3.2159981133
   67      H       0.4440112964     1.0645000836    -2.4705872833
   68      H       1.0582141750     2.0606996592     2.7073911032
   69      H       2.3517407503     0.9665698413     3.1348708621
   70      H       0.8951817164     0.3497427799     2.3925397765
 ----------------------------------------------------------------

   15   -1688.9930068360      5.42E-09 Convergence criterion met
 Total energy in the final basis set = -1688.99300684

                    Orbital Energies (a.u.)
 --------------------------------------------------------------

 Alpha MOs
 -- Occupied --
-19.181 -19.171 -19.168 -19.167 -19.140 -19.124 -19.113 -19.113
-19.109 -19.105 -10.318 -10.304 -10.300 -10.298 -10.255 -10.246
-10.236 -10.230 -10.229 -10.228 -10.215 -10.213 -10.210 -10.200
-10.188 -10.187 -10.183 -10.179 -10.177 -10.160 -10.156 -10.153
-10.152 -10.124  -1.125  -1.117  -1.111  -1.108  -1.081  -1.046
 -1.041  -1.031  -1.024  -1.023  -0.843  -0.819  -0.816  -0.794
 -0.790  -0.769  -0.750  -0.742  -0.738  -0.725  -0.722  -0.710
 -0.683  -0.664  -0.654  -0.631  -0.611  -0.594  -0.593  -0.573
 -0.572  -0.567  -0.562  -0.552  -0.534  -0.526  -0.521  -0.511
 -0.507  -0.503  -0.503  -0.495  -0.488  -0.486  -0.483  -0.480
 -0.476  -0.469  -0.468  -0.466  -0.463  -0.452  -0.450  -0.445
 -0.442  -0.432  -0.429  -0.427  -0.416  -0.415  -0.415  -0.408
 -0.405  -0.400  -0.398  -0.390  -0.388  -0.383  -0.377  -0.375
 -0.371  -0.368  -0.367  -0.364  -0.363  -0.360  -0.355  -0.350
 -0.348  -0.341  -0.335  -0.333  -0.330  -0.325  -0.325  -0.320
 -0.316  -0.312  -0.306  -0.295  -0.289  -0.285  -0.279  -0.276
 -0.258  -0.254

          Ground-State Mulliken Net Atomic Charges

     Atom                 Charge (a.u.)
  ----------------------------------------
      1 C                     0.716744
      2 C                     0.352982
      3 C                    -0.214399
      4 C                    -0.157133
      5 O                     0.035172
      6 O                    -0.081618
      7 O                     0.140705
      8 O                     0.016041
      9 C                    -0.159817
     10 C                    -0.251870
     11 C                    -1.304082
     12 C                     0.054192
     13 C                     0.320316
     14 C                    -1.521650
     15 O                     0.206333
     16 H                    -0.115265
     17 H                    -0.161233
     18 H                     0.193043
     19 H                     0.208258
     20 H                     0.197445
     21 H                     0.094448
     22 H                     0.193978
     23 H                     0.031679
     24 H                     0.177677
     25 H                     0.178409
     26 H                     0.130550
     27 H                     0.204125
     28 C                    -0.364221
     29 C                    -0.183699
     30 H                     0.197290
     31 H                     0.150198
     32 H                     0.186410
     33 H                     0.142578
     34 H                     0.136968
     35 H                     0.208913
     36 C                    -0.179516
     37 C                     0.164301
     38 C                    -0.727954
     39 C                    -0.680423
     40 O                     0.114013
     41 O                    -0.072568
     42 O                    -0.003633
     43 O                    -0.067491
     44 C                    -0.333664
     45 C                    -0.145987
     46 C                     0.136670
     47 C                    -0.224624
     48 C                    -0.178994
     49 C                    -0.169519
     50 O                     0.198169
     51 H                     0.253070
     52 H                     0.284269
     53 H                     0.211260
     54 H                     0.167392
     55 H                     0.184967
     56 H                     0.158913
     57 H                     0.179312
     58 H                     0.156563
     59 H                     0.094818
     60 H                     0.257827
     61 H                     0.175819
     62 H                     0.167267
     63 C                    -0.878294
     64 C                    -0.528666
     65 H                     0.255257
     66 H                     0.200859
     67 H                     0.284620
     68 H                     0.169634
     69 H                     0.167495
     70 H                     0.249371
  ----------------------------------------
  Sum of atomic charges =    -0.000000

                    Cartesian Multipole Moments
 -----------------------------------------------------------------
    Charge (ESU x 10^10)
                -0.0000
    Dipole Moment (Debye)
         X       3.2325      Y      -0.4498      Z       0.3032
       Tot       3.2777
    Quadrupole Moments (Debye-Ang)
        XX    -201.4774     XY      13.1482     YY    -182.8538
        XZ      17.4461     YZ      -7.3111     ZZ    -221.6441

 Total job time:  4287.15s(wall), 8538.66s(cpu)
        *  Thank you very much for using Q-Chem.  Have a nice day.  *
