 Q-Chem 5.0, Q-Chem, Inc., Pleasanton, CA (2017)
 Q-Chem 5.0.1 for Intel X86 EM64T Linux

User input:
--------------------------------------------------------------
$molecule
0  1
--
0  1
C        -0.54444000        -0.68370000        -0.06689000
C        -0.55709000        +0.71878000        +0.05493000
C        +0.74969000        -1.43776000        -0.09374000
C        +0.72843000        +1.48436000        +0.06598000
O        +1.53645000        -1.09176000        +0.94813000
O        +1.04702000        -2.28405000        -0.90088000
O        +1.53784000        +1.08301000        -0.93877000
O        +1.01035000        +2.37097000        +0.83478000
C        +2.83449000        +1.70121000        -0.99358000
C        +2.82316000        -1.73208000        +1.00475000
C        -1.74320000        -1.41616000        -0.12552000
C        -2.93952000        -0.70056000        -0.05285000
C        -2.95313000        +0.68255000        +0.06934000
C        -1.77161000        +1.42404000        +0.12810000
H        +2.73835000        +2.77989000        -1.12464000
H        +2.70778000        -2.81319000        +1.09555000
H        -3.90354000        +1.20325000        +0.11710000
H        +3.38998000        +1.50093000        -0.07544000
H        +3.33184000        +1.25269000        -1.85067000
H        +3.31095000        -1.32281000        +1.88650000
H        +3.39889000        -1.50934000        +0.10459000
H        -3.87892000        -1.24211000        -0.08988000
C        -1.83960000        +2.92746000        +0.24839000
H        -1.24214000        +3.42352000        -0.52065000
H        -1.45503000        +3.26427000        +1.21284000
H        -2.87211000        +3.26623000        +0.14638000
H        -1.73878000        -2.44393000        -0.21875000
--
0  1
C        -0.51554000        -1.04990000        +4.11701000
C        -0.52819000        +0.35258000        +4.23883000
C        +0.77859000        -1.80396000        +4.09016000
C        +0.75733000        +1.11816000        +4.24988000
O        +1.56535000        -1.45796000        +5.13203000
O        +1.07592000        -2.65025000        +3.28302000
O        +1.56674000        +0.71681000        +3.24513000
O        +1.03925000        +2.00477000        +5.01868000
C        +2.86339000        +1.33501000        +3.19032000
C        +2.85206000        -2.09828000        +5.18865000
C        -1.71430000        -1.78236000        +4.05838000
C        -2.91062000        -1.06676000        +4.13105000
C        -2.92423000        +0.31635000        +4.25324000
C        -1.74271000        +1.05784000        +4.31200000
H        +2.76725000        +2.41369000        +3.05926000
H        +2.73668000        -3.17939000        +5.27945000
H        -3.87464000        +0.83705000        +4.30100000
H        +3.41888000        +1.13473000        +4.10846000
H        +3.36074000        +0.88649000        +2.33323000
H        +3.33985000        -1.68901000        +6.07040000
H        +3.42779000        -1.87554000        +4.28849000
H        -3.85002000        -1.60831000        +4.09402000
C        -1.81070000        +2.56126000        +4.43229000
H        -1.21324000        +3.05732000        +3.66325000
H        -1.42613000        +2.89807000        +5.39674000
H        -2.84321000        +2.90003000        +4.33028000
H        -1.70988000        -2.81013000        +3.96515000
$end

$rem
JOBTYPE                   SP
METHOD                    B3LYP
DFT_D                     d3_op
BASIS                     6-311++G(d,p)
SYMMETRY                  False
THRESH                    12
SCF_CONVERGENCE           8
MAX_SUB_FILE_NUM          128
MEM_STATIC                400
MEM_TOTAL                 4000
$end
--------------------------------------------------------------

             Standard Nuclear Orientation (Angstroms)
    I     Atom           X                Y                Z
 ----------------------------------------------------------------
    1      C      -2.0092237815     0.0796087210     1.2994228655
    2      C      -2.1969827540     0.5591283471    -0.0108281722
    3      C      -1.7678402757    -1.3767715279     1.5539625218
    4      C      -2.2501686832    -0.3964205073    -1.1609995303
    5      O      -0.7668154980    -1.8471017930     0.7787598188
    6      O      -2.3450408798    -2.0461196924     2.3754851142
    7      O      -3.0755285418    -1.4315440792    -0.8907233236
    8      O      -1.6727658613    -0.2617336862    -2.2122250341
    9      C      -3.1598136357    -2.4545338784    -1.8971350149
   10      C      -0.4695845561    -3.2476797070     0.9161404028
   11      C      -2.0025991711     0.9575422864     2.3976712141
   12      C      -2.1832268476     2.3168984270     2.1367682495
   13      C      -2.3664867194     2.7911617169     0.8446385921
   14      C      -2.3763274584     1.9322702866    -0.2560240897
   15      H      -3.5297568689    -2.0382742687    -2.8351329398
   16      H      -0.1551726409    -3.4728210022     1.9363426187
   17      H      -2.5092813327     3.8542889302     0.6832108917
   18      H      -2.1787248351    -2.9020096175    -2.0671129731
   19      H      -3.8561991520    -3.1909098751    -1.5022577109
   20      H       0.3380293220    -3.4418258775     0.2140071050
   21      H      -1.3477045868    -3.8485948016     0.6728865704
   22      H      -2.1764233819     3.0166076479     2.9659128101
   23      C      -2.5919651017     2.4956915079    -1.6400114288
   24      H      -3.4002899233     1.9815433576    -2.1660524530
   25      H      -1.6963794107     2.3871650509    -2.2545414458
   26      H      -2.8474103816     3.5550543450    -1.5788056982
   27      H      -1.8692421175     0.6100886506     3.3602273992
   28      C       2.1426866814     0.5567052198     0.8823194030
   29      C       1.9549277090     1.0362248460    -0.4279316347
   30      C       2.3840701873    -0.8996750291     1.1368590593
   31      C       1.9017417797     0.0806759915    -1.5781029928
   32      O       3.3850949650    -1.3700052942     0.3616563563
   33      O       1.8068695832    -1.5690231936     1.9583816517
   34      O       1.0763819212    -0.9544475804    -1.3078267861
   35      O       2.4791446017     0.2153628126    -2.6293284966
   36      C       0.9920968272    -1.9774373796    -2.3142384773
   37      C       3.6823259069    -2.7705832082     0.4990369403
   38      C       2.1493112919     1.4346387852     1.9805677517
   39      C       1.9686836153     2.7939949258     1.7196647870
   40      C       1.7854237435     3.2682582157     0.4275351296
   41      C       1.7755830045     2.4093667854    -0.6731275521
   42      H       0.6221535940    -1.5611777699    -3.2522364022
   43      H       3.9967378220    -2.9957245034     1.5192391562
   44      H       1.6426291302     4.3313854290     0.2661074292
   45      H       1.9731856279    -2.4249131187    -2.4842164355
   46      H       0.2957113109    -2.7138133763    -1.9193611734
   47      H       4.4899397850    -2.9647293786    -0.2030963575
   48      H       2.8042058762    -3.3714983028     0.2557831079
   49      H       1.9754870811     3.4937041467     2.5488093476
   50      C       1.5599453613     2.9727880067    -2.0571148913
   51      H       0.7516205397     2.4586398565    -2.5831559155
   52      H       2.4555310522     2.8642615497    -2.6716449083
   53      H       1.3045000813     4.0321508438    -1.9959091607
   54      H       2.2826683454     1.0871851494     2.9431239367
 ----------------------------------------------------------------

   15   -1455.0970288855      8.15E-09 Convergence criterion met
 Total energy in the final basis set = -1455.09702889

                    Orbital Energies (a.u.)
 --------------------------------------------------------------

 Alpha MOs
 -- Occupied --
-19.177 -19.176 -19.167 -19.164 -19.121 -19.118 -19.113 -19.110
-10.312 -10.311 -10.305 -10.302 -10.234 -10.234 -10.225 -10.222
-10.208 -10.206 -10.204 -10.204 -10.204 -10.203 -10.190 -10.190
-10.188 -10.187 -10.186 -10.186 -10.173 -10.170  -1.120  -1.119
 -1.109  -1.106  -1.032  -1.030  -1.024  -1.020  -0.883  -0.882
 -0.798  -0.797  -0.792  -0.790  -0.744  -0.743  -0.729  -0.724
 -0.702  -0.700  -0.652  -0.650  -0.624  -0.622  -0.580  -0.575
 -0.574  -0.567  -0.547  -0.544  -0.520  -0.516  -0.511  -0.508
 -0.491  -0.491  -0.485  -0.484  -0.482  -0.478  -0.475  -0.469
 -0.467  -0.465  -0.446  -0.442  -0.436  -0.431  -0.430  -0.429
 -0.424  -0.420  -0.411  -0.408  -0.404  -0.400  -0.392  -0.392
 -0.382  -0.380  -0.376  -0.373  -0.370  -0.363  -0.362  -0.361
 -0.361  -0.351  -0.321  -0.318  -0.308  -0.305  -0.295  -0.293
 -0.290  -0.285  -0.268  -0.264  -0.261  -0.256

          Ground-State Mulliken Net Atomic Charges

     Atom                 Charge (a.u.)
  ----------------------------------------
      1 C                     0.500963
      2 C                     0.067591
      3 C                    -0.461421
      4 C                    -0.749928
      5 O                     0.130302
      6 O                    -0.158351
      7 O                     0.145103
      8 O                    -0.097679
      9 C                    -0.127929
     10 C                    -0.369970
     11 C                    -0.262070
     12 C                    -0.269222
     13 C                    -0.267019
     14 C                     0.285570
     15 H                     0.164546
     16 H                     0.237181
     17 H                     0.153427
     18 H                     0.188175
     19 H                     0.173234
     20 H                     0.067435
     21 H                     0.189225
     22 H                     0.181042
     23 C                    -0.440029
     24 H                     0.177036
     25 H                     0.187511
     26 H                     0.146055
     27 H                     0.202795
     28 C                     0.369271
     29 C                     0.695388
     30 C                    -0.782739
     31 C                    -0.894701
     32 O                     0.134606
     33 O                    -0.099671
     34 O                     0.140493
     35 O                    -0.119446
     36 C                    -0.331404
     37 C                    -0.126705
     38 C                    -0.456365
     39 C                    -0.310528
     40 C                    -0.386356
     41 C                     0.451875
     42 H                     0.227795
     43 H                     0.169999
     44 H                     0.158451
     45 H                     0.195629
     46 H                     0.069254
     47 H                     0.174271
     48 H                     0.179875
     49 H                     0.184695
     50 C                    -0.386323
     51 H                     0.216782
     52 H                     0.214258
     53 H                     0.129362
     54 H                     0.188660
  ----------------------------------------
  Sum of atomic charges =     0.000000

                    Cartesian Multipole Moments
 -----------------------------------------------------------------
    Charge (ESU x 10^10)
                 0.0000
    Dipole Moment (Debye)
         X       0.1822      Y       0.4390      Z      -0.7355
       Tot       0.8757
    Quadrupole Moments (Debye-Ang)
        XX    -179.6790     XY      -9.3638     YY    -147.2148
        XZ      15.7727     YZ      15.4442     ZZ    -182.4978

 Total job time:  1877.74s(wall), 3739.53s(cpu)
        *  Thank you very much for using Q-Chem.  Have a nice day.  *
