 Q-Chem 5.0, Q-Chem, Inc., Pleasanton, CA (2017)
 Q-Chem 5.0.1 for Intel X86 EM64T Linux

User input:
--------------------------------------------------------------
$molecule
0  1
C        -0.54444000        -0.68370000        -0.06689000
C        -0.55709000        +0.71878000        +0.05493000
C        +0.74969000        -1.43776000        -0.09374000
C        +0.72843000        +1.48436000        +0.06598000
O        +1.53645000        -1.09176000        +0.94813000
O        +1.04702000        -2.28405000        -0.90088000
O        +1.53784000        +1.08301000        -0.93877000
O        +1.01035000        +2.37097000        +0.83478000
C        +2.83449000        +1.70121000        -0.99358000
C        +2.82316000        -1.73208000        +1.00475000
C        -1.74320000        -1.41616000        -0.12552000
C        -2.93952000        -0.70056000        -0.05285000
C        -2.95313000        +0.68255000        +0.06934000
C        -1.77161000        +1.42404000        +0.12810000
H        +2.73835000        +2.77989000        -1.12464000
H        +2.70778000        -2.81319000        +1.09555000
H        -3.90354000        +1.20325000        +0.11710000
H        +3.38998000        +1.50093000        -0.07544000
H        +3.33184000        +1.25269000        -1.85067000
H        +3.31095000        -1.32281000        +1.88650000
H        +3.39889000        -1.50934000        +0.10459000
H        -3.87892000        -1.24211000        -0.08988000
C        -1.83960000        +2.92746000        +0.24839000
C        -1.78103000        -2.92226000        -0.24590000
H        -1.39752000        -3.25223000        -1.21323000
H        -2.80572000        -3.28175000        -0.13627000
H        -1.16958000        -3.40777000        +0.51926000
H        -1.24214000        +3.42352000        -0.52065000
H        -1.45503000        +3.26427000        +1.21284000
H        -2.87211000        +3.26623000        +0.14638000
@C        -0.51554000        -1.04990000        +4.11701000
@C        -0.52819000        +0.35258000        +4.23883000
@C        +0.77859000        -1.80396000        +4.09016000
@C        +0.75733000        +1.11816000        +4.24988000
@O        +1.56535000        -1.45796000        +5.13203000
@O        +1.07592000        -2.65025000        +3.28302000
@O        +1.56674000        +0.71681000        +3.24513000
@O        +1.03925000        +2.00477000        +5.01868000
@C        +2.86339000        +1.33501000        +3.19032000
@C        +2.85206000        -2.09828000        +5.18865000
@C        -1.71430000        -1.78236000        +4.05838000
@C        -2.91062000        -1.06676000        +4.13105000
@C        -2.92423000        +0.31635000        +4.25324000
@C        -1.74271000        +1.05784000        +4.31200000
@H        +2.76725000        +2.41369000        +3.05926000
@H        +2.73668000        -3.17939000        +5.27945000
@H        -3.87464000        +0.83705000        +4.30100000
@H        +3.41888000        +1.13473000        +4.10846000
@H        +3.36074000        +0.88649000        +2.33323000
@H        +3.33985000        -1.68901000        +6.07040000
@H        +3.42779000        -1.87554000        +4.28849000
@H        -3.85002000        -1.60831000        +4.09402000
@C        -1.81070000        +2.56126000        +4.43229000
@C        -1.75213000        -3.28846000        +3.93800000
@H        -1.36862000        -3.61843000        +2.97067000
@H        -2.77682000        -3.64795000        +4.04763000
@H        -1.14068000        -3.77397000        +4.70316000
@H        -1.21324000        +3.05732000        +3.66325000
@H        -1.42613000        +2.89807000        +5.39674000
@H        -2.84321000        +2.90003000        +4.33028000
$end

$rem
JOBTYPE                   SP
METHOD                    B3LYP
DFT_D                     d3_op
BASIS                     6-311++G(d,p)
SYMMETRY                  False
THRESH                    12
SCF_CONVERGENCE           8
MAX_SUB_FILE_NUM          128
MEM_STATIC                400
MEM_TOTAL                 4000
$end
--------------------------------------------------------------

             Standard Nuclear Orientation (Angstroms)
    I     Atom           X                Y                Z
 ----------------------------------------------------------------
    1      C      -0.5444400000    -0.6837000000    -0.0668900000
    2      C      -0.5570900000     0.7187800000     0.0549300000
    3      C       0.7496900000    -1.4377600000    -0.0937400000
    4      C       0.7284300000     1.4843600000     0.0659800000
    5      O       1.5364500000    -1.0917600000     0.9481300000
    6      O       1.0470200000    -2.2840500000    -0.9008800000
    7      O       1.5378400000     1.0830100000    -0.9387700000
    8      O       1.0103500000     2.3709700000     0.8347800000
    9      C       2.8344900000     1.7012100000    -0.9935800000
   10      C       2.8231600000    -1.7320800000     1.0047500000
   11      C      -1.7432000000    -1.4161600000    -0.1255200000
   12      C      -2.9395200000    -0.7005600000    -0.0528500000
   13      C      -2.9531300000     0.6825500000     0.0693400000
   14      C      -1.7716100000     1.4240400000     0.1281000000
   15      H       2.7383500000     2.7798900000    -1.1246400000
   16      H       2.7077800000    -2.8131900000     1.0955500000
   17      H      -3.9035400000     1.2032500000     0.1171000000
   18      H       3.3899800000     1.5009300000    -0.0754400000
   19      H       3.3318400000     1.2526900000    -1.8506700000
   20      H       3.3109500000    -1.3228100000     1.8865000000
   21      H       3.3988900000    -1.5093400000     0.1045900000
   22      H      -3.8789200000    -1.2421100000    -0.0898800000
   23      C      -1.8396000000     2.9274600000     0.2483900000
   24      C      -1.7810300000    -2.9222600000    -0.2459000000
   25      H      -1.3975200000    -3.2522300000    -1.2132300000
   26      H      -2.8057200000    -3.2817500000    -0.1362700000
   27      H      -1.1695800000    -3.4077700000     0.5192600000
   28      H      -1.2421400000     3.4235200000    -0.5206500000
   29      H      -1.4550300000     3.2642700000     1.2128400000
   30      H      -2.8721100000     3.2662300000     0.1463800000
   31      GH     -0.5155400000    -1.0499000000     4.1170100000
   32      GH     -0.5281900000     0.3525800000     4.2388300000
   33      GH      0.7785900000    -1.8039600000     4.0901600000
   34      GH      0.7573300000     1.1181600000     4.2498800000
   35      GH      1.5653500000    -1.4579600000     5.1320300000
   36      GH      1.0759200000    -2.6502500000     3.2830200000
   37      GH      1.5667400000     0.7168100000     3.2451300000
   38      GH      1.0392500000     2.0047700000     5.0186800000
   39      GH      2.8633900000     1.3350100000     3.1903200000
   40      GH      2.8520600000    -2.0982800000     5.1886500000
   41      GH     -1.7143000000    -1.7823600000     4.0583800000
   42      GH     -2.9106200000    -1.0667600000     4.1310500000
   43      GH     -2.9242300000     0.3163500000     4.2532400000
   44      GH     -1.7427100000     1.0578400000     4.3120000000
   45      GH      2.7672500000     2.4136900000     3.0592600000
   46      GH      2.7366800000    -3.1793900000     5.2794500000
   47      GH     -3.8746400000     0.8370500000     4.3010000000
   48      GH      3.4188800000     1.1347300000     4.1084600000
   49      GH      3.3607400000     0.8864900000     2.3332300000
   50      GH      3.3398500000    -1.6890100000     6.0704000000
   51      GH      3.4277900000    -1.8755400000     4.2884900000
   52      GH     -3.8500200000    -1.6083100000     4.0940200000
   53      GH     -1.8107000000     2.5612600000     4.4322900000
   54      GH     -1.7521300000    -3.2884600000     3.9380000000
   55      GH     -1.3686200000    -3.6184300000     2.9706700000
   56      GH     -2.7768200000    -3.6479500000     4.0476300000
   57      GH     -1.1406800000    -3.7739700000     4.7031600000
   58      GH     -1.2132400000     3.0573200000     3.6632500000
   59      GH     -1.4261300000     2.8980700000     5.3967400000
   60      GH     -2.8432100000     2.9000300000     4.3302800000
 ----------------------------------------------------------------

   14    -766.8779042131      6.22E-09 Convergence criterion met
 Total energy in the final basis set = -766.87790421

                    Orbital Energies (a.u.)
 --------------------------------------------------------------

 Alpha MOs
 -- Occupied --
-19.176 -19.176 -19.119 -19.119 -10.311 -10.311 -10.232 -10.232
-10.205 -10.205 -10.201 -10.201 -10.187 -10.186 -10.171 -10.170
 -1.121  -1.114  -1.031  -1.030  -0.885  -0.807  -0.795  -0.746
 -0.734  -0.724  -0.675  -0.649  -0.620  -0.577  -0.565  -0.537
 -0.517  -0.515  -0.491  -0.489  -0.480  -0.477  -0.469  -0.442
 -0.434  -0.429  -0.420  -0.416  -0.411  -0.405  -0.396  -0.387
 -0.380  -0.373  -0.362  -0.359  -0.357  -0.321  -0.313  -0.293
 -0.292  -0.266  -0.253

          Ground-State Mulliken Net Atomic Charges

     Atom                 Charge (a.u.)
  ----------------------------------------
      1 C                     0.022219
      2 C                     0.448828
      3 C                    -0.458661
      4 C                    -0.923283
      5 O                     0.146251
      6 O                    -0.113248
      7 O                     0.130610
      8 O                    -0.072551
      9 C                    -0.140325
     10 C                    -0.358361
     11 C                     0.404107
     12 C                    -0.201189
     13 C                    -0.306794
     14 C                     0.218927
     15 H                     0.164426
     16 H                     0.203956
     17 H                     0.167267
     18 H                     0.189225
     19 H                     0.172414
     20 H                     0.102260
     21 H                     0.199613
     22 H                     0.170401
     23 C                    -0.609325
     24 C                    -0.594185
     25 H                     0.216065
     26 H                     0.125675
     27 H                     0.221731
     28 H                     0.175919
     29 H                     0.212723
     30 H                     0.139996
     31 GH                   -0.198753
     32 GH                    0.086816
     33 GH                    0.073223
     34 GH                   -0.139429
     35 GH                   -0.000928
     36 GH                    0.008636
     37 GH                    0.005963
     38 GH                    0.002460
     39 GH                    0.012570
     40 GH                   -0.014835
     41 GH                   -0.005780
     42 GH                    0.080677
     43 GH                   -0.033504
     44 GH                    0.003698
     45 GH                    0.004203
     46 GH                    0.001284
     47 GH                   -0.000092
     48 GH                    0.003029
     49 GH                   -0.005693
     50 GH                   -0.001390
     51 GH                    0.007265
     52 GH                    0.001481
     53 GH                    0.023933
     54 GH                    0.045361
     55 GH                   -0.012781
     56 GH                    0.000751
     57 GH                   -0.000546
     58 GH                   -0.003332
     59 GH                   -0.002019
     60 GH                    0.003041
  ----------------------------------------
  Sum of atomic charges =    -0.000000

                    Cartesian Multipole Moments
 -----------------------------------------------------------------
    Charge (ESU x 10^10)
                -0.0000
    Dipole Moment (Debye)
         X       0.0654      Y      -0.1081      Z       0.0903
       Tot       0.1553
    Quadrupole Moments (Debye-Ang)
        XX     -76.2605     XY      -0.0522     YY     -95.4853
        XZ       0.0746     YZ      -8.9295     ZZ     -99.4351

 Total job time:  2601.01s(wall), 5176.87s(cpu)
        *  Thank you very much for using Q-Chem.  Have a nice day.  *
