 Q-Chem 5.0, Q-Chem, Inc., Pleasanton, CA (2017)
 Q-Chem 5.0.1 for Intel X86 EM64T Linux

User input:
--------------------------------------------------------------
$molecule
0  1
--
0  1
C        -0.54444000        -0.68370000        -0.06689000
C        -0.55709000        +0.71878000        +0.05493000
C        +0.74969000        -1.43776000        -0.09374000
C        +0.72843000        +1.48436000        +0.06598000
O        +1.53645000        -1.09176000        +0.94813000
O        +1.04702000        -2.28405000        -0.90088000
O        +1.53784000        +1.08301000        -0.93877000
O        +1.01035000        +2.37097000        +0.83478000
C        +2.83449000        +1.70121000        -0.99358000
C        +2.82316000        -1.73208000        +1.00475000
C        -1.74320000        -1.41616000        -0.12552000
C        -2.93952000        -0.70056000        -0.05285000
C        -2.95313000        +0.68255000        +0.06934000
C        -1.77161000        +1.42404000        +0.12810000
H        +2.73835000        +2.77989000        -1.12464000
H        +2.70778000        -2.81319000        +1.09555000
H        -3.90354000        +1.20325000        +0.11710000
H        +3.38998000        +1.50093000        -0.07544000
H        +3.33184000        +1.25269000        -1.85067000
H        +3.31095000        -1.32281000        +1.88650000
H        +3.39889000        -1.50934000        +0.10459000
H        -3.87892000        -1.24211000        -0.08988000
C        -1.83960000        +2.92746000        +0.24839000
C        -1.78103000        -2.92226000        -0.24590000
H        -1.39752000        -3.25223000        -1.21323000
H        -2.80572000        -3.28175000        -0.13627000
H        -1.16958000        -3.40777000        +0.51926000
H        -1.24214000        +3.42352000        -0.52065000
H        -1.45503000        +3.26427000        +1.21284000
H        -2.87211000        +3.26623000        +0.14638000
--
0  1
C        -0.51554000        -1.04990000        +4.11701000
C        -0.52819000        +0.35258000        +4.23883000
C        +0.77859000        -1.80396000        +4.09016000
C        +0.75733000        +1.11816000        +4.24988000
O        +1.56535000        -1.45796000        +5.13203000
O        +1.07592000        -2.65025000        +3.28302000
O        +1.56674000        +0.71681000        +3.24513000
O        +1.03925000        +2.00477000        +5.01868000
C        +2.86339000        +1.33501000        +3.19032000
C        +2.85206000        -2.09828000        +5.18865000
C        -1.71430000        -1.78236000        +4.05838000
C        -2.91062000        -1.06676000        +4.13105000
C        -2.92423000        +0.31635000        +4.25324000
C        -1.74271000        +1.05784000        +4.31200000
H        +2.76725000        +2.41369000        +3.05926000
H        +2.73668000        -3.17939000        +5.27945000
H        -3.87464000        +0.83705000        +4.30100000
H        +3.41888000        +1.13473000        +4.10846000
H        +3.36074000        +0.88649000        +2.33323000
H        +3.33985000        -1.68901000        +6.07040000
H        +3.42779000        -1.87554000        +4.28849000
H        -3.85002000        -1.60831000        +4.09402000
C        -1.81070000        +2.56126000        +4.43229000
C        -1.75213000        -3.28846000        +3.93800000
H        -1.36862000        -3.61843000        +2.97067000
H        -2.77682000        -3.64795000        +4.04763000
H        -1.14068000        -3.77397000        +4.70316000
H        -1.21324000        +3.05732000        +3.66325000
H        -1.42613000        +2.89807000        +5.39674000
H        -2.84321000        +2.90003000        +4.33028000
$end

$rem
JOBTYPE                   SP
METHOD                    B3LYP
DFT_D                     d3_op
BASIS                     6-311++G(d,p)
SYMMETRY                  False
THRESH                    12
SCF_CONVERGENCE           8
MAX_SUB_FILE_NUM          128
MEM_STATIC                400
MEM_TOTAL                 4000
$end
--------------------------------------------------------------

             Standard Nuclear Orientation (Angstroms)
    I     Atom           X                Y                Z
 ----------------------------------------------------------------
    1      C      -1.9904266359     0.4704637504     1.0120674471
    2      C      -2.1987215781     0.5271269143    -0.3791021285
    3      C      -1.8105364033    -0.8449776130     1.7058638053
    4      C      -2.3358920856    -0.7349339156    -1.1710511313
    5      O      -0.8595805228    -1.5887314141     1.1002949891
    6      O      -2.3912950084    -1.1914037912     2.7052612329
    7      O      -3.2002778318    -1.5863564763    -0.5763530248
    8      O      -1.7881502779    -0.9672739682    -2.2211019065
    9      C      -3.3669148806    -2.8658124090    -1.2101520536
   10      C      -0.6251851123    -2.8909023203     1.6644296126
   11      C      -1.9051810716     1.6453139723     1.7798049126
   12      C      -2.0292671276     2.8633531935     1.1093357205
   13      C      -2.2327164550     2.9204312441    -0.2630561214
   14      C      -2.3203435000     1.7630687186    -1.0389962954
   15      H      -3.7476723322    -2.7428821902    -2.2249831183
   16      H      -0.2879871060    -2.8038225622     2.6983883336
   17      H      -2.3298646839     3.8864145061    -0.7469230812
   18      H      -2.4145526718    -3.3980214419    -1.2478620867
   19      H      -4.0841095513    -3.4022191925    -0.5928757395
   20      H       0.1483255123    -3.3391138938     1.0449848786
   21      H      -1.5386485475    -3.4876979633     1.6363996470
   22      H      -1.9613474051     3.7852241529     1.6773681394
   23      C      -2.5549239445     1.8778709272    -2.5259920884
   24      C      -1.6725568898     1.6361573873     3.2731440604
   25      H      -2.5272071196     1.2134645104     3.8047371064
   26      H      -1.5064316541     2.6530228821     3.6331834536
   27      H      -0.8012221732     1.0351011000     3.5462155518
   28      H      -3.4040111791     1.2712810646    -2.8508860763
   29      H      -1.6865740310     1.5332778319    -3.0905475683
   30      H      -2.7572744463     2.9160069645    -2.7953912264
   31      C       2.1632852391     0.5610930781     0.3969082441
   32      C       1.9549902969     0.6177562419    -0.9942613316
   33      C       2.3431754716    -0.7543482854     1.0907046023
   34      C       1.8178197894    -0.6443045879    -1.7862103343
   35      O       3.2941313522    -1.4981020864     0.4851357861
   36      O       1.7624168665    -1.1007744635     2.0901020299
   37      O       0.9534340432    -1.4957271487    -1.1915122278
   38      O       2.3655615970    -0.8766446406    -2.8362611096
   39      C       0.7867969943    -2.7751830813    -1.8253112566
   40      C       3.5285267627    -2.8002729926     1.0492704096
   41      C       2.2485308034     1.7359433000     1.1646457096
   42      C       2.1244447473     2.9539825211     0.4941765174
   43      C       1.9209954199     3.0110605717    -0.8782153244
   44      C       1.8333683749     1.8536980462    -1.6541554984
   45      H       0.4060395427    -2.6522528626    -2.8401423214
   46      H       3.8657247690    -2.7131932345     2.0832291306
   47      H       1.8238471911     3.9770438338    -1.3620822842
   48      H       1.7391592031    -3.3073921143    -1.8630212897
   49      H       0.0696023236    -3.3115898648    -1.2080349425
   50      H       4.3020373872    -3.2484845662     0.4298256755
   51      H       2.6150633274    -3.3970686357     1.0212404440
   52      H       2.1923644698     3.8758534805     1.0622089363
   53      C       1.5987879304     1.9685002548    -3.1411512914
   54      C       2.4811549851     1.7267867149     2.6579848574
   55      H       1.6265047554     1.3040938381     3.1895779034
   56      H       2.6472802208     2.7436522097     3.0180242506
   57      H       3.3524897017     1.1257304276     2.9310563488
   58      H       0.7497006958     1.3619103922    -3.4660452794
   59      H       2.4671378440     1.6239071596    -3.7057067713
   60      H       1.3964374286     3.0066362922    -3.4105504294
 ----------------------------------------------------------------

   15   -1533.7638735661      8.18E-09 Convergence criterion met
 Total energy in the final basis set = -1533.76387357

                    Orbital Energies (a.u.)
 --------------------------------------------------------------

 Alpha MOs
 -- Occupied --
-19.176 -19.175 -19.165 -19.164 -19.118 -19.118 -19.111 -19.110
-10.310 -10.310 -10.303 -10.302 -10.234 -10.233 -10.224 -10.222
-10.202 -10.201 -10.201 -10.200 -10.198 -10.198 -10.197 -10.196
-10.184 -10.183 -10.183 -10.183 -10.171 -10.170 -10.166 -10.166
 -1.119  -1.118  -1.107  -1.106  -1.031  -1.030  -1.022  -1.020
 -0.882  -0.881  -0.804  -0.803  -0.792  -0.791  -0.744  -0.742
 -0.731  -0.729  -0.722  -0.719  -0.672  -0.671  -0.646  -0.645
 -0.617  -0.616  -0.574  -0.573  -0.562  -0.558  -0.534  -0.533
 -0.516  -0.514  -0.510  -0.509  -0.490  -0.490  -0.485  -0.484
 -0.480  -0.475  -0.472  -0.467  -0.466  -0.463  -0.442  -0.437
 -0.436  -0.428  -0.428  -0.425  -0.421  -0.413  -0.413  -0.411
 -0.408  -0.408  -0.403  -0.401  -0.392  -0.391  -0.385  -0.383
 -0.378  -0.376  -0.370  -0.367  -0.359  -0.359  -0.357  -0.355
 -0.349  -0.349  -0.320  -0.317  -0.307  -0.304  -0.292  -0.291
 -0.287  -0.283  -0.265  -0.259  -0.253  -0.245

          Ground-State Mulliken Net Atomic Charges

     Atom                 Charge (a.u.)
  ----------------------------------------
      1 C                     0.113229
      2 C                     0.251862
      3 C                    -0.565436
      4 C                    -0.879478
      5 O                     0.177219
      6 O                    -0.121291
      7 O                     0.139627
      8 O                    -0.085068
      9 C                    -0.128945
     10 C                    -0.325916
     11 C                     0.388875
     12 C                    -0.223762
     13 C                    -0.227089
     14 C                     0.211923
     15 H                     0.165564
     16 H                     0.225311
     17 H                     0.163893
     18 H                     0.183308
     19 H                     0.173765
     20 H                     0.067634
     21 H                     0.193266
     22 H                     0.165227
     23 C                    -0.542805
     24 C                    -0.569900
     25 H                     0.212911
     26 H                     0.122846
     27 H                     0.214925
     28 H                     0.174738
     29 H                     0.187257
     30 H                     0.140947
     31 C                     0.235745
     32 C                     0.143320
     33 C                    -0.927510
     34 C                    -0.559492
     35 O                     0.153029
     36 O                    -0.077059
     37 O                     0.148778
     38 O                    -0.119203
     39 C                    -0.330155
     40 C                    -0.112747
     41 C                     0.203312
     42 C                    -0.224646
     43 C                    -0.224134
     44 C                     0.403261
     45 H                     0.228476
     46 H                     0.164112
     47 H                     0.165462
     48 H                     0.196545
     49 H                     0.066818
     50 H                     0.174472
     51 H                     0.181577
     52 H                     0.163765
     53 C                    -0.570383
     54 C                    -0.540520
     55 H                     0.188457
     56 H                     0.142286
     57 H                     0.174349
     58 H                     0.213853
     59 H                     0.212206
     60 H                     0.121389
  ----------------------------------------
  Sum of atomic charges =     0.000000

                    Cartesian Multipole Moments
 -----------------------------------------------------------------
    Charge (ESU x 10^10)
                 0.0000
    Dipole Moment (Debye)
         X       0.2108      Y      -0.0010      Z       0.1661
       Tot       0.2684
    Quadrupole Moments (Debye-Ang)
        XX    -192.1764     XY      -1.7497     YY    -156.0197
        XZ      17.4112     YZ       1.8802     ZZ    -199.8969

 Total job time:  2619.23s(wall), 5215.66s(cpu)
        *  Thank you very much for using Q-Chem.  Have a nice day.  *
