 Q-Chem 5.0, Q-Chem, Inc., Pleasanton, CA (2017)
 Q-Chem 5.0.1 for Intel X86 EM64T Linux

User input:
--------------------------------------------------------------
$molecule
0  1
C        +0.27487000        +3.99978000       +10.13927000
C        +0.67843000        +2.54137000       +10.55203000
C        -1.12983000        +4.18713000        +9.59709000
C        -0.32240000        +1.43847000       +10.27665000
O        -2.03955000        +3.74322000       +10.49298000
O        -1.42119000        +4.71429000        +8.55450000
O        -0.86147000        +1.52698000        +9.04712000
O        -0.56991000        +0.54613000       +11.05243000
C        -1.80917000        +0.50749000        +8.68772000
C        -3.41851000        +3.82982000       +10.09252000
C        +1.38225000        +4.35464000        +9.11841000
C        +2.68287000        +4.67190000        +9.88187000
C        +3.09553000        +3.24841000       +10.35632000
C        +1.99640000        +2.36191000        +9.70594000
O        +1.68057000        +3.09153000        +8.50956000
H        +0.33028000        +4.64276000       +11.02232000
H        +0.89140000        +2.47448000       +11.61740000
H        -2.63532000        +0.48813000        +9.40036000
H        -3.70859000        +4.87012000        +9.93738000
H        +3.42451000        +5.09272000        +9.20137000
H        +2.53453000        +5.37978000       +10.69983000
H        +4.07399000        +2.96484000        +9.96493000
H        +3.12576000        +3.14228000       +11.44260000
H        -2.15931000        +0.77725000        +7.69395000
H        -1.32845000        -0.47207000        +8.67236000
H        -3.98638000        +3.39113000       +10.91003000
H        -3.57903000        +3.27190000        +9.16837000
H        +1.08487000        +5.15433000        +8.47268000
H        +2.29556000        +1.33994000        +9.60118000
@C        +0.22270000        +1.04488000        +0.58595000
@C        +0.62626000        -0.41353000        +0.99871000
@C        -1.18200000        +1.23223000        +0.04377000
@C        -0.37457000        -1.51643000        +0.72333000
@O        -2.09172000        +0.78832000        +0.93966000
@O        -1.47336000        +1.75939000        -0.99882000
@O        -0.91364000        -1.42792000        -0.50620000
@O        -0.62208000        -2.40877000        +1.49911000
@C        -1.86134000        -2.44741000        -0.86560000
@C        -3.47068000        +0.87492000        +0.53920000
@C        +1.33008000        +1.39974000        -0.43491000
@C        +2.63070000        +1.71700000        +0.32855000
@C        +3.04336000        +0.29351000        +0.80300000
@C        +1.94423000        -0.59299000        +0.15262000
@O        +1.62840000        +0.13663000        -1.04376000
@H        +0.27811000        +1.68786000        +1.46900000
@H        +0.83923000        -0.48042000        +2.06408000
@H        -2.68749000        -2.46677000        -0.15296000
@H        -3.76076000        +1.91522000        +0.38406000
@H        +3.37234000        +2.13782000        -0.35195000
@H        +2.48236000        +2.42488000        +1.14651000
@H        +4.02182000        +0.00994000        +0.41161000
@H        +3.07359000        +0.18738000        +1.88928000
@H        -2.21148000        -2.17765000        -1.85937000
@H        -1.38062000        -3.42697000        -0.88096000
@H        -4.03855000        +0.43623000        +1.35671000
@H        -3.63120000        +0.31700000        -0.38495000
@H        +1.03270000        +2.19943000        -1.08064000
@H        +2.24339000        -1.61496000        +0.04786000
$end

$rem
JOBTYPE                   SP
METHOD                    B3LYP
DFT_D                     d3_op
BASIS                     6-311++G(d,p)
SYMMETRY                  False
THRESH                    12
SCF_CONVERGENCE           8
MAX_SUB_FILE_NUM          128
MEM_STATIC                400
MEM_TOTAL                 4000
$end
--------------------------------------------------------------

             Standard Nuclear Orientation (Angstroms)
    I     Atom           X                Y                Z
 ----------------------------------------------------------------
    1      C       0.2748700000     3.9997800000    10.1392700000
    2      C       0.6784300000     2.5413700000    10.5520300000
    3      C      -1.1298300000     4.1871300000     9.5970900000
    4      C      -0.3224000000     1.4384700000    10.2766500000
    5      O      -2.0395500000     3.7432200000    10.4929800000
    6      O      -1.4211900000     4.7142900000     8.5545000000
    7      O      -0.8614700000     1.5269800000     9.0471200000
    8      O      -0.5699100000     0.5461300000    11.0524300000
    9      C      -1.8091700000     0.5074900000     8.6877200000
   10      C      -3.4185100000     3.8298200000    10.0925200000
   11      C       1.3822500000     4.3546400000     9.1184100000
   12      C       2.6828700000     4.6719000000     9.8818700000
   13      C       3.0955300000     3.2484100000    10.3563200000
   14      C       1.9964000000     2.3619100000     9.7059400000
   15      O       1.6805700000     3.0915300000     8.5095600000
   16      H       0.3302800000     4.6427600000    11.0223200000
   17      H       0.8914000000     2.4744800000    11.6174000000
   18      H      -2.6353200000     0.4881300000     9.4003600000
   19      H      -3.7085900000     4.8701200000     9.9373800000
   20      H       3.4245100000     5.0927200000     9.2013700000
   21      H       2.5345300000     5.3797800000    10.6998300000
   22      H       4.0739900000     2.9648400000     9.9649300000
   23      H       3.1257600000     3.1422800000    11.4426000000
   24      H      -2.1593100000     0.7772500000     7.6939500000
   25      H      -1.3284500000    -0.4720700000     8.6723600000
   26      H      -3.9863800000     3.3911300000    10.9100300000
   27      H      -3.5790300000     3.2719000000     9.1683700000
   28      H       1.0848700000     5.1543300000     8.4726800000
   29      H       2.2955600000     1.3399400000     9.6011800000
   30      GH      0.2227000000     1.0448800000     0.5859500000
   31      GH      0.6262600000    -0.4135300000     0.9987100000
   32      GH     -1.1820000000     1.2322300000     0.0437700000
   33      GH     -0.3745700000    -1.5164300000     0.7233300000
   34      GH     -2.0917200000     0.7883200000     0.9396600000
   35      GH     -1.4733600000     1.7593900000    -0.9988200000
   36      GH     -0.9136400000    -1.4279200000    -0.5062000000
   37      GH     -0.6220800000    -2.4087700000     1.4991100000
   38      GH     -1.8613400000    -2.4474100000    -0.8656000000
   39      GH     -3.4706800000     0.8749200000     0.5392000000
   40      GH      1.3300800000     1.3997400000    -0.4349100000
   41      GH      2.6307000000     1.7170000000     0.3285500000
   42      GH      3.0433600000     0.2935100000     0.8030000000
   43      GH      1.9442300000    -0.5929900000     0.1526200000
   44      GH      1.6284000000     0.1366300000    -1.0437600000
   45      GH      0.2781100000     1.6878600000     1.4690000000
   46      GH      0.8392300000    -0.4804200000     2.0640800000
   47      GH     -2.6874900000    -2.4667700000    -0.1529600000
   48      GH     -3.7607600000     1.9152200000     0.3840600000
   49      GH      3.3723400000     2.1378200000    -0.3519500000
   50      GH      2.4823600000     2.4248800000     1.1465100000
   51      GH      4.0218200000     0.0099400000     0.4116100000
   52      GH      3.0735900000     0.1873800000     1.8892800000
   53      GH     -2.2114800000    -2.1776500000    -1.8593700000
   54      GH     -1.3806200000    -3.4269700000    -0.8809600000
   55      GH     -4.0385500000     0.4362300000     1.3567100000
   56      GH     -3.6312000000     0.3170000000    -0.3849500000
   57      GH      1.0327000000     2.1994300000    -1.0806400000
   58      GH      2.2433900000    -1.6149600000     0.0478600000
 ----------------------------------------------------------------

   14    -765.8580790671      6.86E-09 Convergence criterion met
 Total energy in the final basis set = -765.85807907

                    Orbital Energies (a.u.)
 --------------------------------------------------------------

 Alpha MOs
 -- Occupied --
-19.176 -19.174 -19.136 -19.120 -19.116 -10.310 -10.306 -10.242
-10.232 -10.232 -10.230 -10.207 -10.206 -10.182 -10.180  -1.120
 -1.113  -1.065  -1.031  -1.028  -0.833  -0.785  -0.778  -0.740
 -0.729  -0.659  -0.610  -0.596  -0.580  -0.567  -0.551  -0.520
 -0.506  -0.496  -0.489  -0.484  -0.476  -0.473  -0.462  -0.439
 -0.427  -0.425  -0.418  -0.399  -0.385  -0.376  -0.371  -0.369
 -0.362  -0.356  -0.337  -0.334  -0.320  -0.313  -0.290  -0.282
 -0.276

          Ground-State Mulliken Net Atomic Charges

     Atom                 Charge (a.u.)
  ----------------------------------------
      1 C                     0.100299
      2 C                     0.573900
      3 C                    -0.554324
      4 C                    -0.758376
      5 O                    -0.017499
      6 O                    -0.205204
      7 O                    -0.029120
      8 O                    -0.175928
      9 C                    -0.227394
     10 C                    -0.204398
     11 C                    -0.187741
     12 C                    -0.459619
     13 C                    -0.441546
     14 C                    -0.011516
     15 O                    -0.124933
     16 H                     0.237970
     17 H                     0.281106
     18 H                     0.186673
     19 H                     0.174767
     20 H                     0.189332
     21 H                     0.123413
     22 H                     0.184440
     23 H                     0.122235
     24 H                     0.167215
     25 H                     0.177334
     26 H                     0.162738
     27 H                     0.181506
     28 H                     0.272507
     29 H                     0.261865
     30 GH                   -0.000085
     31 GH                   -0.000032
     32 GH                   -0.000008
     33 GH                   -0.000019
     34 GH                   -0.000000
     35 GH                    0.000000
     36 GH                    0.000000
     37 GH                    0.000000
     38 GH                    0.000000
     39 GH                    0.000003
     40 GH                    0.000001
     41 GH                   -0.000018
     42 GH                   -0.000014
     43 GH                   -0.000001
     44 GH                    0.000000
     45 GH                    0.000297
     46 GH                    0.000141
     47 GH                   -0.000000
     48 GH                   -0.000001
     49 GH                    0.000000
     50 GH                   -0.000033
     51 GH                   -0.000003
     52 GH                    0.000060
     53 GH                    0.000000
     54 GH                   -0.000000
     55 GH                    0.000012
     56 GH                   -0.000000
     57 GH                   -0.000001
     58 GH                   -0.000000
  ----------------------------------------
  Sum of atomic charges =    -0.000000

                    Cartesian Multipole Moments
 -----------------------------------------------------------------
    Charge (ESU x 10^10)
                -0.0000
    Dipole Moment (Debye)
         X      -0.0149      Y       0.7255      Z       1.2146
       Tot       1.4148
    Quadrupole Moments (Debye-Ang)
        XX     -75.1665     XY       2.9607     YY     -85.3844
        XZ       3.2876     YZ      21.2173     ZZ     -72.6626

 Total job time:  3495.97s(wall), 3487.85s(cpu)
        *  Thank you very much for using Q-Chem.  Have a nice day.  *
