 Q-Chem 5.0, Q-Chem, Inc., Pleasanton, CA (2017)
 Q-Chem 5.0.1 for Intel X86 EM64T Linux

User input:
--------------------------------------------------------------
$molecule
0  1
--
0  1
C        +0.22270000        +1.04488000        +0.58595000
C        +0.62626000        -0.41353000        +0.99871000
C        -1.18200000        +1.23223000        +0.04377000
C        -0.37457000        -1.51643000        +0.72333000
O        -2.09172000        +0.78832000        +0.93966000
O        -1.47336000        +1.75939000        -0.99882000
O        -0.91364000        -1.42792000        -0.50620000
O        -0.62208000        -2.40877000        +1.49911000
C        -1.86134000        -2.44741000        -0.86560000
C        -3.47068000        +0.87492000        +0.53920000
C        +1.33008000        +1.39974000        -0.43491000
C        +2.63070000        +1.71700000        +0.32855000
C        +3.04336000        +0.29351000        +0.80300000
C        +1.94423000        -0.59299000        +0.15262000
O        +1.62840000        +0.13663000        -1.04376000
H        +0.27811000        +1.68786000        +1.46900000
H        +0.83923000        -0.48042000        +2.06408000
H        -2.68749000        -2.46677000        -0.15296000
H        -3.76076000        +1.91522000        +0.38406000
H        +3.37234000        +2.13782000        -0.35195000
H        +2.48236000        +2.42488000        +1.14651000
H        +4.02182000        +0.00994000        +0.41161000
H        +3.07359000        +0.18738000        +1.88928000
H        -2.21148000        -2.17765000        -1.85937000
H        -1.38062000        -3.42697000        -0.88096000
H        -4.03855000        +0.43623000        +1.35671000
H        -3.63120000        +0.31700000        -0.38495000
H        +1.03270000        +2.19943000        -1.08064000
H        +2.24339000        -1.61496000        +0.04786000
--
0  1
C        +0.27487000        +3.99978000       +10.13927000
C        +0.67843000        +2.54137000       +10.55203000
C        -1.12983000        +4.18713000        +9.59709000
C        -0.32240000        +1.43847000       +10.27665000
O        -2.03955000        +3.74322000       +10.49298000
O        -1.42119000        +4.71429000        +8.55450000
O        -0.86147000        +1.52698000        +9.04712000
O        -0.56991000        +0.54613000       +11.05243000
C        -1.80917000        +0.50749000        +8.68772000
C        -3.41851000        +3.82982000       +10.09252000
C        +1.38225000        +4.35464000        +9.11841000
C        +2.68287000        +4.67190000        +9.88187000
C        +3.09553000        +3.24841000       +10.35632000
C        +1.99640000        +2.36191000        +9.70594000
O        +1.68057000        +3.09153000        +8.50956000
H        +0.33028000        +4.64276000       +11.02232000
H        +0.89140000        +2.47448000       +11.61740000
H        -2.63532000        +0.48813000        +9.40036000
H        -3.70859000        +4.87012000        +9.93738000
H        +3.42451000        +5.09272000        +9.20137000
H        +2.53453000        +5.37978000       +10.69983000
H        +4.07399000        +2.96484000        +9.96493000
H        +3.12576000        +3.14228000       +11.44260000
H        -2.15931000        +0.77725000        +7.69395000
H        -1.32845000        -0.47207000        +8.67236000
H        -3.98638000        +3.39113000       +10.91003000
H        -3.57903000        +3.27190000        +9.16837000
H        +1.08487000        +5.15433000        +8.47268000
H        +2.29556000        +1.33994000        +9.60118000
$end

$rem
JOBTYPE                   SP
METHOD                    B3LYP
DFT_D                     d3_op
BASIS                     6-311++G(d,p)
SYMMETRY                  False
THRESH                    12
SCF_CONVERGENCE           8
MAX_SUB_FILE_NUM          128
MEM_STATIC                400
MEM_TOTAL                 4000
$end
--------------------------------------------------------------

             Standard Nuclear Orientation (Angstroms)
    I     Atom           X                Y                Z
 ----------------------------------------------------------------
    1      C      -4.2891707224     0.5476868941     0.8257227352
    2      C      -4.3398765673     0.6188159996    -0.7403426488
    3      C      -4.7693490969    -0.7433775332     1.4619794744
    4      C      -4.9577333424    -0.5556324348    -1.4702790320
    5      O      -4.0685211739    -1.7924069158     0.9765487014
    6      O      -5.6030700438    -0.8391164171     2.3254177595
    7      O      -6.1084412215    -0.9653850208    -0.9062323131
    8      O      -4.4989261673    -1.0372548660    -2.4786947667
    9      C      -6.7796521346    -2.0645896498    -1.5448938854
   10      C      -4.4445615548    -3.0897796602     1.4713375930
   11      C      -5.1331893063     1.7821691907     1.2232869601
   12      C      -4.2885971454     3.0539738681     1.0127770838
   13      C      -4.2697154102     3.1359519675    -0.5411334443
   14      C      -5.1790822735     1.9387361475    -0.9369734872
   15      O      -6.0970396052     1.8717266522     0.1658787705
   16      H      -3.2501265906     0.6583082039     1.1488652257
   17      H      -3.3438086269     0.7275928044    -1.1656190234
   18      H      -6.1208890935    -2.9328630390    -1.5986245004
   19      H      -4.2759465132    -3.1539186138     2.5473924607
   20      H      -4.7943412387     3.9168685446     1.4484780149
   21      H      -3.2946795429     2.9837293977     1.4592644020
   22      H      -4.7139176341     4.0668918192    -0.8975284854
   23      H      -3.2687539045     3.0567564980    -0.9700691156
   24      H      -7.6472376437    -2.2728179031    -0.9228941516
   25      H      -7.0886875768    -1.7884223369    -2.5543958182
   26      H      -3.8112582949    -3.7975499758     0.9410206929
   27      H      -5.4981351974    -3.2828513353     1.2620518382
   28      H      -5.5055018924     1.7026768830     2.2232722123
   29      H      -5.5891034500     2.0363533845    -1.9204609319
   30      C       5.7093545095     0.4149677620     0.7163721014
   31      C       5.6586486646     0.4860968676    -0.8496932825
   32      C       5.2291761349    -0.8760966653     1.3526288406
   33      C       5.0407918895    -0.6883515669    -1.5796296658
   34      O       5.9300040579    -1.9251260478     0.8671980676
   35      O       4.3954551880    -0.9718355492     2.2160671257
   36      O       3.8900840104    -1.0981041529    -1.0155829469
   37      O       5.4995990645    -1.1699739981    -2.5880454005
   38      C       3.2188730973    -2.1973087819    -1.6542445192
   39      C       5.5539636771    -3.2224987922     1.3619869592
   40      C       4.8653359256     1.6494500586     1.1139363263
   41      C       5.7099280864     2.9212547360     0.9034264500
   42      C       5.7288098217     3.0032328354    -0.6504840781
   43      C       4.8194429584     1.8060170154    -1.0463241210
   44      O       3.9014856266     1.7390075201     0.0565281367
   45      H       6.7483986412     0.5255890718     1.0395145919
   46      H       6.6547166050     0.5948736723    -1.2749696572
   47      H       3.8776361384    -3.0655821711    -1.7079751342
   48      H       5.7225787186    -3.2866377459     2.4380418269
   49      H       5.2041839931     3.7841494125     1.3391273811
   50      H       6.7038456890     2.8510102656     1.3499137683
   51      H       5.2846075978     3.9341726871    -1.0068791192
   52      H       6.7297713273     2.9240373660    -1.0794197493
   53      H       2.3512875882    -2.4055370351    -1.0322447853
   54      H       2.9098376551    -1.9211414690    -2.6637464520
   55      H       6.1872669370    -3.9302691079     0.8316700592
   56      H       4.5003900345    -3.4155704673     1.1527012045
   57      H       4.4930233395     1.5699577510     2.1139215785
   58      H       4.4094217818     1.9036342524    -2.0298115657
 ----------------------------------------------------------------

   14   -1531.7166180246      9.71E-09 Convergence criterion met
 Total energy in the final basis set = -1531.71661802

                    Orbital Energies (a.u.)
 --------------------------------------------------------------

 Alpha MOs
 -- Occupied --
-19.177 -19.174 -19.174 -19.172 -19.138 -19.134 -19.121 -19.118
-19.117 -19.115 -10.311 -10.308 -10.307 -10.305 -10.244 -10.240
-10.233 -10.233 -10.231 -10.230 -10.229 -10.229 -10.208 -10.207
-10.204 -10.204 -10.184 -10.181 -10.180 -10.177  -1.121  -1.119
 -1.114  -1.112  -1.067  -1.063  -1.032  -1.029  -1.028  -1.026
 -0.835  -0.831  -0.787  -0.783  -0.779  -0.776  -0.741  -0.738
 -0.730  -0.728  -0.660  -0.657  -0.612  -0.608  -0.597  -0.594
 -0.581  -0.579  -0.568  -0.566  -0.552  -0.549  -0.521  -0.518
 -0.507  -0.504  -0.497  -0.494  -0.490  -0.487  -0.485  -0.482
 -0.476  -0.474  -0.474  -0.471  -0.463  -0.460  -0.440  -0.437
 -0.428  -0.426  -0.425  -0.423  -0.419  -0.417  -0.400  -0.398
 -0.386  -0.383  -0.377  -0.374  -0.373  -0.370  -0.369  -0.366
 -0.363  -0.360  -0.357  -0.354  -0.338  -0.336  -0.335  -0.332
 -0.321  -0.319  -0.314  -0.312  -0.291  -0.288  -0.284  -0.281
 -0.277  -0.274

          Ground-State Mulliken Net Atomic Charges

     Atom                 Charge (a.u.)
  ----------------------------------------
      1 C                     0.070960
      2 C                     0.590351
      3 C                    -0.563273
      4 C                    -0.772679
      5 O                    -0.015404
      6 O                    -0.210760
      7 O                    -0.026424
      8 O                    -0.174161
      9 C                    -0.226998
     10 C                    -0.209871
     11 C                    -0.170384
     12 C                    -0.457766
     13 C                    -0.455172
     14 C                    -0.004650
     15 O                    -0.125217
     16 H                     0.244084
     17 H                     0.307621
     18 H                     0.186777
     19 H                     0.176111
     20 H                     0.189176
     21 H                     0.123851
     22 H                     0.185754
     23 H                     0.116760
     24 H                     0.170009
     25 H                     0.176177
     26 H                     0.156384
     27 H                     0.182018
     28 H                     0.276008
     29 H                     0.260790
     30 C                     0.113709
     31 C                     0.569468
     32 C                    -0.557536
     33 C                    -0.760174
     34 O                    -0.016946
     35 O                    -0.206928
     36 O                    -0.029324
     37 O                    -0.175149
     38 C                    -0.226754
     39 C                    -0.204687
     40 C                    -0.194207
     41 C                    -0.459130
     42 C                    -0.441178
     43 C                    -0.009922
     44 O                    -0.126782
     45 H                     0.238399
     46 H                     0.281335
     47 H                     0.186842
     48 H                     0.174667
     49 H                     0.188621
     50 H                     0.123601
     51 H                     0.183982
     52 H                     0.122675
     53 H                     0.167633
     54 H                     0.178727
     55 H                     0.163243
     56 H                     0.181383
     57 H                     0.271969
     58 H                     0.262389
  ----------------------------------------
  Sum of atomic charges =     0.000000

                    Cartesian Multipole Moments
 -----------------------------------------------------------------
    Charge (ESU x 10^10)
                 0.0000
    Dipole Moment (Debye)
         X       2.8441      Y       0.0683      Z       0.6291
       Tot       2.9137
    Quadrupole Moments (Debye-Ang)
        XX    -179.0156     XY      13.0376     YY    -151.2952
        XZ      18.3328     YZ      -5.8391     ZZ    -192.4310

 Total job time:  3779.16s(wall), 3770.37s(cpu)
        *  Thank you very much for using Q-Chem.  Have a nice day.  *
