 Q-Chem 5.0, Q-Chem, Inc., Pleasanton, CA (2017)
 Q-Chem 5.0.1 for Intel X86 EM64T Linux

User input:
--------------------------------------------------------------
$molecule
0  1
--
0  1
C        -0.54444000        -0.68370000        -0.06689000
C        -0.55709000        +0.71878000        +0.05493000
C        +0.74969000        -1.43776000        -0.09374000
C        +0.72843000        +1.48436000        +0.06598000
O        +1.53645000        -1.09176000        +0.94813000
O        +1.04702000        -2.28405000        -0.90088000
O        +1.53784000        +1.08301000        -0.93877000
O        +1.01035000        +2.37097000        +0.83478000
C        +2.83449000        +1.70121000        -0.99358000
C        +2.82316000        -1.73208000        +1.00475000
C        -1.74320000        -1.41616000        -0.12552000
C        -2.93952000        -0.70056000        -0.05285000
C        -2.95313000        +0.68255000        +0.06934000
C        -1.77161000        +1.42404000        +0.12810000
H        +2.73835000        +2.77989000        -1.12464000
H        +2.70778000        -2.81319000        +1.09555000
H        -3.90354000        +1.20325000        +0.11710000
H        +3.38998000        +1.50093000        -0.07544000
H        +3.33184000        +1.25269000        -1.85067000
H        +3.31095000        -1.32281000        +1.88650000
H        +3.39889000        -1.50934000        +0.10459000
H        -3.87892000        -1.24211000        -0.08988000
H        -1.78886000        +2.45164000        +0.22176000
H        -1.73878000        -2.44393000        -0.21875000
--
0  1
C        -0.47562000        -1.55562000        +9.89479000
C        -0.48827000        -0.15314000       +10.01661000
C        +0.81851000        -2.30968000        +9.86794000
C        +0.79725000        +0.61244000       +10.02766000
O        +1.60527000        -1.96368000       +10.90981000
O        +1.11584000        -3.15597000        +9.06080000
O        +1.60666000        +0.21109000        +9.02291000
O        +1.07917000        +1.49905000       +10.79646000
C        +2.90331000        +0.82929000        +8.96810000
C        +2.89198000        -2.60400000       +10.96643000
C        -1.67438000        -2.28808000        +9.83616000
C        -2.87070000        -1.57248000        +9.90883000
C        -2.88431000        -0.18937000       +10.03102000
C        -1.70279000        +0.55212000       +10.08978000
H        +2.80717000        +1.90797000        +8.83704000
H        +2.77660000        -3.68511000       +11.05723000
H        -3.83472000        +0.33133000       +10.07878000
H        +3.45880000        +0.62901000        +9.88624000
H        +3.40066000        +0.38077000        +8.11101000
H        +3.37977000        -2.19473000       +11.84818000
H        +3.46771000        -2.38126000       +10.06627000
H        -3.81010000        -2.11403000        +9.87180000
H        -1.72004000        +1.57972000       +10.18344000
H        -1.66996000        -3.31585000        +9.74293000
$end

$rem
JOBTYPE                   SP
METHOD                    B3LYP
DFT_D                     d3_op
BASIS                     6-311++G(d,p)
SYMMETRY                  False
THRESH                    12
SCF_CONVERGENCE           8
MAX_SUB_FILE_NUM          128
MEM_STATIC                400
MEM_TOTAL                 4000
$end
--------------------------------------------------------------

             Standard Nuclear Orientation (Angstroms)
    I     Atom           X                Y                Z
 ----------------------------------------------------------------
    1      C      -5.0001301908     0.8142043384     0.7556003787
    2      C      -5.0170439643     0.8362976945    -0.6519421937
    3      C      -4.9428446995    -0.4846198225     1.4998275178
    4      C      -5.0716836016    -0.4444548599    -1.4236182356
    5      O      -3.9341717515    -1.2607199173     1.0476683410
    6      O      -5.6604958253    -0.7936434924     2.4193752902
    7      O      -6.0259025804    -1.2644714744    -0.9308831897
    8      O      -4.3917745915    -0.7147225339    -2.3834561078
    9      C      -6.1314900803    -2.5577805637    -1.5494941160
   10      C      -3.8050752529    -2.5507556673     1.6705487539
   11      C      -4.9954421588     2.0080110316     1.4984087441
   12      C      -5.0026064645     3.2091740174     0.7872814802
   13      C      -5.0172527553     3.2321137054    -0.6010153747
   14      C      -5.0228305631     2.0556015664    -1.3527052993
   15      H      -6.3688089109    -2.4562232360    -2.6093696027
   16      H      -3.6091797165    -2.4411483947     2.7382412195
   17      H      -5.0281626786     4.1860016031    -1.1174139881
   18      H      -5.1939220367    -3.1069260760    -1.4442912254
   19      H      -6.9364866901    -3.0648276662    -1.0222236209
   20      H      -2.9642279858    -3.0288319823     1.1732128614
   21      H      -4.7184096055    -3.1324891182     1.5335351834
   22      H      -4.9932539977     4.1449607722     1.3362219728
   23      H      -5.0309029290     2.0798063858    -2.3843934701
   24      H      -4.9870221573     1.9966380480     2.5303110171
   25      C       4.9992332030     0.8217484632     0.6428000856
   26      C       4.9823194295     0.8438418193    -0.7647424868
   27      C       5.0565186943    -0.4770756977     1.3870272247
   28      C       4.9276797922    -0.4369107351    -1.5364185288
   29      O       6.0651916423    -1.2531757925     0.9348680479
   30      O       4.3388675685    -0.7860993675     2.3065749971
   31      O       3.9734608133    -1.2569273496    -1.0436834829
   32      O       5.6075888023    -0.7071784091    -2.4962564009
   33      C       3.8678733135    -2.5502364389    -1.6622944091
   34      C       6.1942881409    -2.5432115425     1.5577484607
   35      C       5.0039212350     2.0155551565     1.3856084510
   36      C       4.9967569293     3.2167181423     0.6744811871
   37      C       4.9821106385     3.2396578302    -0.7138156678
   38      C       4.9765328307     2.0631456912    -1.4655055925
   39      H       3.6305544829    -2.4486791112    -2.7221698959
   40      H       6.3901836773    -2.4336042698     2.6254409263
   41      H       4.9712007152     4.1935457279    -1.2302142812
   42      H       4.8054413571    -3.0993819511    -1.5570915185
   43      H       3.0628767037    -3.0572835414    -1.1350239141
   44      H       7.0351354080    -3.0212878574     1.0604125682
   45      H       5.2809537883    -3.1249449934     1.4207348902
   46      H       5.0061093961     4.1525048970     1.2234216797
   47      H       4.9684604648     2.0873505106    -2.4971937632
   48      H       5.0123412365     2.0041821728     2.4175107240
 ----------------------------------------------------------------

   14   -1376.4208095577      8.07E-09 Convergence criterion met
 Total energy in the final basis set = -1376.42080956

                    Orbital Energies (a.u.)
 --------------------------------------------------------------

 Alpha MOs
 -- Occupied --
-19.178 -19.178 -19.177 -19.177 -19.121 -19.121 -19.121 -19.120
-10.313 -10.313 -10.313 -10.313 -10.233 -10.233 -10.232 -10.232
-10.214 -10.214 -10.213 -10.213 -10.197 -10.197 -10.197 -10.197
-10.197 -10.196 -10.196 -10.196  -1.123  -1.122  -1.116  -1.116
 -1.032  -1.032  -1.032  -1.031  -0.886  -0.886  -0.799  -0.799
 -0.786  -0.786  -0.743  -0.743  -0.732  -0.732  -0.655  -0.655
 -0.645  -0.645  -0.595  -0.595  -0.578  -0.578  -0.554  -0.554
 -0.523  -0.523  -0.515  -0.515  -0.492  -0.492  -0.491  -0.491
 -0.484  -0.484  -0.478  -0.478  -0.471  -0.471  -0.467  -0.467
 -0.439  -0.439  -0.431  -0.430  -0.415  -0.415  -0.408  -0.407
 -0.388  -0.388  -0.386  -0.386  -0.383  -0.383  -0.368  -0.368
 -0.365  -0.365  -0.323  -0.323  -0.315  -0.314  -0.301  -0.301
 -0.296  -0.296  -0.275  -0.275  -0.271  -0.271

          Ground-State Mulliken Net Atomic Charges

     Atom                 Charge (a.u.)
  ----------------------------------------
      1 C                     0.748492
      2 C                     0.816607
      3 C                    -0.721737
      4 C                    -0.638782
      5 O                     0.030798
      6 O                    -0.196600
      7 O                     0.018395
      8 O                    -0.203559
      9 C                    -0.238465
     10 C                    -0.236514
     11 C                    -0.395071
     12 C                    -0.146798
     13 C                    -0.150033
     14 C                    -0.397319
     15 H                     0.175168
     16 H                     0.176597
     17 H                     0.172454
     18 H                     0.175490
     19 H                     0.167797
     20 H                     0.160758
     21 H                     0.174675
     22 H                     0.173392
     23 H                     0.167410
     24 H                     0.166855
     25 C                     0.755391
     26 C                     0.811530
     27 C                    -0.696297
     28 C                    -0.667238
     29 O                     0.029406
     30 O                    -0.196313
     31 O                     0.019638
     32 O                    -0.203577
     33 C                    -0.234619
     34 C                    -0.240276
     35 C                    -0.385711
     36 C                    -0.149711
     37 C                    -0.146208
     38 C                    -0.406027
     39 H                     0.177138
     40 H                     0.174804
     41 H                     0.172872
     42 H                     0.175289
     43 H                     0.161408
     44 H                     0.166272
     45 H                     0.174964
     46 H                     0.173034
     47 H                     0.167899
     48 H                     0.166323
  ----------------------------------------
  Sum of atomic charges =     0.000000

                    Cartesian Multipole Moments
 -----------------------------------------------------------------
    Charge (ESU x 10^10)
                 0.0000
    Dipole Moment (Debye)
         X       0.1633      Y       0.0924      Z       0.2148
       Tot       0.2852
    Quadrupole Moments (Debye-Ang)
        XX    -170.7852     XY      -0.6517     YY    -122.7045
        XZ      19.3139     YZ       0.4589     ZZ    -172.4787

 Total job time:  766.02s(wall), 1518.22s(cpu)
        *  Thank you very much for using Q-Chem.  Have a nice day.  *
