 Q-Chem 5.0, Q-Chem, Inc., Pleasanton, CA (2017)
 Q-Chem 5.0.1 for Intel X86 EM64T Linux

User input:
--------------------------------------------------------------
$molecule
0  1
--
0  1
C        +0.22270000        +1.04488000        +0.58595000
C        +0.62626000        -0.41353000        +0.99871000
C        -1.18200000        +1.23223000        +0.04377000
C        -0.37457000        -1.51643000        +0.72333000
O        -2.09172000        +0.78832000        +0.93966000
O        -1.47336000        +1.75939000        -0.99882000
O        -0.91364000        -1.42792000        -0.50620000
O        -0.62208000        -2.40877000        +1.49911000
C        -1.86134000        -2.44741000        -0.86560000
C        -3.47068000        +0.87492000        +0.53920000
C        +1.33008000        +1.39974000        -0.43491000
C        +2.63070000        +1.71700000        +0.32855000
C        +3.04336000        +0.29351000        +0.80300000
C        +1.94423000        -0.59299000        +0.15262000
O        +1.62840000        +0.13663000        -1.04376000
H        +0.27811000        +1.68786000        +1.46900000
H        +0.83923000        -0.48042000        +2.06408000
H        -2.68749000        -2.46677000        -0.15296000
H        -3.76076000        +1.91522000        +0.38406000
H        +3.37234000        +2.13782000        -0.35195000
H        +2.48236000        +2.42488000        +1.14651000
H        +4.02182000        +0.00994000        +0.41161000
H        +3.07359000        +0.18738000        +1.88928000
H        -2.21148000        -2.17765000        -1.85937000
H        -1.38062000        -3.42697000        -0.88096000
H        -4.03855000        +0.43623000        +1.35671000
H        -3.63120000        +0.31700000        -0.38495000
C        +2.35450000        -2.01267000        -0.16812000
H        +3.26311000        -2.00678000        -0.77366000
H        +2.54990000        -2.57059000        +0.75079000
H        +1.57335000        -2.52896000        -0.72872000
H        +1.03270000        +2.19943000        -1.08064000
--
0  1
C        +0.27487000        +3.99978000       +10.13927000
C        +0.67843000        +2.54137000       +10.55203000
C        -1.12983000        +4.18713000        +9.59709000
C        -0.32240000        +1.43847000       +10.27665000
O        -2.03955000        +3.74322000       +10.49298000
O        -1.42119000        +4.71429000        +8.55450000
O        -0.86147000        +1.52698000        +9.04712000
O        -0.56991000        +0.54613000       +11.05243000
C        -1.80917000        +0.50749000        +8.68772000
C        -3.41851000        +3.82982000       +10.09252000
C        +1.38225000        +4.35464000        +9.11841000
C        +2.68287000        +4.67190000        +9.88187000
C        +3.09553000        +3.24841000       +10.35632000
C        +1.99640000        +2.36191000        +9.70594000
O        +1.68057000        +3.09153000        +8.50956000
H        +0.33028000        +4.64276000       +11.02232000
H        +0.89140000        +2.47448000       +11.61740000
H        -2.63532000        +0.48813000        +9.40036000
H        -3.70859000        +4.87012000        +9.93738000
H        +3.42451000        +5.09272000        +9.20137000
H        +2.53453000        +5.37978000       +10.69983000
H        +4.07399000        +2.96484000        +9.96493000
H        +3.12576000        +3.14228000       +11.44260000
H        -2.15931000        +0.77725000        +7.69395000
H        -1.32845000        -0.47207000        +8.67236000
H        -3.98638000        +3.39113000       +10.91003000
H        -3.57903000        +3.27190000        +9.16837000
C        +2.40667000        +0.94223000        +9.38520000
H        +3.31528000        +0.94812000        +8.77966000
H        +2.60207000        +0.38431000       +10.30411000
H        +1.62552000        +0.42594000        +8.82460000
H        +1.08487000        +5.15433000        +8.47268000
$end

$rem
JOBTYPE                   SP
METHOD                    B3LYP
DFT_D                     d3_op
BASIS                     6-311++G(d,p)
SYMMETRY                  False
THRESH                    12
SCF_CONVERGENCE           8
MAX_SUB_FILE_NUM          128
MEM_STATIC                400
MEM_TOTAL                 4000
$end
--------------------------------------------------------------

             Standard Nuclear Orientation (Angstroms)
    I     Atom           X                Y                Z
 ----------------------------------------------------------------
    1      C      -4.2189214786     0.1949928896     1.0646352616
    2      C      -4.2789763178     0.5488700504    -0.4622424646
    3      C      -4.6866176494    -1.1938256834     1.4579348015
    4      C      -4.8928775602    -0.4783060711    -1.3906377055
    5      O      -3.9813635999    -2.1318054885     0.7870577118
    6      O      -5.5147620023    -1.4512165504     2.2932246289
    7      O      -6.0375350914    -0.9925918537    -0.9054122157
    8      O      -4.4364893250    -0.7652581923    -2.4717180647
    9      C      -6.7047883230    -1.9627633429    -1.7301569742
   10      C      -4.3456831953    -3.5003331945     1.0396475049
   11      C      -5.0691308159     1.3301766966     1.6834026094
   12      C      -4.2344936694     2.6255941839     1.7036962204
   13      C      -4.2249693677     2.9884741792     0.1904407050
   14      C      -5.1283221449     1.8759855929    -0.4122914550
   15      O      -6.0395418602     1.6027238223     0.6640103953
   16      H      -3.1788490830     0.2531859104     1.3980026793
   17      H      -3.2861012321     0.7407940719    -0.8649929629
   18      H      -6.0403951906    -2.8017011586    -1.9435099883
   19      H      -4.1705448957    -3.7574557206     2.0854264005
   20      H      -4.7436753266     3.3910844588     2.2910277206
   21      H      -3.2376064316     2.4831879873     2.1257077392
   22      H      -4.6775613451     3.9651642019     0.0109437685
   23      H      -3.2259312892     2.9962580778    -0.2500635480
   24      H      -7.5673900765    -2.2871996996    -1.1525701360
   25      H      -7.0214202895    -1.5103179056    -2.6713810525
   26      H      -3.7105477204    -4.0951117846     0.3868924127
   27      H      -5.3990742064    -3.6603880375     0.8033332137
   28      C      -5.8730355590     2.2507631468    -1.6738899010
   29      H      -6.4392386709     3.1698154134    -1.5094439123
   30      H      -5.1727489057     2.4135663625    -2.4966566910
   31      H      -6.5729866004     1.4651558567    -1.9635669140
   32      H      -5.4352238403     1.0675599491     2.6539254246
   33      C       5.7795002693     0.1621046508     0.8898220581
   34      C       5.7194454301     0.5159818116    -0.6370556681
   35      C       5.3118040985    -1.2267139222     1.2831215980
   36      C       5.1055441877    -0.5111943099    -1.5654509090
   37      O       6.0170581480    -2.1646937273     0.6122445083
   38      O       4.4836597456    -1.4841047892     2.1184114254
   39      O       3.9608866565    -1.0254800925    -1.0802254193
   40      O       5.5619324229    -0.7981464311    -2.6465312682
   41      C       3.2936334249    -1.9956515817    -1.9049701777
   42      C       5.6527385526    -3.5332214333     0.8648343014
   43      C       4.9292909320     1.2972884578     1.5085894059
   44      C       5.7639280785     2.5927059451     1.5288830169
   45      C       5.7734523802     2.9555859404     0.0156275015
   46      C       4.8700996030     1.8430973541    -0.5871046585
   47      O       3.9588798877     1.5698355835     0.4891971918
   48      H       6.8195726649     0.2202976716     1.2231894758
   49      H       6.7123205158     0.7079058331    -1.0398061664
   50      H       3.9580265573    -2.8345893974    -2.1183231918
   51      H       5.8278768522    -3.7903439594     1.9106131970
   52      H       5.2547464213     3.3581962200     2.1162145171
   53      H       6.7608153163     2.4502997484     1.9508945357
   54      H       5.3208604028     3.9322759630    -0.1638694350
   55      H       6.7724904587     2.9633698390    -0.4248767515
   56      H       2.4310316714    -2.3200879384    -1.3273833395
   57      H       2.9770014584    -1.5432061444    -2.8461942561
   58      H       6.2878740275    -4.1280000234     0.2120792092
   59      H       4.5993475415    -3.6932762763     0.6285200102
   60      C       4.1253861889     2.2178749080    -1.8487031045
   61      H       3.5591830770     3.1369271746    -1.6842571158
   62      H       4.8256728422     2.3806781237    -2.6714698945
   63      H       3.4254351475     1.4322676179    -2.1383801175
   64      H       4.5631979076     1.0346717102     2.4791122211
 ----------------------------------------------------------------

   14   -1610.3927568663      9.65E-09 Convergence criterion met
 Total energy in the final basis set = -1610.39275687

                    Orbital Energies (a.u.)
 --------------------------------------------------------------

 Alpha MOs
 -- Occupied --
-19.176 -19.174 -19.173 -19.172 -19.132 -19.129 -19.120 -19.117
-19.117 -19.115 -10.310 -10.307 -10.307 -10.305 -10.247 -10.244
-10.232 -10.230 -10.230 -10.230 -10.229 -10.226 -10.206 -10.205
-10.203 -10.202 -10.181 -10.179 -10.177 -10.176 -10.172 -10.169
 -1.121  -1.118  -1.114  -1.112  -1.065  -1.061  -1.031  -1.028
 -1.028  -1.026  -0.834  -0.831  -0.797  -0.794  -0.785  -0.782
 -0.747  -0.744  -0.730  -0.728  -0.698  -0.695  -0.656  -0.654
 -0.607  -0.604  -0.591  -0.588  -0.570  -0.568  -0.563  -0.560
 -0.535  -0.532  -0.519  -0.516  -0.511  -0.509  -0.493  -0.491
 -0.490  -0.489  -0.484  -0.481  -0.476  -0.474  -0.473  -0.471
 -0.462  -0.459  -0.444  -0.442  -0.435  -0.432  -0.426  -0.423
 -0.417  -0.415  -0.406  -0.403  -0.398  -0.396  -0.390  -0.388
 -0.382  -0.379  -0.374  -0.372  -0.370  -0.368  -0.362  -0.359
 -0.356  -0.353  -0.353  -0.349  -0.334  -0.333  -0.331  -0.330
 -0.321  -0.318  -0.313  -0.311  -0.290  -0.288  -0.282  -0.280
 -0.275  -0.272

          Ground-State Mulliken Net Atomic Charges

     Atom                 Charge (a.u.)
  ----------------------------------------
      1 C                    -0.126290
      2 C                     0.529577
      3 C                    -0.460305
      4 C                    -0.802915
      5 O                    -0.012968
      6 O                    -0.207979
      7 O                    -0.014165
      8 O                    -0.134088
      9 C                    -0.204477
     10 C                    -0.199895
     11 C                    -0.106064
     12 C                    -0.470395
     13 C                    -0.430445
     14 C                    -0.078068
     15 O                    -0.072637
     16 H                     0.253943
     17 H                     0.332077
     18 H                     0.191890
     19 H                     0.175004
     20 H                     0.187167
     21 H                     0.119599
     22 H                     0.166232
     23 H                     0.135215
     24 H                     0.176750
     25 H                     0.174067
     26 H                     0.156918
     27 H                     0.179491
     28 C                    -0.268281
     29 H                     0.180032
     30 H                     0.162111
     31 H                     0.180156
     32 H                     0.288916
     33 C                    -0.094415
     34 C                     0.880464
     35 C                    -0.509290
     36 C                    -0.956835
     37 O                    -0.014401
     38 O                    -0.204712
     39 O                    -0.012223
     40 O                    -0.135877
     41 C                    -0.209116
     42 C                    -0.196625
     43 C                    -0.098118
     44 C                    -0.471941
     45 C                    -0.398022
     46 C                    -0.254010
     47 O                    -0.062805
     48 H                     0.241388
     49 H                     0.289640
     50 H                     0.191390
     51 H                     0.173873
     52 H                     0.185467
     53 H                     0.120796
     54 H                     0.162721
     55 H                     0.142051
     56 H                     0.176887
     57 H                     0.173925
     58 H                     0.162668
     59 H                     0.178656
     60 C                    -0.275533
     61 H                     0.176216
     62 H                     0.165535
     63 H                     0.185253
     64 H                     0.286819
  ----------------------------------------
  Sum of atomic charges =    -0.000000

                    Cartesian Multipole Moments
 -----------------------------------------------------------------
    Charge (ESU x 10^10)
                -0.0000
    Dipole Moment (Debye)
         X       2.5011      Y       0.0778      Z       0.2312
       Tot       2.5129
    Quadrupole Moments (Debye-Ang)
        XX    -191.1701     XY       8.0835     YY    -163.5436
        XZ      20.8680     YZ       1.3834     ZZ    -206.5014

 Total job time:  4687.92s(wall), 4677.16s(cpu)
        *  Thank you very much for using Q-Chem.  Have a nice day.  *
