 Q-Chem 5.0, Q-Chem, Inc., Pleasanton, CA (2017)
 Q-Chem 5.0.1 for Intel X86 EM64T Linux

User input:
--------------------------------------------------------------
$molecule
0  1
C        +0.27487000        +3.99978000       +10.13927000
C        +0.67843000        +2.54137000       +10.55203000
C        -1.12983000        +4.18713000        +9.59709000
C        -0.32240000        +1.43847000       +10.27665000
O        -2.03955000        +3.74322000       +10.49298000
O        -1.42119000        +4.71429000        +8.55450000
O        -0.86147000        +1.52698000        +9.04712000
O        -0.56991000        +0.54613000       +11.05243000
C        -1.80917000        +0.50749000        +8.68772000
C        -3.41851000        +3.82982000       +10.09252000
C        +1.38225000        +4.35464000        +9.11841000
C        +2.68287000        +4.67190000        +9.88187000
C        +3.09553000        +3.24841000       +10.35632000
C        +1.99640000        +2.36191000        +9.70594000
O        +1.68057000        +3.09153000        +8.50956000
H        +0.33028000        +4.64276000       +11.02232000
H        +0.89140000        +2.47448000       +11.61740000
H        -2.63532000        +0.48813000        +9.40036000
H        -3.70859000        +4.87012000        +9.93738000
H        +3.42451000        +5.09272000        +9.20137000
H        +2.53453000        +5.37978000       +10.69983000
H        +4.07399000        +2.96484000        +9.96493000
H        +3.12576000        +3.14228000       +11.44260000
H        -2.15931000        +0.77725000        +7.69395000
H        -1.32845000        -0.47207000        +8.67236000
H        -3.98638000        +3.39113000       +10.91003000
H        -3.57903000        +3.27190000        +9.16837000
C        +0.95245000        +5.34567000        +8.05902000
C        +2.40667000        +0.94223000        +9.38520000
H        +3.31528000        +0.94812000        +8.77966000
H        +2.60207000        +0.38431000       +10.30411000
H        +1.62552000        +0.42594000        +8.82460000
H        +1.77062000        +5.53676000        +7.39646000
H        +0.65136000        +6.25968000        +8.52682000
H        +0.13142000        +4.94143000        +7.50458000
@C        +0.22270000        +1.04488000        +0.58595000
@C        +0.62626000        -0.41353000        +0.99871000
@C        -1.18200000        +1.23223000        +0.04377000
@C        -0.37457000        -1.51643000        +0.72333000
@O        -2.09172000        +0.78832000        +0.93966000
@O        -1.47336000        +1.75939000        -0.99882000
@O        -0.91364000        -1.42792000        -0.50620000
@O        -0.62208000        -2.40877000        +1.49911000
@C        -1.86134000        -2.44741000        -0.86560000
@C        -3.47068000        +0.87492000        +0.53920000
@C        +1.33008000        +1.39974000        -0.43491000
@C        +2.63070000        +1.71700000        +0.32855000
@C        +3.04336000        +0.29351000        +0.80300000
@C        +1.94423000        -0.59299000        +0.15262000
@O        +1.62840000        +0.13663000        -1.04376000
@H        +0.27811000        +1.68786000        +1.46900000
@H        +0.83923000        -0.48042000        +2.06408000
@H        -2.68749000        -2.46677000        -0.15296000
@H        -3.76076000        +1.91522000        +0.38406000
@H        +3.37234000        +2.13782000        -0.35195000
@H        +2.48236000        +2.42488000        +1.14651000
@H        +4.02182000        +0.00994000        +0.41161000
@H        +3.07359000        +0.18738000        +1.88928000
@H        -2.21148000        -2.17765000        -1.85937000
@H        -1.38062000        -3.42697000        -0.88096000
@H        -4.03855000        +0.43623000        +1.35671000
@H        -3.63120000        +0.31700000        -0.38495000
@C        +0.90028000        +2.39077000        -1.49430000
@C        +2.35450000        -2.01267000        -0.16812000
@H        +3.26311000        -2.00678000        -0.77366000
@H        +2.54990000        -2.57059000        +0.75079000
@H        +1.57335000        -2.52896000        -0.72872000
@H        +1.71845000        +2.58186000        -2.15686000
@H        +0.59919000        +3.30478000        -1.02650000
@H        +0.07925000        +1.98653000        -2.04874000
$end

$rem
JOBTYPE                   SP
METHOD                    B3LYP
DFT_D                     d3_op
BASIS                     6-311++G(d,p)
SYMMETRY                  False
THRESH                    12
SCF_CONVERGENCE           8
MAX_SUB_FILE_NUM          128
MEM_STATIC                400
MEM_TOTAL                 4000
$end
--------------------------------------------------------------

             Standard Nuclear Orientation (Angstroms)
    I     Atom           X                Y                Z
 ----------------------------------------------------------------
    1      C       0.2748700000     3.9997800000    10.1392700000
    2      C       0.6784300000     2.5413700000    10.5520300000
    3      C      -1.1298300000     4.1871300000     9.5970900000
    4      C      -0.3224000000     1.4384700000    10.2766500000
    5      O      -2.0395500000     3.7432200000    10.4929800000
    6      O      -1.4211900000     4.7142900000     8.5545000000
    7      O      -0.8614700000     1.5269800000     9.0471200000
    8      O      -0.5699100000     0.5461300000    11.0524300000
    9      C      -1.8091700000     0.5074900000     8.6877200000
   10      C      -3.4185100000     3.8298200000    10.0925200000
   11      C       1.3822500000     4.3546400000     9.1184100000
   12      C       2.6828700000     4.6719000000     9.8818700000
   13      C       3.0955300000     3.2484100000    10.3563200000
   14      C       1.9964000000     2.3619100000     9.7059400000
   15      O       1.6805700000     3.0915300000     8.5095600000
   16      H       0.3302800000     4.6427600000    11.0223200000
   17      H       0.8914000000     2.4744800000    11.6174000000
   18      H      -2.6353200000     0.4881300000     9.4003600000
   19      H      -3.7085900000     4.8701200000     9.9373800000
   20      H       3.4245100000     5.0927200000     9.2013700000
   21      H       2.5345300000     5.3797800000    10.6998300000
   22      H       4.0739900000     2.9648400000     9.9649300000
   23      H       3.1257600000     3.1422800000    11.4426000000
   24      H      -2.1593100000     0.7772500000     7.6939500000
   25      H      -1.3284500000    -0.4720700000     8.6723600000
   26      H      -3.9863800000     3.3911300000    10.9100300000
   27      H      -3.5790300000     3.2719000000     9.1683700000
   28      C       0.9524500000     5.3456700000     8.0590200000
   29      C       2.4066700000     0.9422300000     9.3852000000
   30      H       3.3152800000     0.9481200000     8.7796600000
   31      H       2.6020700000     0.3843100000    10.3041100000
   32      H       1.6255200000     0.4259400000     8.8246000000
   33      H       1.7706200000     5.5367600000     7.3964600000
   34      H       0.6513600000     6.2596800000     8.5268200000
   35      H       0.1314200000     4.9414300000     7.5045800000
   36      GH      0.2227000000     1.0448800000     0.5859500000
   37      GH      0.6262600000    -0.4135300000     0.9987100000
   38      GH     -1.1820000000     1.2322300000     0.0437700000
   39      GH     -0.3745700000    -1.5164300000     0.7233300000
   40      GH     -2.0917200000     0.7883200000     0.9396600000
   41      GH     -1.4733600000     1.7593900000    -0.9988200000
   42      GH     -0.9136400000    -1.4279200000    -0.5062000000
   43      GH     -0.6220800000    -2.4087700000     1.4991100000
   44      GH     -1.8613400000    -2.4474100000    -0.8656000000
   45      GH     -3.4706800000     0.8749200000     0.5392000000
   46      GH      1.3300800000     1.3997400000    -0.4349100000
   47      GH      2.6307000000     1.7170000000     0.3285500000
   48      GH      3.0433600000     0.2935100000     0.8030000000
   49      GH      1.9442300000    -0.5929900000     0.1526200000
   50      GH      1.6284000000     0.1366300000    -1.0437600000
   51      GH      0.2781100000     1.6878600000     1.4690000000
   52      GH      0.8392300000    -0.4804200000     2.0640800000
   53      GH     -2.6874900000    -2.4667700000    -0.1529600000
   54      GH     -3.7607600000     1.9152200000     0.3840600000
   55      GH      3.3723400000     2.1378200000    -0.3519500000
   56      GH      2.4823600000     2.4248800000     1.1465100000
   57      GH      4.0218200000     0.0099400000     0.4116100000
   58      GH      3.0735900000     0.1873800000     1.8892800000
   59      GH     -2.2114800000    -2.1776500000    -1.8593700000
   60      GH     -1.3806200000    -3.4269700000    -0.8809600000
   61      GH     -4.0385500000     0.4362300000     1.3567100000
   62      GH     -3.6312000000     0.3170000000    -0.3849500000
   63      GH      0.9002800000     2.3907700000    -1.4943000000
   64      GH      2.3545000000    -2.0126700000    -0.1681200000
   65      GH      3.2631100000    -2.0067800000    -0.7736600000
   66      GH      2.5499000000    -2.5705900000     0.7507900000
   67      GH      1.5733500000    -2.5289600000    -0.7287200000
   68      GH      1.7184500000     2.5818600000    -2.1568600000
   69      GH      0.5991900000     3.3047800000    -1.0265000000
   70      GH      0.0792500000     1.9865300000    -2.0487400000
 ----------------------------------------------------------------

   14    -844.5166987816      5.79E-09 Convergence criterion met
 Total energy in the final basis set = -844.51669878

                    Orbital Energies (a.u.)
 --------------------------------------------------------------

 Alpha MOs
 -- Occupied --
-19.176 -19.174 -19.125 -19.117 -19.116 -10.311 -10.306 -10.242
-10.232 -10.231 -10.231 -10.204 -10.203 -10.178 -10.175 -10.169
-10.136  -1.121  -1.114  -1.061  -1.034  -1.027  -0.832  -0.804
 -0.784  -0.748  -0.730  -0.720  -0.674  -0.644  -0.603  -0.579
 -0.570  -0.561  -0.525  -0.514  -0.508  -0.493  -0.489  -0.480
 -0.476  -0.471  -0.459  -0.443  -0.435  -0.433  -0.414  -0.411
 -0.403  -0.399  -0.395  -0.374  -0.372  -0.364  -0.358  -0.355
 -0.349  -0.346  -0.333  -0.328  -0.321  -0.313  -0.284  -0.272
 -0.270

          Ground-State Mulliken Net Atomic Charges

     Atom                 Charge (a.u.)
  ----------------------------------------
      1 C                     0.329805
      2 C                     0.752211
      3 C                    -0.759223
      4 C                    -1.060866
      5 O                     0.003023
      6 O                    -0.130506
      7 O                    -0.010347
      8 O                    -0.130959
      9 C                    -0.209389
     10 C                    -0.189063
     11 C                    -0.512426
     12 C                    -0.401704
     13 C                    -0.391086
     14 C                    -0.490088
     15 O                     0.047580
     16 H                     0.271001
     17 H                     0.280686
     18 H                     0.190797
     19 H                     0.171422
     20 H                     0.177600
     21 H                     0.137407
     22 H                     0.173368
     23 H                     0.138773
     24 H                     0.172931
     25 H                     0.173967
     26 H                     0.163742
     27 H                     0.179254
     28 C                    -0.095625
     29 C                     0.008074
     30 H                     0.173265
     31 H                     0.169061
     32 H                     0.182877
     33 H                     0.134208
     34 H                     0.155740
     35 H                     0.194058
     36 GH                   -0.000077
     37 GH                   -0.000105
     38 GH                    0.000040
     39 GH                   -0.000028
     40 GH                   -0.000000
     41 GH                    0.000000
     42 GH                    0.000000
     43 GH                    0.000000
     44 GH                    0.000000
     45 GH                    0.000002
     46 GH                    0.000006
     47 GH                   -0.000075
     48 GH                    0.000000
     49 GH                   -0.000001
     50 GH                    0.000000
     51 GH                    0.000343
     52 GH                    0.000236
     53 GH                   -0.000001
     54 GH                   -0.000001
     55 GH                   -0.000003
     56 GH                   -0.000005
     57 GH                   -0.000005
     58 GH                    0.000091
     59 GH                    0.000000
     60 GH                   -0.000000
     61 GH                    0.000016
     62 GH                   -0.000000
     63 GH                   -0.000001
     64 GH                   -0.000000
     65 GH                    0.000000
     66 GH                   -0.000002
     67 GH                    0.000000
     68 GH                    0.000000
     69 GH                   -0.000002
     70 GH                    0.000000
  ----------------------------------------
  Sum of atomic charges =    -0.000000

                    Cartesian Multipole Moments
 -----------------------------------------------------------------
    Charge (ESU x 10^10)
                -0.0000
    Dipole Moment (Debye)
         X      -0.3335      Y       0.5024      Z       0.9107
       Tot       1.0922
    Quadrupole Moments (Debye-Ang)
        XX     -89.0277     XY       0.8549     YY    -100.5592
        XZ       0.3716     YZ      18.3168     ZZ     -91.0029

 Total job time:  2061.13s(wall), 4096.36s(cpu)
        *  Thank you very much for using Q-Chem.  Have a nice day.  *
