 Q-Chem 5.0, Q-Chem, Inc., Pleasanton, CA (2017)
 Q-Chem 5.0.1 for Intel X86 EM64T Linux

User input:
--------------------------------------------------------------
$molecule
0  1
--
0  1
C        +0.22270000        +1.04488000        +0.58595000
C        +0.62626000        -0.41353000        +0.99871000
C        -1.18200000        +1.23223000        +0.04377000
C        -0.37457000        -1.51643000        +0.72333000
O        -2.09172000        +0.78832000        +0.93966000
O        -1.47336000        +1.75939000        -0.99882000
O        -0.91364000        -1.42792000        -0.50620000
O        -0.62208000        -2.40877000        +1.49911000
C        -1.86134000        -2.44741000        -0.86560000
C        -3.47068000        +0.87492000        +0.53920000
C        +1.33008000        +1.39974000        -0.43491000
C        +2.63070000        +1.71700000        +0.32855000
C        +3.04336000        +0.29351000        +0.80300000
C        +1.94423000        -0.59299000        +0.15262000
O        +1.62840000        +0.13663000        -1.04376000
H        +0.27811000        +1.68786000        +1.46900000
H        +0.83923000        -0.48042000        +2.06408000
H        -2.68749000        -2.46677000        -0.15296000
H        -3.76076000        +1.91522000        +0.38406000
H        +3.37234000        +2.13782000        -0.35195000
H        +2.48236000        +2.42488000        +1.14651000
H        +4.02182000        +0.00994000        +0.41161000
H        +3.07359000        +0.18738000        +1.88928000
H        -2.21148000        -2.17765000        -1.85937000
H        -1.38062000        -3.42697000        -0.88096000
H        -4.03855000        +0.43623000        +1.35671000
H        -3.63120000        +0.31700000        -0.38495000
C        +0.90028000        +2.39077000        -1.49430000
C        +2.35450000        -2.01267000        -0.16812000
H        +3.26311000        -2.00678000        -0.77366000
H        +2.54990000        -2.57059000        +0.75079000
H        +1.57335000        -2.52896000        -0.72872000
H        +1.71845000        +2.58186000        -2.15686000
H        +0.59919000        +3.30478000        -1.02650000
H        +0.07925000        +1.98653000        -2.04874000
--
0  1
C        +0.27487000        +3.99978000       +10.13927000
C        +0.67843000        +2.54137000       +10.55203000
C        -1.12983000        +4.18713000        +9.59709000
C        -0.32240000        +1.43847000       +10.27665000
O        -2.03955000        +3.74322000       +10.49298000
O        -1.42119000        +4.71429000        +8.55450000
O        -0.86147000        +1.52698000        +9.04712000
O        -0.56991000        +0.54613000       +11.05243000
C        -1.80917000        +0.50749000        +8.68772000
C        -3.41851000        +3.82982000       +10.09252000
C        +1.38225000        +4.35464000        +9.11841000
C        +2.68287000        +4.67190000        +9.88187000
C        +3.09553000        +3.24841000       +10.35632000
C        +1.99640000        +2.36191000        +9.70594000
O        +1.68057000        +3.09153000        +8.50956000
H        +0.33028000        +4.64276000       +11.02232000
H        +0.89140000        +2.47448000       +11.61740000
H        -2.63532000        +0.48813000        +9.40036000
H        -3.70859000        +4.87012000        +9.93738000
H        +3.42451000        +5.09272000        +9.20137000
H        +2.53453000        +5.37978000       +10.69983000
H        +4.07399000        +2.96484000        +9.96493000
H        +3.12576000        +3.14228000       +11.44260000
H        -2.15931000        +0.77725000        +7.69395000
H        -1.32845000        -0.47207000        +8.67236000
H        -3.98638000        +3.39113000       +10.91003000
H        -3.57903000        +3.27190000        +9.16837000
C        +0.95245000        +5.34567000        +8.05902000
C        +2.40667000        +0.94223000        +9.38520000
H        +3.31528000        +0.94812000        +8.77966000
H        +2.60207000        +0.38431000       +10.30411000
H        +1.62552000        +0.42594000        +8.82460000
H        +1.77062000        +5.53676000        +7.39646000
H        +0.65136000        +6.25968000        +8.52682000
H        +0.13142000        +4.94143000        +7.50458000
$end

$rem
JOBTYPE                   SP
METHOD                    B3LYP
DFT_D                     d3_op
BASIS                     6-311++G(d,p)
SYMMETRY                  False
THRESH                    12
SCF_CONVERGENCE           8
MAX_SUB_FILE_NUM          128
MEM_STATIC                400
MEM_TOTAL                 4000
$end
--------------------------------------------------------------

             Standard Nuclear Orientation (Angstroms)
    I     Atom           X                Y                Z
 ----------------------------------------------------------------
    1      C      -4.1719551088     0.2439663359     0.8210496915
    2      C      -4.2213445421     0.3880724091    -0.7400349772
    3      C      -4.6393066066    -1.0805364176     1.3950847936
    4      C      -4.8257971581    -0.7571947490    -1.5254542378
    5      O      -3.9267965520    -2.0981863086     0.8621836957
    6      O      -5.4731074236    -1.2254842344     2.2515592831
    7      O      -5.9728549901    -1.2050485588    -0.9833658677
    8      O      -4.3605985529    -1.1860588906    -2.5545471830
    9      C      -6.6315739346    -2.2800079928    -1.6741734223
   10      C      -4.2897627849    -3.4212498802     1.2947998679
   11      C      -5.0294909490     1.4494809126     1.2746333239
   12      C      -4.1981042270     2.7385626567     1.1256305083
   13      C      -4.1780406574     2.8936639588    -0.4226769216
   14      C      -5.0741868537     1.7068982075    -0.8759673338
   15      O      -5.9928384540     1.5785124378     0.2208532391
   16      H      -3.1345645235     0.3501742849     1.1509155674
   17      H      -3.2259214003     0.5271563041    -1.1579251168
   18      H      -5.9636050743    -3.1378389306    -1.7674369488
   19      H      -4.1218985764    -3.5341108054     2.3669579416
   20      H      -4.7135096379     3.5746770587     1.6004668814
   21      H      -3.2040896122     2.6578450751     1.5701268852
   22      H      -4.6315820872     3.8356117902    -0.7357527959
   23      H      -3.1757336931     2.8452168763    -0.8530433906
   24      H      -7.4977307261    -2.5263244620    -1.0642161290
   25      H      -6.9421781742    -1.9599650631    -2.6701468010
   26      H      -3.6483193895    -4.0966355845     0.7329703794
   27      H      -5.3409611908    -3.6153152586     1.0747654169
   28      C      -5.7386135275     1.2422794701     2.5950076662
   29      C      -5.8102615230     1.9052535531    -2.1819291100
   30      H      -6.3798649447     2.8361857255    -2.1472484519
   31      H      -5.1041844860     1.9577434273    -3.0141259050
   32      H      -6.5061457557     1.0853560875    -2.3677686298
   33      H      -6.3065578120     2.1165353741     2.8358794053
   34      H      -5.0160850886     1.0633570774     3.3636725740
   35      H      -6.3946874709     0.4004181258     2.5192421733
   36      C       5.8275497321     0.2214264366     0.7237171148
   37      C       5.7781602988     0.3655325099    -0.8373675539
   38      C       5.3601982344    -1.1030763169     1.2977522169
   39      C       5.1737076829    -0.7797346483    -1.6227868145
   40      O       6.0727082890    -2.1207262078     0.7648511190
   41      O       4.5263974173    -1.2480241337     2.1542267064
   42      O       4.0266498508    -1.2275884580    -1.0806984445
   43      O       5.6389062880    -1.2085987898    -2.6518797597
   44      C       3.3679309063    -2.3025478921    -1.7715059990
   45      C       5.7097420561    -3.4437897794     1.1974672912
   46      C       4.9700138919     1.4269410134     1.1773007472
   47      C       5.8014006139     2.7160227575     1.0282979316
   48      C       5.8214641835     2.8711240595    -0.5200094983
   49      C       4.9253179872     1.6843583083    -0.9732999105
   50      O       4.0066663869     1.5559725385     0.1235206624
   51      H       6.8649403175     0.3276343856     1.0535829907
   52      H       6.7735834406     0.5046164048    -1.2552576935
   53      H       4.0358997667    -3.1603788299    -1.8647695256
   54      H       5.8776062646    -3.5566507046     2.2696253649
   55      H       5.2859952030     3.5521371595     1.5031343047
   56      H       6.7954152287     2.6353051758     1.4727943085
   57      H       5.3679227538     3.8130718909    -0.8330853726
   58      H       6.8237711478     2.8226769771    -0.9503759673
   59      H       2.5017741148    -2.5488643612    -1.1615487057
   60      H       3.0573266668    -1.9825049624    -2.7674793777
   61      H       6.3511854514    -4.1191754837     0.6356378027
   62      H       4.6585436502    -3.6378551578     0.9774328402
   63      C       4.2608913134     1.2197395709     2.4976750895
   64      C       4.1892433180     1.8827136538    -2.2792616867
   65      H       3.6196398963     2.8136458263    -2.2445810286
   66      H       4.8953203549     1.9352035280    -3.1114584817
   67      H       3.4933590852     1.0628161882    -2.4651012066
   68      H       3.6929470289     2.0939954748     2.7385468286
   69      H       4.9834197524     1.0408171781     3.2663399973
   70      H       3.6048173701     0.3778782265     2.4219095966
 ----------------------------------------------------------------

   14   -1689.0336948243      8.43E-09 Convergence criterion met
 Total energy in the final basis set = -1689.03369482

                    Orbital Energies (a.u.)
 --------------------------------------------------------------

 Alpha MOs
 -- Occupied --
-19.177 -19.174 -19.174 -19.173 -19.126 -19.123 -19.118 -19.116
-19.115 -19.115 -10.312 -10.309 -10.306 -10.305 -10.243 -10.241
-10.233 -10.232 -10.231 -10.231 -10.230 -10.229 -10.205 -10.204
-10.202 -10.202 -10.179 -10.176 -10.176 -10.173 -10.169 -10.167
-10.138 -10.134  -1.122  -1.120  -1.114  -1.113  -1.062  -1.059
 -1.035  -1.032  -1.028  -1.026  -0.833  -0.830  -0.805  -0.802
 -0.785  -0.782  -0.748  -0.747  -0.731  -0.729  -0.722  -0.719
 -0.675  -0.673  -0.645  -0.643  -0.604  -0.602  -0.580  -0.578
 -0.570  -0.569  -0.562  -0.560  -0.526  -0.523  -0.515  -0.513
 -0.509  -0.506  -0.494  -0.492  -0.490  -0.488  -0.480  -0.478
 -0.476  -0.475  -0.472  -0.470  -0.460  -0.457  -0.443  -0.441
 -0.436  -0.434  -0.433  -0.432  -0.415  -0.412  -0.412  -0.410
 -0.404  -0.401  -0.400  -0.398  -0.396  -0.394  -0.375  -0.373
 -0.372  -0.371  -0.365  -0.363  -0.359  -0.356  -0.356  -0.353
 -0.351  -0.348  -0.347  -0.344  -0.335  -0.332  -0.330  -0.327
 -0.322  -0.320  -0.314  -0.312  -0.285  -0.283  -0.273  -0.271
 -0.271  -0.269

          Ground-State Mulliken Net Atomic Charges

     Atom                 Charge (a.u.)
  ----------------------------------------
      1 C                     0.293810
      2 C                     0.706072
      3 C                    -0.726036
      4 C                    -1.096801
      5 O                     0.006529
      6 O                    -0.142033
      7 O                    -0.016441
      8 O                    -0.128482
      9 C                    -0.207196
     10 C                    -0.194176
     11 C                    -0.500296
     12 C                    -0.447294
     13 C                    -0.425583
     14 C                    -0.425515
     15 O                     0.035517
     16 H                     0.310929
     17 H                     0.334367
     18 H                     0.191386
     19 H                     0.173214
     20 H                     0.178751
     21 H                     0.133288
     22 H                     0.175011
     23 H                     0.133235
     24 H                     0.172655
     25 H                     0.175342
     26 H                     0.158771
     27 H                     0.181589
     28 C                    -0.079140
     29 C                     0.021335
     30 H                     0.175564
     31 H                     0.166379
     32 H                     0.178275
     33 H                     0.136851
     34 H                     0.155665
     35 H                     0.194724
     36 C                     0.344937
     37 C                     0.751443
     38 C                    -0.769505
     39 C                    -1.060193
     40 O                     0.002998
     41 O                    -0.130863
     42 O                    -0.011141
     43 O                    -0.130093
     44 C                    -0.208750
     45 C                    -0.189392
     46 C                    -0.515773
     47 C                    -0.401380
     48 C                    -0.390564
     49 C                    -0.492165
     50 O                     0.045490
     51 H                     0.271202
     52 H                     0.280627
     53 H                     0.190738
     54 H                     0.171313
     55 H                     0.177140
     56 H                     0.137565
     57 H                     0.173027
     58 H                     0.139170
     59 H                     0.173291
     60 H                     0.175656
     61 H                     0.164157
     62 H                     0.179065
     63 C                    -0.091012
     64 C                     0.002935
     65 H                     0.172375
     66 H                     0.169499
     67 H                     0.184195
     68 H                     0.133759
     69 H                     0.156433
     70 H                     0.193553
  ----------------------------------------
  Sum of atomic charges =     0.000000

                    Cartesian Multipole Moments
 -----------------------------------------------------------------
    Charge (ESU x 10^10)
                 0.0000
    Dipole Moment (Debye)
         X       2.1215      Y      -0.5936      Z       0.5059
       Tot       2.2603
    Quadrupole Moments (Debye-Ang)
        XX    -203.6738     XY      10.8543     YY    -178.8600
        XZ      18.4876     YZ      -5.9253     ZZ    -219.7101

 Total job time:  2335.34s(wall), 4643.06s(cpu)
        *  Thank you very much for using Q-Chem.  Have a nice day.  *
