 Q-Chem 5.0, Q-Chem, Inc., Pleasanton, CA (2017)
 Q-Chem 5.0.1 for Intel X86 EM64T Linux

User input:
--------------------------------------------------------------
$molecule
0  1
--
0  1
C        -0.54444000        -0.68370000        -0.06689000
C        -0.55709000        +0.71878000        +0.05493000
C        +0.74969000        -1.43776000        -0.09374000
C        +0.72843000        +1.48436000        +0.06598000
O        +1.53645000        -1.09176000        +0.94813000
O        +1.04702000        -2.28405000        -0.90088000
O        +1.53784000        +1.08301000        -0.93877000
O        +1.01035000        +2.37097000        +0.83478000
C        +2.83449000        +1.70121000        -0.99358000
C        +2.82316000        -1.73208000        +1.00475000
C        -1.74320000        -1.41616000        -0.12552000
C        -2.93952000        -0.70056000        -0.05285000
C        -2.95313000        +0.68255000        +0.06934000
C        -1.77161000        +1.42404000        +0.12810000
H        +2.73835000        +2.77989000        -1.12464000
H        +2.70778000        -2.81319000        +1.09555000
H        -3.90354000        +1.20325000        +0.11710000
H        +3.38998000        +1.50093000        -0.07544000
H        +3.33184000        +1.25269000        -1.85067000
H        +3.31095000        -1.32281000        +1.88650000
H        +3.39889000        -1.50934000        +0.10459000
H        -3.87892000        -1.24211000        -0.08988000
C        -1.83960000        +2.92746000        +0.24839000
H        -1.24214000        +3.42352000        -0.52065000
H        -1.45503000        +3.26427000        +1.21284000
H        -2.87211000        +3.26623000        +0.14638000
H        -1.73878000        -2.44393000        -0.21875000
--
0  1
C        -0.47562000        -1.55562000        +9.89479000
C        -0.48827000        -0.15314000       +10.01661000
C        +0.81851000        -2.30968000        +9.86794000
C        +0.79725000        +0.61244000       +10.02766000
O        +1.60527000        -1.96368000       +10.90981000
O        +1.11584000        -3.15597000        +9.06080000
O        +1.60666000        +0.21109000        +9.02291000
O        +1.07917000        +1.49905000       +10.79646000
C        +2.90331000        +0.82929000        +8.96810000
C        +2.89198000        -2.60400000       +10.96643000
C        -1.67438000        -2.28808000        +9.83616000
C        -2.87070000        -1.57248000        +9.90883000
C        -2.88431000        -0.18937000       +10.03102000
C        -1.70279000        +0.55212000       +10.08978000
H        +2.80717000        +1.90797000        +8.83704000
H        +2.77660000        -3.68511000       +11.05723000
H        -3.83472000        +0.33133000       +10.07878000
H        +3.45880000        +0.62901000        +9.88624000
H        +3.40066000        +0.38077000        +8.11101000
H        +3.37977000        -2.19473000       +11.84818000
H        +3.46771000        -2.38126000       +10.06627000
H        -3.81010000        -2.11403000        +9.87180000
C        -1.77078000        +2.05554000       +10.21007000
H        -1.17332000        +2.55160000        +9.44103000
H        -1.38621000        +2.39235000       +11.17452000
H        -2.80329000        +2.39431000       +10.10806000
H        -1.66996000        -3.31585000        +9.74293000
$end

$rem
JOBTYPE                   SP
METHOD                    B3LYP
DFT_D                     d3_op
BASIS                     6-311++G(d,p)
SYMMETRY                  False
THRESH                    12
SCF_CONVERGENCE           8
MAX_SUB_FILE_NUM          128
MEM_STATIC                400
MEM_TOTAL                 4000
$end
--------------------------------------------------------------

             Standard Nuclear Orientation (Angstroms)
    I     Atom           X                Y                Z
 ----------------------------------------------------------------
    1      C      -4.9965377688     0.2775313845     1.1469679106
    2      C      -5.0129253531     0.7838115385    -0.1665624994
    3      C      -4.9391223971    -1.1982865451     1.3974969047
    4      C      -5.0668665860    -0.1521369144    -1.3327045774
    5      O      -3.9300322171    -1.7706024341     0.7058380825
    6      O      -5.6570237899    -1.8056684572     2.1536659834
    7      O      -6.0210121051    -1.0919519034    -1.1535313429
    8      O      -4.3865083703    -0.0745957693    -2.3265404228
    9      C      -6.1259551957    -2.0924959726    -2.1803590363
   10      C      -3.8007626659    -3.1962996646     0.8455339710
   11      C      -4.9925096325     1.1418207922     2.2559982348
   12      C      -4.9997853986     2.5145624796     2.0028714799
   13      C      -5.0139130593     3.0149983929     0.7076984389
   14      C      -5.0188330903     2.1700055881    -0.4037027584
   15      H      -6.3629047053    -1.6315975523    -3.1402536876
   16      H      -3.6053063590    -3.4616987752     1.8855898159
   17      H      -5.0249298062     4.0884691751     0.5520456627
   18      H      -5.1882530050    -2.6440677827    -2.2706110058
   19      H      -6.9309906773    -2.7504407679    -1.8607389481
   20      H      -2.9595755252    -3.4733291059     0.2141996994
   21      H      -4.7138605590    -3.6952130744     0.5158313577
   22      H      -4.9909375804     3.2035473068     2.8409297162
   23      C      -5.0470767701     2.7632517830    -1.7917320331
   24      H      -5.8563191543     2.3448393860    -2.3954822516
   25      H      -4.1172991685     2.5610330352    -2.3266339429
   26      H      -5.1899453207     3.8438491772    -1.7356436912
   27      H      -4.9844769216     0.7751823949     3.2206402946
   28      C       5.0028647429     0.3251931649     1.0483430446
   29      C       4.9864771586     0.8314733190    -0.2651873654
   30      C       5.0602801147    -1.1506247647     1.2988720386
   31      C       4.9325359257    -0.1044751340    -1.4313294435
   32      O       6.0693702946    -1.7229406537     0.6072132165
   33      O       4.3423787218    -1.7580066768     2.0550411174
   34      O       3.9783904067    -1.0442901230    -1.2521562090
   35      O       5.6128941414    -0.0269339889    -2.4251652889
   36      C       3.8734473161    -2.0448341922    -2.2789839023
   37      C       6.1986398458    -3.1486378841     0.7469091049
   38      C       5.0068928793     1.1894825726     2.1573733688
   39      C       4.9996171132     2.5622242600     1.9042466138
   40      C       4.9854894524     3.0626601733     0.6090735728
   41      C       4.9805694214     2.2176673685    -0.5023276245
   42      H       3.6364978064    -1.5839357719    -3.2388785536
   43      H       6.3940961527    -3.4140369948     1.7869649499
   44      H       4.9744727055     4.1361309555     0.4534207967
   45      H       4.8111495067    -2.5964060023    -2.3692358719
   46      H       3.0684118344    -2.7027789875    -1.9593638142
   47      H       7.0398269866    -3.4256673255     0.1155748334
   48      H       5.2855419527    -3.6475512940     0.4172064916
   49      H       5.0084649313     3.2512090872     2.7423048501
   50      C       4.9523257417     2.8109135634    -1.8903568992
   51      H       4.1430833574     2.3925011664    -2.4941071177
   52      H       5.8821033432     2.6086948156    -2.4252588090
   53      H       4.8094571910     3.8915109576    -1.8342685573
   54      H       5.0149255901     0.8228441753     3.1220154285
 ----------------------------------------------------------------

   14   -1455.0869567025      7.86E-09 Convergence criterion met
 Total energy in the final basis set = -1455.08695670

                    Orbital Energies (a.u.)
 --------------------------------------------------------------

 Alpha MOs
 -- Occupied --
-19.177 -19.177 -19.176 -19.175 -19.121 -19.120 -19.119 -19.118
-10.312 -10.312 -10.311 -10.310 -10.232 -10.232 -10.232 -10.230
-10.210 -10.210 -10.207 -10.207 -10.206 -10.206 -10.193 -10.192
-10.190 -10.190 -10.189 -10.189 -10.173 -10.173  -1.121  -1.121
 -1.115  -1.114  -1.032  -1.032  -1.030  -1.029  -0.885  -0.885
 -0.800  -0.800  -0.794  -0.794  -0.746  -0.746  -0.731  -0.730
 -0.703  -0.703  -0.654  -0.654  -0.626  -0.626  -0.580  -0.580
 -0.575  -0.574  -0.549  -0.549  -0.520  -0.520  -0.513  -0.513
 -0.491  -0.491  -0.489  -0.489  -0.482  -0.481  -0.477  -0.477
 -0.472  -0.471  -0.446  -0.446  -0.434  -0.434  -0.431  -0.431
 -0.428  -0.428  -0.412  -0.411  -0.406  -0.406  -0.395  -0.395
 -0.383  -0.383  -0.377  -0.377  -0.370  -0.370  -0.364  -0.363
 -0.363  -0.363  -0.322  -0.321  -0.313  -0.313  -0.296  -0.296
 -0.294  -0.293  -0.268  -0.268  -0.263  -0.263

          Ground-State Mulliken Net Atomic Charges

     Atom                 Charge (a.u.)
  ----------------------------------------
      1 C                     0.463727
      2 C                     1.268723
      3 C                    -0.603763
      4 C                    -0.649990
      5 O                     0.035090
      6 O                    -0.194452
      7 O                     0.037115
      8 O                    -0.180762
      9 C                    -0.232291
     10 C                    -0.231288
     11 C                    -0.666085
     12 C                    -0.065658
     13 C                    -0.594383
     14 C                     0.216881
     15 H                     0.170925
     16 H                     0.176268
     17 H                     0.122567
     18 H                     0.178252
     19 H                     0.168503
     20 H                     0.161674
     21 H                     0.173281
     22 H                     0.182484
     23 C                    -0.618923
     24 H                     0.175312
     25 H                     0.201174
     26 H                     0.144045
     27 H                     0.161579
     28 C                     0.461512
     29 C                     1.267922
     30 C                    -0.584422
     31 C                    -0.670324
     32 O                     0.033606
     33 O                    -0.193881
     34 O                     0.038131
     35 O                    -0.180359
     36 C                    -0.228727
     37 C                    -0.235200
     38 C                    -0.658716
     39 C                    -0.067753
     40 C                    -0.592494
     41 C                     0.215456
     42 H                     0.172756
     43 H                     0.174471
     44 H                     0.123160
     45 H                     0.178126
     46 H                     0.162466
     47 H                     0.166711
     48 H                     0.173666
     49 H                     0.182062
     50 C                    -0.621300
     51 H                     0.176233
     52 H                     0.202420
     53 H                     0.143393
     54 H                     0.161078
  ----------------------------------------
  Sum of atomic charges =     0.000000

                    Cartesian Multipole Moments
 -----------------------------------------------------------------
    Charge (ESU x 10^10)
                 0.0000
    Dipole Moment (Debye)
         X       0.2959      Y       0.3318      Z      -0.9092
       Tot       1.0121
    Quadrupole Moments (Debye-Ang)
        XX    -183.4385     XY      -6.9209     YY    -142.4201
        XZ      17.4385     YZ      14.0948     ZZ    -178.7581

 Total job time:  1000.70s(wall), 1989.11s(cpu)
        *  Thank you very much for using Q-Chem.  Have a nice day.  *
