 Q-Chem 5.0, Q-Chem, Inc., Pleasanton, CA (2017)
 Q-Chem 5.0.1 for Intel X86 EM64T Linux

User input:
--------------------------------------------------------------
$molecule
0  1
C        -0.54444000        -0.68370000        -0.06689000
C        -0.55709000        +0.71878000        +0.05493000
C        +0.74969000        -1.43776000        -0.09374000
C        +0.72843000        +1.48436000        +0.06598000
O        +1.53645000        -1.09176000        +0.94813000
O        +1.04702000        -2.28405000        -0.90088000
O        +1.53784000        +1.08301000        -0.93877000
O        +1.01035000        +2.37097000        +0.83478000
C        +2.83449000        +1.70121000        -0.99358000
C        +2.82316000        -1.73208000        +1.00475000
C        -1.74320000        -1.41616000        -0.12552000
C        -2.93952000        -0.70056000        -0.05285000
C        -2.95313000        +0.68255000        +0.06934000
C        -1.77161000        +1.42404000        +0.12810000
H        +2.73835000        +2.77989000        -1.12464000
H        +2.70778000        -2.81319000        +1.09555000
H        -3.90354000        +1.20325000        +0.11710000
H        +3.38998000        +1.50093000        -0.07544000
H        +3.33184000        +1.25269000        -1.85067000
H        +3.31095000        -1.32281000        +1.88650000
H        +3.39889000        -1.50934000        +0.10459000
H        -3.87892000        -1.24211000        -0.08988000
C        -1.83960000        +2.92746000        +0.24839000
H        -1.24214000        +3.42352000        -0.52065000
H        -1.45503000        +3.26427000        +1.21284000
H        -2.87211000        +3.26623000        +0.14638000
H        -1.73878000        -2.44393000        -0.21875000
@C        -0.47562000        -1.55562000        +9.89479000
@C        -0.48827000        -0.15314000       +10.01661000
@C        +0.81851000        -2.30968000        +9.86794000
@C        +0.79725000        +0.61244000       +10.02766000
@O        +1.60527000        -1.96368000       +10.90981000
@O        +1.11584000        -3.15597000        +9.06080000
@O        +1.60666000        +0.21109000        +9.02291000
@O        +1.07917000        +1.49905000       +10.79646000
@C        +2.90331000        +0.82929000        +8.96810000
@C        +2.89198000        -2.60400000       +10.96643000
@C        -1.67438000        -2.28808000        +9.83616000
@C        -2.87070000        -1.57248000        +9.90883000
@C        -2.88431000        -0.18937000       +10.03102000
@C        -1.70279000        +0.55212000       +10.08978000
@H        +2.80717000        +1.90797000        +8.83704000
@H        +2.77660000        -3.68511000       +11.05723000
@H        -3.83472000        +0.33133000       +10.07878000
@H        +3.45880000        +0.62901000        +9.88624000
@H        +3.40066000        +0.38077000        +8.11101000
@H        +3.37977000        -2.19473000       +11.84818000
@H        +3.46771000        -2.38126000       +10.06627000
@H        -3.81010000        -2.11403000        +9.87180000
@C        -1.77078000        +2.05554000       +10.21007000
@H        -1.17332000        +2.55160000        +9.44103000
@H        -1.38621000        +2.39235000       +11.17452000
@H        -2.80329000        +2.39431000       +10.10806000
@H        -1.66996000        -3.31585000        +9.74293000
$end

$rem
JOBTYPE                   SP
METHOD                    B3LYP
DFT_D                     d3_op
BASIS                     6-311++G(d,p)
SYMMETRY                  False
THRESH                    12
SCF_CONVERGENCE           8
MAX_SUB_FILE_NUM          128
MEM_STATIC                400
MEM_TOTAL                 4000
$end
--------------------------------------------------------------

             Standard Nuclear Orientation (Angstroms)
    I     Atom           X                Y                Z
 ----------------------------------------------------------------
    1      C      -0.5444400000    -0.6837000000    -0.0668900000
    2      C      -0.5570900000     0.7187800000     0.0549300000
    3      C       0.7496900000    -1.4377600000    -0.0937400000
    4      C       0.7284300000     1.4843600000     0.0659800000
    5      O       1.5364500000    -1.0917600000     0.9481300000
    6      O       1.0470200000    -2.2840500000    -0.9008800000
    7      O       1.5378400000     1.0830100000    -0.9387700000
    8      O       1.0103500000     2.3709700000     0.8347800000
    9      C       2.8344900000     1.7012100000    -0.9935800000
   10      C       2.8231600000    -1.7320800000     1.0047500000
   11      C      -1.7432000000    -1.4161600000    -0.1255200000
   12      C      -2.9395200000    -0.7005600000    -0.0528500000
   13      C      -2.9531300000     0.6825500000     0.0693400000
   14      C      -1.7716100000     1.4240400000     0.1281000000
   15      H       2.7383500000     2.7798900000    -1.1246400000
   16      H       2.7077800000    -2.8131900000     1.0955500000
   17      H      -3.9035400000     1.2032500000     0.1171000000
   18      H       3.3899800000     1.5009300000    -0.0754400000
   19      H       3.3318400000     1.2526900000    -1.8506700000
   20      H       3.3109500000    -1.3228100000     1.8865000000
   21      H       3.3988900000    -1.5093400000     0.1045900000
   22      H      -3.8789200000    -1.2421100000    -0.0898800000
   23      C      -1.8396000000     2.9274600000     0.2483900000
   24      H      -1.2421400000     3.4235200000    -0.5206500000
   25      H      -1.4550300000     3.2642700000     1.2128400000
   26      H      -2.8721100000     3.2662300000     0.1463800000
   27      H      -1.7387800000    -2.4439300000    -0.2187500000
   28      GH     -0.4756200000    -1.5556200000     9.8947900000
   29      GH     -0.4882700000    -0.1531400000    10.0166100000
   30      GH      0.8185100000    -2.3096800000     9.8679400000
   31      GH      0.7972500000     0.6124400000    10.0276600000
   32      GH      1.6052700000    -1.9636800000    10.9098100000
   33      GH      1.1158400000    -3.1559700000     9.0608000000
   34      GH      1.6066600000     0.2110900000     9.0229100000
   35      GH      1.0791700000     1.4990500000    10.7964600000
   36      GH      2.9033100000     0.8292900000     8.9681000000
   37      GH      2.8919800000    -2.6040000000    10.9664300000
   38      GH     -1.6743800000    -2.2880800000     9.8361600000
   39      GH     -2.8707000000    -1.5724800000     9.9088300000
   40      GH     -2.8843100000    -0.1893700000    10.0310200000
   41      GH     -1.7027900000     0.5521200000    10.0897800000
   42      GH      2.8071700000     1.9079700000     8.8370400000
   43      GH      2.7766000000    -3.6851100000    11.0572300000
   44      GH     -3.8347200000     0.3313300000    10.0787800000
   45      GH      3.4588000000     0.6290100000     9.8862400000
   46      GH      3.4006600000     0.3807700000     8.1110100000
   47      GH      3.3797700000    -2.1947300000    11.8481800000
   48      GH      3.4677100000    -2.3812600000    10.0662700000
   49      GH     -3.8101000000    -2.1140300000     9.8718000000
   50      GH     -1.7707800000     2.0555400000    10.2100700000
   51      GH     -1.1733200000     2.5516000000     9.4410300000
   52      GH     -1.3862100000     2.3923500000    11.1745200000
   53      GH     -2.8032900000     2.3943100000    10.1080600000
   54      GH     -1.6699600000    -3.3158500000     9.7429300000
 ----------------------------------------------------------------

   14    -727.5436089552      5.49E-09 Convergence criterion met
 Total energy in the final basis set = -727.54360896

                    Orbital Energies (a.u.)
 --------------------------------------------------------------

 Alpha MOs
 -- Occupied --
-19.178 -19.177 -19.121 -19.119 -10.313 -10.312 -10.233 -10.232
-10.211 -10.208 -10.207 -10.193 -10.191 -10.190 -10.174  -1.122
 -1.115  -1.033  -1.030  -0.886  -0.801  -0.795  -0.747  -0.731
 -0.704  -0.655  -0.627  -0.581  -0.575  -0.550  -0.521  -0.514
 -0.492  -0.490  -0.483  -0.478  -0.472  -0.447  -0.435  -0.432
 -0.429  -0.412  -0.407  -0.396  -0.384  -0.378  -0.371  -0.365
 -0.364  -0.322  -0.314  -0.296  -0.294  -0.269  -0.264

          Ground-State Mulliken Net Atomic Charges

     Atom                 Charge (a.u.)
  ----------------------------------------
      1 C                     0.469753
      2 C                     1.266933
      3 C                    -0.604648
      4 C                    -0.645944
      5 O                     0.034332
      6 O                    -0.193450
      7 O                     0.037593
      8 O                    -0.179048
      9 C                    -0.231606
     10 C                    -0.231930
     11 C                    -0.675692
     12 C                    -0.061081
     13 C                    -0.601296
     14 C                     0.217182
     15 H                     0.171060
     16 H                     0.175146
     17 H                     0.122730
     18 H                     0.178504
     19 H                     0.168470
     20 H                     0.162180
     21 H                     0.174180
     22 H                     0.182953
     23 C                    -0.618550
     24 H                     0.175512
     25 H                     0.201391
     26 H                     0.144143
     27 H                     0.161112
     28 GH                   -0.000002
     29 GH                   -0.000004
     30 GH                   -0.000002
     31 GH                    0.000006
     32 GH                    0.000000
     33 GH                   -0.000000
     34 GH                   -0.000001
     35 GH                    0.000000
     36 GH                   -0.000017
     37 GH                    0.000001
     38 GH                   -0.000001
     39 GH                    0.000001
     40 GH                   -0.000001
     41 GH                   -0.000000
     42 GH                    0.000002
     43 GH                    0.000000
     44 GH                   -0.000000
     45 GH                   -0.000000
     46 GH                    0.000086
     47 GH                    0.000000
     48 GH                   -0.000002
     49 GH                    0.000000
     50 GH                   -0.000001
     51 GH                    0.000002
     52 GH                    0.000000
     53 GH                   -0.000000
     54 GH                    0.000001
  ----------------------------------------
  Sum of atomic charges =     0.000000

                    Cartesian Multipole Moments
 -----------------------------------------------------------------
    Charge (ESU x 10^10)
                 0.0000
    Dipole Moment (Debye)
         X       0.0071      Y       0.4774      Z       0.1956
       Tot       0.5160
    Quadrupole Moments (Debye-Ang)
        XX     -68.7132     XY      -0.6935     YY     -89.6776
        XZ      -0.0548     YZ      -9.3243     ZZ     -93.3027

 Total job time:  883.14s(wall), 1726.59s(cpu)
        *  Thank you very much for using Q-Chem.  Have a nice day.  *
