 Q-Chem 5.0, Q-Chem, Inc., Pleasanton, CA (2017)
 Q-Chem 5.0.1 for Intel X86 EM64T Linux

User input:
--------------------------------------------------------------
$molecule
0  1
--
0  1
C        -0.54444000        -0.68370000        -0.06689000
C        -0.55709000        +0.71878000        +0.05493000
C        +0.74969000        -1.43776000        -0.09374000
C        +0.72843000        +1.48436000        +0.06598000
O        +1.53645000        -1.09176000        +0.94813000
O        +1.04702000        -2.28405000        -0.90088000
O        +1.53784000        +1.08301000        -0.93877000
O        +1.01035000        +2.37097000        +0.83478000
C        +2.83449000        +1.70121000        -0.99358000
C        +2.82316000        -1.73208000        +1.00475000
C        -1.74320000        -1.41616000        -0.12552000
C        -2.93952000        -0.70056000        -0.05285000
C        -2.95313000        +0.68255000        +0.06934000
C        -1.77161000        +1.42404000        +0.12810000
H        +2.73835000        +2.77989000        -1.12464000
H        +2.70778000        -2.81319000        +1.09555000
H        -3.90354000        +1.20325000        +0.11710000
H        +3.38998000        +1.50093000        -0.07544000
H        +3.33184000        +1.25269000        -1.85067000
H        +3.31095000        -1.32281000        +1.88650000
H        +3.39889000        -1.50934000        +0.10459000
H        -3.87892000        -1.24211000        -0.08988000
C        -1.83960000        +2.92746000        +0.24839000
C        -1.78103000        -2.92226000        -0.24590000
H        -1.39752000        -3.25223000        -1.21323000
H        -2.80572000        -3.28175000        -0.13627000
H        -1.16958000        -3.40777000        +0.51926000
H        -1.24214000        +3.42352000        -0.52065000
H        -1.45503000        +3.26427000        +1.21284000
H        -2.87211000        +3.26623000        +0.14638000
--
0  1
C        -0.47562000        -1.55562000        +9.89479000
C        -0.48827000        -0.15314000       +10.01661000
C        +0.81851000        -2.30968000        +9.86794000
C        +0.79725000        +0.61244000       +10.02766000
O        +1.60527000        -1.96368000       +10.90981000
O        +1.11584000        -3.15597000        +9.06080000
O        +1.60666000        +0.21109000        +9.02291000
O        +1.07917000        +1.49905000       +10.79646000
C        +2.90331000        +0.82929000        +8.96810000
C        +2.89198000        -2.60400000       +10.96643000
C        -1.67438000        -2.28808000        +9.83616000
C        -2.87070000        -1.57248000        +9.90883000
C        -2.88431000        -0.18937000       +10.03102000
C        -1.70279000        +0.55212000       +10.08978000
H        +2.80717000        +1.90797000        +8.83704000
H        +2.77660000        -3.68511000       +11.05723000
H        -3.83472000        +0.33133000       +10.07878000
H        +3.45880000        +0.62901000        +9.88624000
H        +3.40066000        +0.38077000        +8.11101000
H        +3.37977000        -2.19473000       +11.84818000
H        +3.46771000        -2.38126000       +10.06627000
H        -3.81010000        -2.11403000        +9.87180000
C        -1.77078000        +2.05554000       +10.21007000
C        -1.71221000        -3.79418000        +9.71578000
H        -1.32870000        -4.12415000        +8.74845000
H        -2.73690000        -4.15367000        +9.82541000
H        -1.10076000        -4.27969000       +10.48094000
H        -1.17332000        +2.55160000        +9.44103000
H        -1.38621000        +2.39235000       +11.17452000
H        -2.80329000        +2.39431000       +10.10806000
$end

$rem
JOBTYPE                   SP
METHOD                    B3LYP
DFT_D                     d3_op
BASIS                     6-311++G(d,p)
SYMMETRY                  False
THRESH                    12
SCF_CONVERGENCE           8
MAX_SUB_FILE_NUM          128
MEM_STATIC                400
MEM_TOTAL                 4000
$end
--------------------------------------------------------------

             Standard Nuclear Orientation (Angstroms)
    I     Atom           X                Y                Z
 ----------------------------------------------------------------
    1      C      -4.9994360808     0.5038049703     0.7664217298
    2      C      -5.0151699186     0.5736362212    -0.6395748306
    3      C      -4.9427646936    -0.8195203530     1.4662062008
    4      C      -5.0691528098    -0.6801992203    -1.4543011912
    5      O      -3.9337070994    -1.5798554398     0.9888240456
    6      O      -5.6611841736    -1.1595464452     2.3741393370
    7      O      -6.0237783272    -1.5164397653    -0.9904684567
    8      O      -4.3884372444    -0.9177634194    -2.4221850627
    9      C      -6.1288372987    -2.7880161187    -1.6526865389
   10      C      -3.8051230587    -2.8902822730     1.5676900146
   11      C      -4.9953799128     1.6717249609     1.5493055712
   12      C      -5.0019571401     2.8963213802     0.8793308095
   13      C      -5.0154396384     2.9663455261    -0.5074005061
   14      C      -5.0203782670     1.8160114563    -1.2985748269
   15      H      -6.3652682086    -2.6505564955    -2.7087052142
   16      H      -3.6101235893    -2.8169631675     2.6386501129
   17      H      -5.0259238628     3.9372031843    -0.9911506111
   18      H      -5.1913536091    -3.3404340389    -1.5653879062
   19      H      -6.9342718361    -3.3126420074    -1.1435958161
   20      H      -2.9638554778    -3.3512290264     1.0551268210
   21      H      -4.7183377900    -3.4670137196     1.4102547607
   22      H      -4.9930720348     3.8129467342     1.4597091332
   23      C      -5.0479049654     1.9451330275    -2.8025475399
   24      C      -4.9684826558     1.6482249749     3.0602602203
   25      H      -5.8960596484     1.2407890995     3.4668120376
   26      H      -4.8320557016     2.6589967614     3.4488081258
   27      H      -4.1549838671     1.0267886552     3.4437931518
   28      H      -5.8571390921     1.3590713528    -3.2454113319
   29      H      -4.1180446529     1.5853866994    -3.2468911480
   30      H      -5.1903065129     2.9890600640    -3.0874794526
   31      C       5.0000183138     0.5149630914     0.6623236579
   32      C       4.9842844759     0.5847943423    -0.7436729026
   33      C       5.0566897010    -0.8083622318     1.3621081288
   34      C       4.9303015847    -0.6690410991    -1.5583992631
   35      O       6.0657472951    -1.5686973186     0.8847259737
   36      O       4.3382702210    -1.1483883241     2.2700412651
   37      O       3.9756760673    -1.5052816441    -1.0945665287
   38      O       5.6110171502    -0.9066052982    -2.5262831346
   39      C       3.8706170958    -2.7768579976    -1.7567846109
   40      C       6.1943313358    -2.8791241519     1.4635919426
   41      C       5.0040744818     1.6828830820     1.4452074993
   42      C       4.9974972544     2.9074795013     0.7752327376
   43      C       4.9840147562     2.9775036472    -0.6114985780
   44      C       4.9790761275     1.8271695775    -1.4026728989
   45      H       3.6341861860    -2.6393983743    -2.8128032861
   46      H       6.3893308052    -2.8058050464     2.5345520409
   47      H       4.9735305318     3.9483613054    -1.0952486831
   48      H       4.8081007854    -3.3292759177    -1.6694859781
   49      H       3.0651825585    -3.3014838862    -1.2476938881
   50      H       7.0355989167    -3.3400709053     0.9510287491
   51      H       5.2811166045    -3.4558555985     1.3061566888
   52      H       5.0063823598     3.8241048553     1.3556110613
   53      C       4.9515494292     1.9562911487    -2.9066456118
   54      C       5.0309717388     1.6593830961     2.9561621483
   55      H       4.1033947462     1.2519472206     3.3627139657
   56      H       5.1673986930     2.6701548826     3.3447100539
   57      H       5.8444705274     1.0379467764     3.3396950799
   58      H       4.1423153024     1.3702294739    -3.3495094038
   59      H       5.8814097417     1.5965448206    -3.3509892200
   60      H       4.8091478816     3.0002181851    -3.1915775245
 ----------------------------------------------------------------

   14   -1533.7524800247      7.61E-09 Convergence criterion met
 Total energy in the final basis set = -1533.75248002

                    Orbital Energies (a.u.)
 --------------------------------------------------------------

 Alpha MOs
 -- Occupied --
-19.176 -19.175 -19.175 -19.175 -19.119 -19.118 -19.118 -19.118
-10.310 -10.310 -10.310 -10.310 -10.232 -10.231 -10.231 -10.231
-10.204 -10.204 -10.204 -10.204 -10.200 -10.200 -10.200 -10.200
-10.186 -10.186 -10.185 -10.185 -10.170 -10.169 -10.169 -10.169
 -1.120  -1.120  -1.114  -1.113  -1.030  -1.030  -1.030  -1.029
 -0.884  -0.884  -0.806  -0.806  -0.795  -0.795  -0.746  -0.746
 -0.733  -0.733  -0.724  -0.724  -0.674  -0.674  -0.648  -0.648
 -0.620  -0.619  -0.576  -0.576  -0.564  -0.564  -0.536  -0.536
 -0.516  -0.516  -0.514  -0.514  -0.490  -0.490  -0.488  -0.488
 -0.479  -0.479  -0.477  -0.477  -0.468  -0.468  -0.442  -0.441
 -0.433  -0.433  -0.429  -0.429  -0.420  -0.419  -0.415  -0.415
 -0.411  -0.410  -0.405  -0.405  -0.395  -0.395  -0.386  -0.386
 -0.379  -0.379  -0.372  -0.372  -0.361  -0.361  -0.358  -0.358
 -0.356  -0.356  -0.320  -0.320  -0.312  -0.312  -0.293  -0.292
 -0.292  -0.291  -0.265  -0.265  -0.252  -0.252

          Ground-State Mulliken Net Atomic Charges

     Atom                 Charge (a.u.)
  ----------------------------------------
      1 C                     0.381708
      2 C                     0.384315
      3 C                    -0.514825
      4 C                    -0.446629
      5 O                     0.062975
      6 O                    -0.169597
      7 O                     0.045324
      8 O                    -0.176814
      9 C                    -0.226504
     10 C                    -0.224887
     11 C                     0.479251
     12 C                    -0.666568
     13 C                    -0.667784
     14 C                     0.459128
     15 H                     0.170406
     16 H                     0.171537
     17 H                     0.123279
     18 H                     0.176685
     19 H                     0.169727
     20 H                     0.163402
     21 H                     0.176047
     22 H                     0.124211
     23 C                    -0.520128
     24 C                    -0.514687
     25 H                     0.203326
     26 H                     0.142579
     27 H                     0.176521
     28 H                     0.175190
     29 H                     0.201373
     30 H                     0.141452
     31 C                     0.385800
     32 C                     0.380977
     33 C                    -0.502516
     34 C                    -0.461239
     35 O                     0.061369
     36 O                    -0.169612
     37 O                     0.046775
     38 O                    -0.176637
     39 C                    -0.222907
     40 C                    -0.228341
     41 C                     0.482785
     42 C                    -0.669252
     43 C                    -0.665582
     44 C                     0.457628
     45 H                     0.172243
     46 H                     0.169878
     47 H                     0.124228
     48 H                     0.176480
     49 H                     0.164327
     50 H                     0.167987
     51 H                     0.176300
     52 H                     0.123291
     53 C                    -0.521469
     54 C                    -0.512924
     55 H                     0.202220
     56 H                     0.143491
     57 H                     0.175229
     58 H                     0.176447
     59 H                     0.202316
     60 H                     0.140698
  ----------------------------------------
  Sum of atomic charges =     0.000000

                    Cartesian Multipole Moments
 -----------------------------------------------------------------
    Charge (ESU x 10^10)
                 0.0000
    Dipole Moment (Debye)
         X       0.1601      Y      -0.1457      Z       0.1937
       Tot       0.2905
    Quadrupole Moments (Debye-Ang)
        XX    -196.1024     XY      -1.2902     YY    -152.4923
        XZ      18.0032     YZ       1.7247     ZZ    -194.3534

 Total job time:  1452.13s(wall), 2885.46s(cpu)
        *  Thank you very much for using Q-Chem.  Have a nice day.  *
