                               Psi4 1.1 release

  ==> Input File <==

--------------------------------------------------------------------------
memory 750000 mb

molecule mol {
0 1
C         -3.55453       -0.03100        0.21310
H         -3.82482        0.39983       -0.75303
H         -3.55701        0.78971        0.93431
H         -4.32733       -0.74403        0.50637
--
0 1
C         -1.02621        1.47042       -0.11431
O         -1.80499        2.10249       -0.78581
O         -0.07613        2.03904        0.65824
C          0.08678        3.46089        0.50952
H         -0.84634        3.97930        0.73298
H          0.39771        3.69375       -0.51017
H          0.86119        3.73902        1.22095
--
0 1
C          1.56048       -2.89066       -0.09736
H          1.35406       -3.95285       -0.24028
H          2.16661       -2.55186       -0.94174
H          2.16704       -2.77683        0.80435
C          1.48890        0.05139       -0.33645
O          1.68370        0.71553       -1.32602
O          2.39815       -0.12048        0.64012
C          3.65460        0.55648        0.45033
H          4.14522        0.20399       -0.45833
H          4.24940        0.31470        1.32819
H          3.49529        1.63313        0.37712
C          0.22571       -0.71168       -0.06405
C         -0.99880       -0.02155       -0.00552
C          0.26968       -2.11331        0.00984
C         -0.94072       -2.79111        0.16314
C         -2.14927       -2.11075        0.23717
C         -2.21211       -0.71942        0.14374
H         -3.06939       -2.67168        0.36259
H         -0.93576       -3.87474        0.21806

symmetry c1
no_reorient
no_com
}

set {
basis jun-cc-pvdz
scf_type df
guess sad
freeze_core true
}

energy('fisapt0')
--------------------------------------------------------------------------

    Molecular point group: c1

    Geometry (in Angstrom), charge = 0, multiplicity = 1:

       Center              X                  Y                   Z               Mass
    ------------   -----------------  -----------------  -----------------  -----------------
           C         -3.554530000000    -0.031000000000     0.213100000000    12.000000000000
           H         -3.824820000000     0.399830000000    -0.753030000000     1.007825032070
           H         -3.557010000000     0.789710000000     0.934310000000     1.007825032070
           H         -4.327330000000    -0.744030000000     0.506370000000     1.007825032070
           C         -1.026210000000     1.470420000000    -0.114310000000    12.000000000000
           O         -1.804990000000     2.102490000000    -0.785810000000    15.994914619560
           O         -0.076130000000     2.039040000000     0.658240000000    15.994914619560
           C          0.086780000000     3.460890000000     0.509520000000    12.000000000000
           H         -0.846340000000     3.979300000000     0.732980000000     1.007825032070
           H          0.397710000000     3.693750000000    -0.510170000000     1.007825032070
           H          0.861190000000     3.739020000000     1.220950000000     1.007825032070
           C          1.560480000000    -2.890660000000    -0.097360000000    12.000000000000
           H          1.354060000000    -3.952850000000    -0.240280000000     1.007825032070
           H          2.166610000000    -2.551860000000    -0.941740000000     1.007825032070
           H          2.167040000000    -2.776830000000     0.804350000000     1.007825032070
           C          1.488900000000     0.051390000000    -0.336450000000    12.000000000000
           O          1.683700000000     0.715530000000    -1.326020000000    15.994914619560
           O          2.398150000000    -0.120480000000     0.640120000000    15.994914619560
           C          3.654600000000     0.556480000000     0.450330000000    12.000000000000
           H          4.145220000000     0.203990000000    -0.458330000000     1.007825032070
           H          4.249400000000     0.314700000000     1.328190000000     1.007825032070
           H          3.495290000000     1.633130000000     0.377120000000     1.007825032070
           C          0.225710000000    -0.711680000000    -0.064050000000    12.000000000000
           C         -0.998800000000    -0.021550000000    -0.005520000000    12.000000000000
           C          0.269680000000    -2.113310000000     0.009840000000    12.000000000000
           C         -0.940720000000    -2.791110000000     0.163140000000    12.000000000000
           C         -2.149270000000    -2.110750000000     0.237170000000    12.000000000000
           C         -2.212110000000    -0.719420000000     0.143740000000    12.000000000000
           H         -3.069390000000    -2.671680000000     0.362590000000     1.007825032070
           H         -0.935760000000    -3.874740000000     0.218060000000     1.007825032070

  Charge       = 0
  Multiplicity = 1
  Basis Set: JUN-CC-PVDZ
    Blend: JUN-CC-PVDZ
  Basis Set: (JUN-CC-PVDZ AUX)
    Blend: JUN-CC-PVDZ-JKFIT

    Orbital Energies (a.u.)
    -----------------------

    Doubly Occupied:

       1A    -20.615395     2A    -20.610936     3A    -20.559523
       4A    -20.556166     5A    -11.398395     6A    -11.394232
       7A    -11.299709     8A    -11.293680     9A    -11.271969
      10A    -11.268520    11A    -11.265178    12A    -11.264827
      13A    -11.254161    14A    -11.250520    15A    -11.240204
      16A    -11.231797    17A     -1.473222    18A     -1.465642
      19A     -1.370267    20A     -1.366185    21A     -1.183683
      22A     -1.086153    23A     -1.063939    24A     -0.994356
      25A     -0.986489    26A     -0.970169    27A     -0.914883
      28A     -0.877991    29A     -0.836980    30A     -0.780757
      31A     -0.772934    32A     -0.721927    33A     -0.711954
      34A     -0.697772    35A     -0.681945    36A     -0.675679
      37A     -0.664705    38A     -0.653681    39A     -0.642448
      40A     -0.605692    41A     -0.595935    42A     -0.582930
      43A     -0.575763    44A     -0.568411    45A     -0.563423
      46A     -0.553840    47A     -0.544012    48A     -0.541538
      49A     -0.535461    50A     -0.529874    51A     -0.516456
      52A     -0.504805    53A     -0.489180    54A     -0.469540
      55A     -0.460677    56A     -0.455137    57A     -0.447324
      58A     -0.352629    59A     -0.330970

  @DF-RHF Final Energy:  -762.12068420953108

   => Energetics <=

    Nuclear Repulsion Energy =           1141.5632060093969358
    One-Electron Energy =               -3308.1826389502452912
    Two-Electron Energy =                1404.4987487313169368
    DFT Exchange-Correlation Energy =       0.0000000000000000
    Empirical Dispersion Energy =           0.0000000000000000
    PCM Polarization Energy =               0.0000000000000000
    EFP Energy =                            0.0000000000000000
    Total Energy =                       -762.1206842095311913
  Basis Set: (JUN-CC-PVDZ AUX)
    Blend: JUN-CC-PVDZ-JKFIT
  Basis Set: (JUN-CC-PVDZ AUX)
    Blend: JUN-CC-PVDZ-JKFIT
  Basis Set: (JUN-CC-PVDZ AUX)
    Blend: JUN-CC-PVDZ-JKFIT
  Basis Set: (JUN-CC-PVDZ AUX)
    Blend: JUN-CC-PVDZ-JKFIT
  Basis Set: (JUN-CC-PVDZ AUX)
    Blend: JUN-CC-PVDZ-RI

    SAPT Results
  --------------------------------------------------------------------------------------------------------
    Electrostatics                  8.65579710 [mEh]       5.43159491 [kcal/mol]      22.72579529 [kJ/mol]
      Elst10,r                      8.65579710 [mEh]       5.43159491 [kcal/mol]      22.72579529 [kJ/mol]

    Exchange                        5.55395967 [mEh]       3.48516246 [kcal/mol]      14.58192112 [kJ/mol]
      Exch10                        5.55395967 [mEh]       3.48516246 [kcal/mol]      14.58192112 [kJ/mol]
      Exch10(S^2)                   5.53115097 [mEh]       3.47084978 [kcal/mol]      14.52203686 [kJ/mol]

    Induction                      -1.49086368 [mEh]      -0.93553112 [kcal/mol]      -3.91426260 [kJ/mol]
      Ind20,r                      -2.39680542 [mEh]      -1.50401817 [kcal/mol]      -6.29281263 [kJ/mol]
      Exch-Ind20,r                  1.34182284 [mEh]       0.84200658 [kcal/mol]       3.52295586 [kJ/mol]
      delta HF,r (2)               -0.43588110 [mEh]      -0.27351953 [kcal/mol]      -1.14440583 [kJ/mol]
      Induction (A<-B)             -1.13566875 [mEh]      -0.71264293 [kcal/mol]      -2.98169829 [kJ/mol]
      Induction (B<-A)             -0.35519494 [mEh]      -0.22288820 [kcal/mol]      -0.93256431 [kJ/mol]

    Dispersion                     -2.23868794 [mEh]      -1.40479795 [kcal/mol]      -5.87767518 [kJ/mol]
      Disp20                       -2.62551991 [mEh]      -1.64753868 [kcal/mol]      -6.89330252 [kJ/mol]
      Exch-Disp20                   0.38683197 [mEh]       0.24274074 [kcal/mol]       1.01562733 [kJ/mol]

  Total HF                         12.71889309 [mEh]       7.98122624 [kcal/mol]      33.39345381 [kJ/mol]
  Total SAPT0                      10.48020515 [mEh]       6.57642830 [kcal/mol]      27.51577863 [kJ/mol]

  --------------------------------------------------------------------------------------------------------

*** Psi4 exiting successfully. Buy a developer a beer!
