                               Psi4 1.1 release

  ==> Input File <==

--------------------------------------------------------------------------
memory 750000 mb

molecule mol {
0 1
C         -0.36246        1.77404       -0.03093
O         -1.01115        2.79517        0.01728
O          0.98150        1.78708       -0.14230
C          1.60613        3.07592       -0.24426
H          1.19886        3.62977       -1.09082
H          1.44902        3.64872        0.67119
H          2.66388        2.87120       -0.39418
--
0 1
C          1.41689       -0.66363       -0.25233
O          1.99747       -0.72055       -1.30696
O          2.02794       -0.66002        0.94797
C          3.46566       -0.62344        0.91669
H          3.77915       -0.63557        1.95813
H          3.80824        0.28723        0.42255
H          3.86081       -1.48987        0.38392
--
0 1
C         -3.31850        1.33923        0.25178
H         -4.32452        0.92570        0.34946
H         -3.29004        1.99245       -0.62168
H         -3.11588        1.97683        1.11393
C          0.28394       -3.26195       -0.22184
H         -0.29293       -4.17626       -0.07391
H          0.73875       -3.30313       -1.21531
H          1.09648       -3.25476        0.50988
C         -0.07938       -0.74456       -0.09226
C         -0.91886        0.38718        0.01080
C         -0.60256       -2.04673       -0.08055
C         -1.98191       -2.19664        0.05166
C         -2.81528       -1.09361        0.16028
C         -2.32023        0.21153        0.13817
H         -3.88430       -1.24347        0.26351
H         -2.40797       -3.19452        0.06838

symmetry c1
no_reorient
no_com
}

set {
basis jun-cc-pvdz
scf_type df
guess sad
freeze_core true
}

energy('fisapt0')
--------------------------------------------------------------------------

    Molecular point group: c1

    Geometry (in Angstrom), charge = 0, multiplicity = 1:

       Center              X                  Y                   Z               Mass
    ------------   -----------------  -----------------  -----------------  -----------------
           C         -0.362460000000     1.774040000000    -0.030930000000    12.000000000000
           O         -1.011150000000     2.795170000000     0.017280000000    15.994914619560
           O          0.981500000000     1.787080000000    -0.142300000000    15.994914619560
           C          1.606130000000     3.075920000000    -0.244260000000    12.000000000000
           H          1.198860000000     3.629770000000    -1.090820000000     1.007825032070
           H          1.449020000000     3.648720000000     0.671190000000     1.007825032070
           H          2.663880000000     2.871200000000    -0.394180000000     1.007825032070
           C          1.416890000000    -0.663630000000    -0.252330000000    12.000000000000
           O          1.997470000000    -0.720550000000    -1.306960000000    15.994914619560
           O          2.027940000000    -0.660020000000     0.947970000000    15.994914619560
           C          3.465660000000    -0.623440000000     0.916690000000    12.000000000000
           H          3.779150000000    -0.635570000000     1.958130000000     1.007825032070
           H          3.808240000000     0.287230000000     0.422550000000     1.007825032070
           H          3.860810000000    -1.489870000000     0.383920000000     1.007825032070
           C         -3.318500000000     1.339230000000     0.251780000000    12.000000000000
           H         -4.324520000000     0.925700000000     0.349460000000     1.007825032070
           H         -3.290040000000     1.992450000000    -0.621680000000     1.007825032070
           H         -3.115880000000     1.976830000000     1.113930000000     1.007825032070
           C          0.283940000000    -3.261950000000    -0.221840000000    12.000000000000
           H         -0.292930000000    -4.176260000000    -0.073910000000     1.007825032070
           H          0.738750000000    -3.303130000000    -1.215310000000     1.007825032070
           H          1.096480000000    -3.254760000000     0.509880000000     1.007825032070
           C         -0.079380000000    -0.744560000000    -0.092260000000    12.000000000000
           C         -0.918860000000     0.387180000000     0.010800000000    12.000000000000
           C         -0.602560000000    -2.046730000000    -0.080550000000    12.000000000000
           C         -1.981910000000    -2.196640000000     0.051660000000    12.000000000000
           C         -2.815280000000    -1.093610000000     0.160280000000    12.000000000000
           C         -2.320230000000     0.211530000000     0.138170000000    12.000000000000
           H         -3.884300000000    -1.243470000000     0.263510000000     1.007825032070
           H         -2.407970000000    -3.194520000000     0.068380000000     1.007825032070

  Charge       = 0
  Multiplicity = 1
  Basis Set: JUN-CC-PVDZ
    Blend: JUN-CC-PVDZ
  Basis Set: (JUN-CC-PVDZ AUX)
    Blend: JUN-CC-PVDZ-JKFIT

    Orbital Energies (a.u.)
    -----------------------

    Doubly Occupied:

       1A    -20.612584     2A    -20.610918     3A    -20.555298
       4A    -20.554145     5A    -11.397558     6A    -11.396853
       7A    -11.298022     8A    -11.297013     9A    -11.276514
      10A    -11.271021    11A    -11.269174    12A    -11.261988
      13A    -11.257638    14A    -11.247689    15A    -11.238557
      16A    -11.227434    17A     -1.473574    18A     -1.464807
      19A     -1.367365    20A     -1.365875    21A     -1.183207
      22A     -1.085381    23A     -1.064732    24A     -0.993822
      25A     -0.985384    26A     -0.970212    27A     -0.914906
      28A     -0.879042    29A     -0.833034    30A     -0.784992
      31A     -0.770423    32A     -0.726626    33A     -0.708241
      34A     -0.696648    35A     -0.680226    36A     -0.673518
      37A     -0.668488    38A     -0.655308    39A     -0.641024
      40A     -0.607125    41A     -0.592198    42A     -0.583252
      43A     -0.574890    44A     -0.566977    45A     -0.561838
      46A     -0.551483    47A     -0.547962    48A     -0.537875
      49A     -0.534509    50A     -0.527891    51A     -0.515376
      52A     -0.503744    53A     -0.488750    54A     -0.472206
      55A     -0.457093    56A     -0.453029    57A     -0.444501
      58A     -0.355286    59A     -0.330407

  @DF-RHF Final Energy:  -762.11823176622988

   => Energetics <=

    Nuclear Repulsion Energy =           1142.4239635761023237
    One-Electron Energy =               -3309.9531224992015268
    Two-Electron Energy =                1405.4109271568693202
    DFT Exchange-Correlation Energy =       0.0000000000000000
    Empirical Dispersion Energy =           0.0000000000000000
    PCM Polarization Energy =               0.0000000000000000
    EFP Energy =                            0.0000000000000000
    Total Energy =                       -762.1182317662298829
  Basis Set: (JUN-CC-PVDZ AUX)
    Blend: JUN-CC-PVDZ-JKFIT
  Basis Set: (JUN-CC-PVDZ AUX)
    Blend: JUN-CC-PVDZ-JKFIT
  Basis Set: (JUN-CC-PVDZ AUX)
    Blend: JUN-CC-PVDZ-JKFIT
  Basis Set: (JUN-CC-PVDZ AUX)
    Blend: JUN-CC-PVDZ-JKFIT
  Basis Set: (JUN-CC-PVDZ AUX)
    Blend: JUN-CC-PVDZ-RI

    SAPT Results
  --------------------------------------------------------------------------------------------------------
    Electrostatics                 10.55382260 [mEh]       6.62262394 [kcal/mol]      27.70906124 [kJ/mol]
      Elst10,r                     10.55382260 [mEh]       6.62262394 [kcal/mol]      27.70906124 [kJ/mol]

    Exchange                       11.36716473 [mEh]       7.13300385 [kcal/mol]      29.84449099 [kJ/mol]
      Exch10                       11.36716473 [mEh]       7.13300385 [kcal/mol]      29.84449099 [kJ/mol]
      Exch10(S^2)                  11.30485797 [mEh]       7.09390577 [kcal/mol]      29.68090460 [kJ/mol]

    Induction                      -3.26656255 [mEh]      -2.04979903 [kcal/mol]      -8.57635997 [kJ/mol]
      Ind20,r                      -5.26240267 [mEh]      -3.30220767 [kcal/mol]     -13.81643820 [kJ/mol]
      Exch-Ind20,r                  3.12400801 [mEh]       1.96034470 [kcal/mol]       8.20208303 [kJ/mol]
      delta HF,r (2)               -1.12816789 [mEh]      -0.70793607 [kcal/mol]      -2.96200479 [kJ/mol]
      Induction (A<-B)             -2.53933718 [mEh]      -1.59345820 [kcal/mol]      -6.66702975 [kJ/mol]
      Induction (B<-A)             -0.72722537 [mEh]      -0.45634083 [kcal/mol]      -1.90933022 [kJ/mol]

    Dispersion                     -4.58251125 [mEh]      -2.87556934 [kcal/mol]     -12.03138328 [kJ/mol]
      Disp20                       -5.35854173 [mEh]      -3.36253584 [kcal/mol]     -14.06885130 [kJ/mol]
      Exch-Disp20                   0.77603048 [mEh]       0.48696650 [kcal/mol]       2.03746802 [kJ/mol]

  Total HF                         18.65442478 [mEh]      11.70582877 [kcal/mol]      48.97719226 [kJ/mol]
  Total SAPT0                      14.07191353 [mEh]       8.83025942 [kcal/mol]      36.94580898 [kJ/mol]

  --------------------------------------------------------------------------------------------------------

*** Psi4 exiting successfully. Buy a developer a beer!
