                               Psi4 1.1 release

  ==> Input File <==

--------------------------------------------------------------------------
memory 750000 mb

molecule mol {
0 1
C          0.28394       -3.26195       -0.22184
H         -0.29293       -4.17626       -0.07391
H          0.73875       -3.30313       -1.21531
H          1.09648       -3.25476        0.50988
--
0 1
C          1.41689       -0.66363       -0.25233
O          1.99747       -0.72055       -1.30696
O          2.02794       -0.66002        0.94797
C          3.46566       -0.62344        0.91669
H          3.77915       -0.63557        1.95813
H          3.80824        0.28723        0.42255
H          3.86081       -1.48987        0.38392
--
0 1
C         -0.07938       -0.74456       -0.09226
C         -0.91886        0.38718        0.01080
C         -0.60256       -2.04673       -0.08055
C         -1.98191       -2.19664        0.05166
C         -2.81528       -1.09361        0.16028
C         -2.32023        0.21153        0.13817
H         -3.88430       -1.24347        0.26351
H         -2.40797       -3.19452        0.06838
C         -3.31850        1.33923        0.25178
H         -4.32452        0.92570        0.34946
H         -3.29004        1.99245       -0.62168
H         -3.11588        1.97683        1.11393
C         -0.36246        1.77404       -0.03093
O         -1.01115        2.79517        0.01728
O          0.98150        1.78708       -0.14230
C          1.60613        3.07592       -0.24426
H          1.19886        3.62977       -1.09082
H          1.44902        3.64872        0.67119
H          2.66388        2.87120       -0.39418

symmetry c1
no_reorient
no_com
}

set {
basis jun-cc-pvdz
scf_type df
guess sad
freeze_core true
}

energy('fisapt0')
--------------------------------------------------------------------------

    Molecular point group: c1

    Geometry (in Angstrom), charge = 0, multiplicity = 1:

       Center              X                  Y                   Z               Mass
    ------------   -----------------  -----------------  -----------------  -----------------
           C          0.283940000000    -3.261950000000    -0.221840000000    12.000000000000
           H         -0.292930000000    -4.176260000000    -0.073910000000     1.007825032070
           H          0.738750000000    -3.303130000000    -1.215310000000     1.007825032070
           H          1.096480000000    -3.254760000000     0.509880000000     1.007825032070
           C          1.416890000000    -0.663630000000    -0.252330000000    12.000000000000
           O          1.997470000000    -0.720550000000    -1.306960000000    15.994914619560
           O          2.027940000000    -0.660020000000     0.947970000000    15.994914619560
           C          3.465660000000    -0.623440000000     0.916690000000    12.000000000000
           H          3.779150000000    -0.635570000000     1.958130000000     1.007825032070
           H          3.808240000000     0.287230000000     0.422550000000     1.007825032070
           H          3.860810000000    -1.489870000000     0.383920000000     1.007825032070
           C         -0.079380000000    -0.744560000000    -0.092260000000    12.000000000000
           C         -0.918860000000     0.387180000000     0.010800000000    12.000000000000
           C         -0.602560000000    -2.046730000000    -0.080550000000    12.000000000000
           C         -1.981910000000    -2.196640000000     0.051660000000    12.000000000000
           C         -2.815280000000    -1.093610000000     0.160280000000    12.000000000000
           C         -2.320230000000     0.211530000000     0.138170000000    12.000000000000
           H         -3.884300000000    -1.243470000000     0.263510000000     1.007825032070
           H         -2.407970000000    -3.194520000000     0.068380000000     1.007825032070
           C         -3.318500000000     1.339230000000     0.251780000000    12.000000000000
           H         -4.324520000000     0.925700000000     0.349460000000     1.007825032070
           H         -3.290040000000     1.992450000000    -0.621680000000     1.007825032070
           H         -3.115880000000     1.976830000000     1.113930000000     1.007825032070
           C         -0.362460000000     1.774040000000    -0.030930000000    12.000000000000
           O         -1.011150000000     2.795170000000     0.017280000000    15.994914619560
           O          0.981500000000     1.787080000000    -0.142300000000    15.994914619560
           C          1.606130000000     3.075920000000    -0.244260000000    12.000000000000
           H          1.198860000000     3.629770000000    -1.090820000000     1.007825032070
           H          1.449020000000     3.648720000000     0.671190000000     1.007825032070
           H          2.663880000000     2.871200000000    -0.394180000000     1.007825032070

  Charge       = 0
  Multiplicity = 1
  Basis Set: JUN-CC-PVDZ
    Blend: JUN-CC-PVDZ
  Basis Set: (JUN-CC-PVDZ AUX)
    Blend: JUN-CC-PVDZ-JKFIT

    Orbital Energies (a.u.)
    -----------------------

    Doubly Occupied:

       1A    -20.612584     2A    -20.610919     3A    -20.555298
       4A    -20.554145     5A    -11.397558     6A    -11.396853
       7A    -11.298022     8A    -11.297013     9A    -11.276515
      10A    -11.271021    11A    -11.269174    12A    -11.261989
      13A    -11.257638    14A    -11.247689    15A    -11.238557
      16A    -11.227434    17A     -1.473574    18A     -1.464807
      19A     -1.367364    20A     -1.365875    21A     -1.183207
      22A     -1.085382    23A     -1.064732    24A     -0.993822
      25A     -0.985384    26A     -0.970212    27A     -0.914906
      28A     -0.879042    29A     -0.833034    30A     -0.784992
      31A     -0.770423    32A     -0.726626    33A     -0.708241
      34A     -0.696648    35A     -0.680226    36A     -0.673518
      37A     -0.668488    38A     -0.655308    39A     -0.641024
      40A     -0.607125    41A     -0.592198    42A     -0.583252
      43A     -0.574890    44A     -0.566977    45A     -0.561838
      46A     -0.551483    47A     -0.547962    48A     -0.537875
      49A     -0.534509    50A     -0.527891    51A     -0.515376
      52A     -0.503744    53A     -0.488750    54A     -0.472206
      55A     -0.457093    56A     -0.453029    57A     -0.444501
      58A     -0.355286    59A     -0.330407

  @DF-RHF Final Energy:  -762.11823175516747

   => Energetics <=

    Nuclear Repulsion Energy =           1142.4239635761016416
    One-Electron Energy =               -3309.9531201667441564
    Two-Electron Energy =                1405.4109248354752708
    DFT Exchange-Correlation Energy =       0.0000000000000000
    Empirical Dispersion Energy =           0.0000000000000000
    PCM Polarization Energy =               0.0000000000000000
    EFP Energy =                            0.0000000000000000
    Total Energy =                       -762.1182317551674714
  Basis Set: (JUN-CC-PVDZ AUX)
    Blend: JUN-CC-PVDZ-JKFIT
  Basis Set: (JUN-CC-PVDZ AUX)
    Blend: JUN-CC-PVDZ-JKFIT
  Basis Set: (JUN-CC-PVDZ AUX)
    Blend: JUN-CC-PVDZ-JKFIT
  Basis Set: (JUN-CC-PVDZ AUX)
    Blend: JUN-CC-PVDZ-JKFIT
  Basis Set: (JUN-CC-PVDZ AUX)
    Blend: JUN-CC-PVDZ-RI

    SAPT Results
  --------------------------------------------------------------------------------------------------------
    Electrostatics                  9.53968027 [mEh]       5.98623999 [kcal/mol]      25.04643054 [kJ/mol]
      Elst10,r                      9.53968027 [mEh]       5.98623999 [kcal/mol]      25.04643054 [kJ/mol]

    Exchange                        3.57658520 [mEh]       2.24434119 [kcal/mol]       9.39032443 [kJ/mol]
      Exch10                        3.57658520 [mEh]       2.24434119 [kcal/mol]       9.39032443 [kJ/mol]
      Exch10(S^2)                   3.57035241 [mEh]       2.24043005 [kcal/mol]       9.37396024 [kJ/mol]

    Induction                      -1.29521046 [mEh]      -0.81275687 [kcal/mol]      -3.40057506 [kJ/mol]
      Ind20,r                      -1.85595671 [mEh]      -1.16463047 [kcal/mol]      -4.87281435 [kJ/mol]
      Exch-Ind20,r                  0.79565269 [mEh]       0.49927962 [kcal/mol]       2.08898614 [kJ/mol]
      delta HF,r (2)               -0.23490644 [mEh]      -0.14740602 [kcal/mol]      -0.61674685 [kJ/mol]
      Induction (A<-B)             -0.93774851 [mEh]      -0.58844610 [kcal/mol]      -2.46205870 [kJ/mol]
      Induction (B<-A)             -0.35746195 [mEh]      -0.22431077 [kcal/mol]      -0.93851635 [kJ/mol]

    Dispersion                     -2.45924652 [mEh]      -1.54320056 [kcal/mol]      -6.45675175 [kJ/mol]
      Disp20                       -2.72538052 [mEh]      -1.71020217 [kcal/mol]      -7.15548656 [kJ/mol]
      Exch-Disp20                   0.26613400 [mEh]       0.16700161 [kcal/mol]       0.69873481 [kJ/mol]

  Total HF                         11.82105501 [mEh]       7.41782432 [kcal/mol]      31.03617992 [kJ/mol]
  Total SAPT0                       9.36180848 [mEh]       5.87462376 [kcal/mol]      24.57942817 [kJ/mol]

  --------------------------------------------------------------------------------------------------------

*** Psi4 exiting successfully. Buy a developer a beer!
