                               Psi4 1.1 release

  ==> Input File <==

--------------------------------------------------------------------------
memory 750000 mb

molecule mol {
0 1
C         -1.78103       -2.92226       -0.24590
H         -2.80572       -3.28175       -0.13627
H         -1.39752       -3.25223       -1.21323
H         -1.16958       -3.40777        0.51926
--
0 1
C          0.74969       -1.43776       -0.09374
O          1.04702       -2.28405       -0.90088
O          1.53645       -1.09176        0.94813
C          2.82316       -1.73208        1.00475
H          3.39889       -1.50934        0.10459
H          3.31095       -1.32281        1.88650
H          2.70778       -2.81319        1.09555
--
0 1
C         -0.54444       -0.68370       -0.06689
C         -0.55709        0.71878        0.05493
C         -1.74320       -1.41616       -0.12552
C         -2.93952       -0.70056       -0.05285
C         -2.95313        0.68255        0.06934
C         -1.77161        1.42404        0.12810
H         -3.90354        1.20325        0.11710
H         -3.87892       -1.24211       -0.08988
C         -1.83960        2.92746        0.24839
H         -1.45503        3.26427        1.21284
H         -1.24214        3.42352       -0.52065
H         -2.87211        3.26623        0.14638
C          0.72843        1.48436        0.06598
O          1.01035        2.37097        0.83478
O          1.53784        1.08301       -0.93877
C          2.83449        1.70121       -0.99358
H          2.73835        2.77989       -1.12464
H          3.38998        1.50093       -0.07544
H          3.33184        1.25269       -1.85067

symmetry c1
no_reorient
no_com
}

set {
basis jun-cc-pvdz
scf_type df
guess sad
freeze_core true
}

energy('fisapt0')
--------------------------------------------------------------------------

    Molecular point group: c1

    Geometry (in Angstrom), charge = 0, multiplicity = 1:

       Center              X                  Y                   Z               Mass
    ------------   -----------------  -----------------  -----------------  -----------------
           C         -1.781030000000    -2.922260000000    -0.245900000000    12.000000000000
           H         -2.805720000000    -3.281750000000    -0.136270000000     1.007825032070
           H         -1.397520000000    -3.252230000000    -1.213230000000     1.007825032070
           H         -1.169580000000    -3.407770000000     0.519260000000     1.007825032070
           C          0.749690000000    -1.437760000000    -0.093740000000    12.000000000000
           O          1.047020000000    -2.284050000000    -0.900880000000    15.994914619560
           O          1.536450000000    -1.091760000000     0.948130000000    15.994914619560
           C          2.823160000000    -1.732080000000     1.004750000000    12.000000000000
           H          3.398890000000    -1.509340000000     0.104590000000     1.007825032070
           H          3.310950000000    -1.322810000000     1.886500000000     1.007825032070
           H          2.707780000000    -2.813190000000     1.095550000000     1.007825032070
           C         -0.544440000000    -0.683700000000    -0.066890000000    12.000000000000
           C         -0.557090000000     0.718780000000     0.054930000000    12.000000000000
           C         -1.743200000000    -1.416160000000    -0.125520000000    12.000000000000
           C         -2.939520000000    -0.700560000000    -0.052850000000    12.000000000000
           C         -2.953130000000     0.682550000000     0.069340000000    12.000000000000
           C         -1.771610000000     1.424040000000     0.128100000000    12.000000000000
           H         -3.903540000000     1.203250000000     0.117100000000     1.007825032070
           H         -3.878920000000    -1.242110000000    -0.089880000000     1.007825032070
           C         -1.839600000000     2.927460000000     0.248390000000    12.000000000000
           H         -1.455030000000     3.264270000000     1.212840000000     1.007825032070
           H         -1.242140000000     3.423520000000    -0.520650000000     1.007825032070
           H         -2.872110000000     3.266230000000     0.146380000000     1.007825032070
           C          0.728430000000     1.484360000000     0.065980000000    12.000000000000
           O          1.010350000000     2.370970000000     0.834780000000    15.994914619560
           O          1.537840000000     1.083010000000    -0.938770000000    15.994914619560
           C          2.834490000000     1.701210000000    -0.993580000000    12.000000000000
           H          2.738350000000     2.779890000000    -1.124640000000     1.007825032070
           H          3.389980000000     1.500930000000    -0.075440000000     1.007825032070
           H          3.331840000000     1.252690000000    -1.850670000000     1.007825032070

  Charge       = 0
  Multiplicity = 1
  Basis Set: JUN-CC-PVDZ
    Blend: JUN-CC-PVDZ
  Basis Set: (JUN-CC-PVDZ AUX)
    Blend: JUN-CC-PVDZ-JKFIT

    Orbital Energies (a.u.)
    -----------------------

    Doubly Occupied:

       1A    -20.614471     2A    -20.614377     3A    -20.559695
       4A    -20.559114     5A    -11.397640     6A    -11.397494
       7A    -11.298742     8A    -11.298634     9A    -11.271320
      10A    -11.270091    11A    -11.265508    12A    -11.264958
      13A    -11.253141    14A    -11.251770    15A    -11.234132
      16A    -11.233540    17A     -1.474234    18A     -1.466453
      19A     -1.370012    20A     -1.369377    21A     -1.183859
      22A     -1.084796    23A     -1.066607    24A     -0.992957
      25A     -0.987395    26A     -0.970260    27A     -0.915234
      28A     -0.879412    29A     -0.836815    30A     -0.782848
      31A     -0.769995    32A     -0.728158    33A     -0.709431
      34A     -0.700247    35A     -0.683124    36A     -0.678468
      37A     -0.658603    38A     -0.657291    39A     -0.643517
      40A     -0.609517    41A     -0.588781    42A     -0.587668
      43A     -0.571699    44A     -0.569557    45A     -0.562890
      46A     -0.554242    47A     -0.545154    48A     -0.537876
      49A     -0.537425    50A     -0.532202    51A     -0.518071
      52A     -0.507250    53A     -0.488238    54A     -0.469048
      55A     -0.463676    56A     -0.455476    57A     -0.448562
      58A     -0.353312    59A     -0.330977

  @DF-RHF Final Energy:  -762.12132142789915

   => Energetics <=

    Nuclear Repulsion Energy =           1146.5060119408085484
    One-Electron Energy =               -3318.0039882617220428
    Two-Electron Energy =                1409.3766548930143472
    DFT Exchange-Correlation Energy =       0.0000000000000000
    Empirical Dispersion Energy =           0.0000000000000000
    PCM Polarization Energy =               0.0000000000000000
    EFP Energy =                            0.0000000000000000
    Total Energy =                       -762.1213214278991472
  Basis Set: (JUN-CC-PVDZ AUX)
    Blend: JUN-CC-PVDZ-JKFIT
  Basis Set: (JUN-CC-PVDZ AUX)
    Blend: JUN-CC-PVDZ-JKFIT
  Basis Set: (JUN-CC-PVDZ AUX)
    Blend: JUN-CC-PVDZ-JKFIT
  Basis Set: (JUN-CC-PVDZ AUX)
    Blend: JUN-CC-PVDZ-JKFIT
  Basis Set: (JUN-CC-PVDZ AUX)
    Blend: JUN-CC-PVDZ-RI

    SAPT Results
  --------------------------------------------------------------------------------------------------------
    Electrostatics                  8.96526827 [mEh]       5.62579101 [kcal/mol]      23.53831184 [kJ/mol]
      Elst10,r                      8.96526827 [mEh]       5.62579101 [kcal/mol]      23.53831184 [kJ/mol]

    Exchange                        5.04319152 [mEh]       3.16465059 [kcal/mol]      13.24089932 [kJ/mol]
      Exch10                        5.04319152 [mEh]       3.16465059 [kcal/mol]      13.24089932 [kJ/mol]
      Exch10(S^2)                   5.02408414 [mEh]       3.15266053 [kcal/mol]      13.19073291 [kJ/mol]

    Induction                      -1.43609154 [mEh]      -0.90116109 [kcal/mol]      -3.77045834 [kJ/mol]
      Ind20,r                      -2.25779580 [mEh]      -1.41678831 [kcal/mol]      -5.92784287 [kJ/mol]
      Exch-Ind20,r                  1.20332106 [mEh]       0.75509540 [kcal/mol]       3.15931945 [kJ/mol]
      delta HF,r (2)               -0.38161680 [mEh]      -0.23946817 [kcal/mol]      -1.00193492 [kJ/mol]
      Induction (A<-B)             -1.09233078 [mEh]      -0.68544794 [kcal/mol]      -2.86791447 [kJ/mol]
      Induction (B<-A)             -0.34376076 [mEh]      -0.21571314 [kcal/mol]      -0.90254388 [kJ/mol]

    Dispersion                     -2.21262563 [mEh]      -1.38844360 [kcal/mol]      -5.80924858 [kJ/mol]
      Disp20                       -2.56966980 [mEh]      -1.61249221 [kcal/mol]      -6.74666806 [kJ/mol]
      Exch-Disp20                   0.35704417 [mEh]       0.22404861 [kcal/mol]       0.93741948 [kJ/mol]

  Total HF                         12.57236824 [mEh]       7.88928051 [kcal/mol]      33.00875282 [kJ/mol]
  Total SAPT0                      10.35974262 [mEh]       6.50083691 [kcal/mol]      27.19950424 [kJ/mol]

  --------------------------------------------------------------------------------------------------------

*** Psi4 exiting successfully. Buy a developer a beer!
