                               Psi4 1.1 release

  ==> Input File <==

--------------------------------------------------------------------------
memory 750000 mb

molecule mol {
0 1
C          3.21173       -1.58756        0.18748
H          3.11565       -2.22848       -0.69038
H          2.96526       -2.21459        1.04621
H          4.25051       -1.26355        0.27556
--
0 1
C          0.23682       -1.78307       -0.07144
O          0.80387       -2.85160       -0.02158
O         -1.10553       -1.69654       -0.17947
C         -1.82703       -2.93588       -0.26102
H         -2.86734       -2.65355       -0.40732
H         -1.70802       -3.50704        0.66122
H         -1.46982       -3.53099       -1.10214
--
0 1
C         -0.04267        3.27951       -0.18928
H         -0.80730        3.33033        0.59133
H         -0.55603        3.33728       -1.15274
H          0.59875        4.15632       -0.09009
C         -1.34499        0.77476       -0.28278
O         -1.91200        0.87864       -1.34136
O         -1.96720        0.79415        0.91201
C         -3.40514        0.82382        0.86832
H         -3.75713        1.71250        0.34215
H         -3.72708        0.83869        1.90724
H         -3.78435       -0.06548        0.36178
C          0.90114       -0.44258       -0.02801
C          0.15263        0.75062       -0.11404
C          2.31053       -0.37923        0.09634
C          2.90211        0.88499        0.13631
C          2.15416        2.05120        0.05067
C          0.76738        2.00921       -0.08102
H          2.65523        3.01281        0.08588
H          3.97960        0.95241        0.23649

symmetry c1
no_reorient
no_com
}

set {
basis jun-cc-pvdz
scf_type df
guess sad
freeze_core true
}

energy('fisapt0')
--------------------------------------------------------------------------

    Molecular point group: c1

    Geometry (in Angstrom), charge = 0, multiplicity = 1:

       Center              X                  Y                   Z               Mass
    ------------   -----------------  -----------------  -----------------  -----------------
           C          3.211730000000    -1.587560000000     0.187480000000    12.000000000000
           H          3.115650000000    -2.228480000000    -0.690380000000     1.007825032070
           H          2.965260000000    -2.214590000000     1.046210000000     1.007825032070
           H          4.250510000000    -1.263550000000     0.275560000000     1.007825032070
           C          0.236820000000    -1.783070000000    -0.071440000000    12.000000000000
           O          0.803870000000    -2.851600000000    -0.021580000000    15.994914619560
           O         -1.105530000000    -1.696540000000    -0.179470000000    15.994914619560
           C         -1.827030000000    -2.935880000000    -0.261020000000    12.000000000000
           H         -2.867340000000    -2.653550000000    -0.407320000000     1.007825032070
           H         -1.708020000000    -3.507040000000     0.661220000000     1.007825032070
           H         -1.469820000000    -3.530990000000    -1.102140000000     1.007825032070
           C         -0.042670000000     3.279510000000    -0.189280000000    12.000000000000
           H         -0.807300000000     3.330330000000     0.591330000000     1.007825032070
           H         -0.556030000000     3.337280000000    -1.152740000000     1.007825032070
           H          0.598750000000     4.156320000000    -0.090090000000     1.007825032070
           C         -1.344990000000     0.774760000000    -0.282780000000    12.000000000000
           O         -1.912000000000     0.878640000000    -1.341360000000    15.994914619560
           O         -1.967200000000     0.794150000000     0.912010000000    15.994914619560
           C         -3.405140000000     0.823820000000     0.868320000000    12.000000000000
           H         -3.757130000000     1.712500000000     0.342150000000     1.007825032070
           H         -3.727080000000     0.838690000000     1.907240000000     1.007825032070
           H         -3.784350000000    -0.065480000000     0.361780000000     1.007825032070
           C          0.901140000000    -0.442580000000    -0.028010000000    12.000000000000
           C          0.152630000000     0.750620000000    -0.114040000000    12.000000000000
           C          2.310530000000    -0.379230000000     0.096340000000    12.000000000000
           C          2.902110000000     0.884990000000     0.136310000000    12.000000000000
           C          2.154160000000     2.051200000000     0.050670000000    12.000000000000
           C          0.767380000000     2.009210000000    -0.081020000000    12.000000000000
           H          2.655230000000     3.012810000000     0.085880000000     1.007825032070
           H          3.979600000000     0.952410000000     0.236490000000     1.007825032070

  Charge       = 0
  Multiplicity = 1
  Basis Set: JUN-CC-PVDZ
    Blend: JUN-CC-PVDZ
  Basis Set: (JUN-CC-PVDZ AUX)
    Blend: JUN-CC-PVDZ-JKFIT

    Orbital Energies (a.u.)
    -----------------------

    Doubly Occupied:

       1A    -20.612443     2A    -20.610507     3A    -20.555282
       4A    -20.553807     5A    -11.397816     6A    -11.396556
       7A    -11.298293     8A    -11.296954     9A    -11.275861
      10A    -11.270843    11A    -11.269123    12A    -11.261908
      13A    -11.258042    14A    -11.248050    15A    -11.238452
      16A    -11.227317    17A     -1.473384    18A     -1.464245
      19A     -1.367074    20A     -1.365517    21A     -1.183751
      22A     -1.085776    23A     -1.064426    24A     -0.993411
      25A     -0.985458    26A     -0.970305    27A     -0.914941
      28A     -0.879368    29A     -0.833315    30A     -0.785096
      31A     -0.770237    32A     -0.726533    33A     -0.708370
      34A     -0.696585    35A     -0.679983    36A     -0.673242
      37A     -0.668187    38A     -0.655208    39A     -0.640941
      40A     -0.607070    41A     -0.592211    42A     -0.583359
      43A     -0.575008    44A     -0.567390    45A     -0.562269
      46A     -0.551686    47A     -0.547737    48A     -0.537776
      49A     -0.534522    50A     -0.528180    51A     -0.515106
      52A     -0.503816    53A     -0.489052    54A     -0.472244
      55A     -0.456531    56A     -0.452869    57A     -0.444157
      58A     -0.355301    59A     -0.330799

  @DF-RHF Final Energy:  -762.11810534281290

   => Energetics <=

    Nuclear Repulsion Energy =           1143.3919777624637391
    One-Electron Energy =               -3311.8927972032115576
    Two-Electron Energy =                1406.3827140979349224
    DFT Exchange-Correlation Energy =       0.0000000000000000
    Empirical Dispersion Energy =           0.0000000000000000
    PCM Polarization Energy =               0.0000000000000000
    EFP Energy =                            0.0000000000000000
    Total Energy =                       -762.1181053428128962
  Basis Set: (JUN-CC-PVDZ AUX)
    Blend: JUN-CC-PVDZ-JKFIT
  Basis Set: (JUN-CC-PVDZ AUX)
    Blend: JUN-CC-PVDZ-JKFIT
  Basis Set: (JUN-CC-PVDZ AUX)
    Blend: JUN-CC-PVDZ-JKFIT
  Basis Set: (JUN-CC-PVDZ AUX)
    Blend: JUN-CC-PVDZ-JKFIT
  Basis Set: (JUN-CC-PVDZ AUX)
    Blend: JUN-CC-PVDZ-RI

    SAPT Results
  --------------------------------------------------------------------------------------------------------
    Electrostatics                  7.35901130 [mEh]       4.61784950 [kcal/mol]      19.32108416 [kJ/mol]
      Elst10,r                      7.35901130 [mEh]       4.61784950 [kcal/mol]      19.32108416 [kJ/mol]

    Exchange                       11.27174530 [mEh]       7.07312726 [kcal/mol]      29.59396729 [kJ/mol]
      Exch10                       11.27174530 [mEh]       7.07312726 [kcal/mol]      29.59396729 [kJ/mol]
      Exch10(S^2)                  11.18349040 [mEh]       7.01774647 [kcal/mol]      29.36225404 [kJ/mol]

    Induction                      -2.29052228 [mEh]      -1.43732449 [kcal/mol]      -6.01376625 [kJ/mol]
      Ind20,r                      -4.35932626 [mEh]      -2.73551864 [kcal/mol]     -11.44541108 [kJ/mol]
      Exch-Ind20,r                  3.05550944 [mEh]       1.91736120 [kcal/mol]       8.02224004 [kJ/mol]
      delta HF,r (2)               -0.98670547 [mEh]      -0.61916706 [kcal/mol]      -2.59059521 [kJ/mol]
      Induction (A<-B)             -1.77890376 [mEh]      -1.11627901 [kcal/mol]      -4.67051183 [kJ/mol]
      Induction (B<-A)             -0.51161852 [mEh]      -0.32104548 [kcal/mol]      -1.34325442 [kJ/mol]

    Dispersion                     -2.91008533 [mEh]      -1.82610619 [kcal/mol]      -7.64042904 [kJ/mol]
      Disp20                       -3.64720180 [mEh]      -2.28865378 [kcal/mol]      -9.57572833 [kJ/mol]
      Exch-Disp20                   0.73711647 [mEh]       0.46254759 [kcal/mol]       1.93529929 [kJ/mol]

  Total HF                         16.34023432 [mEh]      10.25365227 [kcal/mol]      42.90128520 [kJ/mol]
  Total SAPT0                      13.43014898 [mEh]       8.42754607 [kcal/mol]      35.26085616 [kJ/mol]

  --------------------------------------------------------------------------------------------------------

*** Psi4 exiting successfully. Buy a developer a beer!
