 Q-Chem 5.0, Q-Chem, Inc., Pleasanton, CA (2017)
 Q-Chem 5.0.1 for Intel X86 EM64T Linux

User input:
--------------------------------------------------------------
$molecule
0  1
--
0  1
C        +0.22270000        +1.04488000        +0.58595000
C        +0.62626000        -0.41353000        +0.99871000
C        -1.18200000        +1.23223000        +0.04377000
C        -0.37457000        -1.51643000        +0.72333000
O        -2.09172000        +0.78832000        +0.93966000
O        -1.47336000        +1.75939000        -0.99882000
O        -0.91364000        -1.42792000        -0.50620000
O        -0.62208000        -2.40877000        +1.49911000
C        -1.86134000        -2.44741000        -0.86560000
C        -3.47068000        +0.87492000        +0.53920000
C        +1.33008000        +1.39974000        -0.43491000
C        +2.63070000        +1.71700000        +0.32855000
C        +3.04336000        +0.29351000        +0.80300000
C        +1.94423000        -0.59299000        +0.15262000
O        +1.62840000        +0.13663000        -1.04376000
H        +0.27811000        +1.68786000        +1.46900000
H        +0.83923000        -0.48042000        +2.06408000
H        -2.68749000        -2.46677000        -0.15296000
H        -3.76076000        +1.91522000        +0.38406000
H        +3.37234000        +2.13782000        -0.35195000
H        +2.48236000        +2.42488000        +1.14651000
H        +4.02182000        +0.00994000        +0.41161000
H        +3.07359000        +0.18738000        +1.88928000
H        -2.21148000        -2.17765000        -1.85937000
H        -1.38062000        -3.42697000        -0.88096000
H        -4.03855000        +0.43623000        +1.35671000
H        -3.63120000        +0.31700000        -0.38495000
H        +1.03270000        +2.19943000        -1.08064000
H        +2.24339000        -1.61496000        +0.04786000
--
0  1
C        +0.25087000        +2.64053000        +5.74474000
C        +0.65443000        +1.18212000        +6.15750000
C        -1.15383000        +2.82788000        +5.20256000
C        -0.34640000        +0.07922000        +5.88212000
O        -2.06355000        +2.38397000        +6.09845000
O        -1.44519000        +3.35504000        +4.15997000
O        -0.88547000        +0.16773000        +4.65259000
O        -0.59391000        -0.81312000        +6.65790000
C        -1.83317000        -0.85176000        +4.29319000
C        -3.44251000        +2.47057000        +5.69799000
C        +1.35825000        +2.99539000        +4.72388000
C        +2.65887000        +3.31265000        +5.48734000
C        +3.07153000        +1.88916000        +5.96179000
C        +1.97240000        +1.00266000        +5.31141000
O        +1.65657000        +1.73228000        +4.11503000
H        +0.30628000        +3.28351000        +6.62779000
H        +0.86740000        +1.11523000        +7.22287000
H        -2.65932000        -0.87112000        +5.00583000
H        -3.73259000        +3.51087000        +5.54285000
H        +3.40051000        +3.73347000        +4.80684000
H        +2.51053000        +4.02053000        +6.30530000
H        +4.04999000        +1.60559000        +5.57040000
H        +3.10176000        +1.78303000        +7.04807000
H        -2.18331000        -0.58200000        +3.29942000
H        -1.35245000        -1.83132000        +4.27783000
H        -4.01038000        +2.03188000        +6.51550000
H        -3.60303000        +1.91265000        +4.77384000
H        +1.06087000        +3.79508000        +4.07815000
H        +2.27156000        -0.01931000        +5.20665000
$end

$rem
JOBTYPE                   SP
METHOD                    B3LYP
DFT_D                     d3_op
BASIS                     6-311++G(d,p)
SYMMETRY                  False
THRESH                    12
SCF_CONVERGENCE           8
MAX_SUB_FILE_NUM          128
MEM_STATIC                400
MEM_TOTAL                 4000
$end
--------------------------------------------------------------

             Standard Nuclear Orientation (Angstroms)
    I     Atom           X                Y                Z
 ----------------------------------------------------------------
    1      C      -1.9322150041     0.6185570498     0.8662836013
    2      C      -2.0282364180     0.7035959224    -0.6969628596
    3      C      -2.4617159306    -0.6491004547     1.5104221617
    4      C      -2.7317917970    -0.4303235955    -1.4132865287
    5      O      -1.8346727326    -1.7310851967     0.9972055362
    6      O      -3.2718243140    -0.7056784642     2.3994134773
    7      O      -3.8847803295    -0.7810948105    -0.8151632097
    8      O      -2.3318550421    -0.9288600933    -2.4384101488
    9      C      -4.6346145221    -1.8376454517    -1.4381503171
   10      C      -2.2650377348    -3.0096732994     1.4966020536
   11      C      -2.6948329730     1.8941168486     1.2972502551
   12      C      -1.7892887832     3.1197116994     1.0669364574
   13      C      -1.8148870987     3.2117208078    -0.4863162292
   14      C      -2.8001001215     2.0684788368    -0.8595671457
   15      O      -3.6851787307     2.0434346724     0.2715507452
   16      H      -0.8790341985     0.6703208290     1.1568030548
   17      H      -1.0416022094     0.7612331864    -1.1531148234
   18      H      -4.0261238867    -2.7399685438    -1.5175643333
   19      H      -2.0663820701    -3.0906040371     2.5663800954
   20      H      -2.2333344762     4.0056152657     1.5232235442
   21      H      -0.7871112207     2.9924415060     1.4811825711
   22      H      -2.2187374147     4.1679269938    -0.8232979808
   23      H      -0.8337192177     3.0814283220    -0.9473098578
   24      H      -5.4922442581    -2.0029703395    -0.7900097402
   25      H      -4.9597730991    -1.5378651468    -2.4357820679
   26      H      -1.6882167738    -3.7469242997     0.9425385242
   27      H      -3.3336252644    -3.1437947175     1.3198911142
   28      H      -3.0392642345     1.8277478174     2.3081253469
   29      H      -3.2349477631     2.1952678684    -1.8289618611
   30      C       3.4505381113     0.2545182121     0.6350881016
   31      C       3.3545166974     0.3395570848    -0.9281583593
   32      C       2.9210371848    -1.0131392924     1.2792266621
   33      C       2.6509613183    -0.7943624331    -1.6444820283
   34      O       3.5480803827    -2.0951240343     0.7660100366
   35      O       2.1109288014    -1.0697173019     2.1682179777
   36      O       1.4979727859    -1.1451336481    -1.0463587094
   37      O       3.0508980733    -1.2928989310    -2.6696056484
   38      C       0.7481385933    -2.2016842894    -1.6693458168
   39      C       3.1177153806    -3.3737121371     1.2654065540
   40      C       2.6879201423     1.5300780109     1.0660547555
   41      C       3.5934643322     2.7556728617     0.8357409577
   42      C       3.5678660166     2.8476819702    -0.7175117289
   43      C       2.5826529938     1.7044399991    -1.0907626454
   44      O       1.6975743847     1.6793958348     0.0403552455
   45      H       4.5037189169     0.3062819913     0.9256075551
   46      H       4.3411509060     0.3971943487    -1.3843103231
   47      H       1.3566292287    -3.1040073814    -1.7487598330
   48      H       3.3163710453    -3.4546428748     2.3351845957
   49      H       3.1494186392     3.6415764281     1.2920280445
   50      H       4.5956418947     2.6284026683     1.2499870714
   51      H       3.1640157007     3.8038881561    -1.0544934804
   52      H       4.5490338977     2.7173894843    -1.1785053574
   53      H      -0.1094911428    -2.3670091771    -1.0212052399
   54      H       0.4229800163    -1.9019039845    -2.6669775676
   55      H       3.6945363416    -4.1109631374     0.7113430245
   56      H       2.0491278510    -3.5078335552     1.0886956145
   57      H       2.3434888808     1.4637089797     2.0769298473
   58      H       2.1478053522     1.8312290308    -2.0601573608
 ----------------------------------------------------------------

   15   -1531.7293571841      5.23E-09 Convergence criterion met
 Total energy in the final basis set = -1531.72935718

                    Orbital Energies (a.u.)
 --------------------------------------------------------------

 Alpha MOs
 -- Occupied --
-19.179 -19.172 -19.170 -19.170 -19.147 -19.127 -19.124 -19.116
-19.114 -19.112 -10.314 -10.306 -10.303 -10.302 -10.249 -10.239
-10.235 -10.234 -10.229 -10.228 -10.222 -10.220 -10.212 -10.210
-10.197 -10.194 -10.188 -10.187 -10.172 -10.169  -1.123  -1.116
 -1.113  -1.109  -1.075  -1.056  -1.035  -1.026  -1.025  -1.024
 -0.839  -0.823  -0.791  -0.783  -0.776  -0.769  -0.742  -0.735
 -0.727  -0.724  -0.662  -0.651  -0.615  -0.603  -0.603  -0.586
 -0.583  -0.574  -0.568  -0.562  -0.555  -0.545  -0.524  -0.512
 -0.509  -0.501  -0.500  -0.491  -0.488  -0.487  -0.482  -0.479
 -0.476  -0.474  -0.471  -0.467  -0.465  -0.453  -0.444  -0.432
 -0.429  -0.426  -0.422  -0.419  -0.418  -0.412  -0.400  -0.394
 -0.390  -0.377  -0.376  -0.375  -0.374  -0.371  -0.366  -0.364
 -0.360  -0.359  -0.355  -0.346  -0.343  -0.341  -0.328  -0.325
 -0.323  -0.316  -0.311  -0.309  -0.294  -0.288  -0.284  -0.281
 -0.277  -0.268

          Ground-State Mulliken Net Atomic Charges

     Atom                 Charge (a.u.)
  ----------------------------------------
      1 C                    -0.060883
      2 C                     0.895699
      3 C                    -0.585585
      4 C                    -0.846068
      5 O                     0.031603
      6 O                    -0.179656
      7 O                     0.017965
      8 O                    -0.125529
      9 C                    -0.196045
     10 C                    -0.255817
     11 C                    -0.464300
     12 C                    -0.252127
     13 C                    -0.428105
     14 C                    -0.208138
     15 O                    -0.087661
     16 H                     0.230661
     17 H                     0.369994
     18 H                     0.185184
     19 H                     0.190451
     20 H                     0.201636
     21 H                     0.111999
     22 H                     0.194385
     23 H                     0.089819
     24 H                     0.174228
     25 H                     0.174565
     26 H                     0.127566
     27 H                     0.186583
     28 H                     0.279704
     29 H                     0.262262
     30 C                    -0.054513
     31 C                     0.274910
     32 C                    -0.453146
     33 C                    -0.534503
     34 O                     0.023795
     35 O                    -0.129585
     36 O                    -0.007361
     37 O                    -0.145730
     38 C                    -0.369107
     39 C                    -0.164119
     40 C                    -0.172294
     41 C                    -0.640246
     42 C                    -0.479108
     43 C                    -0.127016
     44 O                     0.169879
     45 H                     0.246511
     46 H                     0.289978
     47 H                     0.214791
     48 H                     0.169505
     49 H                     0.182290
     50 H                     0.137976
     51 H                     0.179184
     52 H                     0.132032
     53 H                     0.124884
     54 H                     0.220930
     55 H                     0.167604
     56 H                     0.181318
     57 H                     0.271145
     58 H                     0.255610
  ----------------------------------------
  Sum of atomic charges =     0.000000

                    Cartesian Multipole Moments
 -----------------------------------------------------------------
    Charge (ESU x 10^10)
                 0.0000
    Dipole Moment (Debye)
         X       3.2672      Y      -0.0501      Z       0.5840
       Tot       3.3194
    Quadrupole Moments (Debye-Ang)
        XX    -176.8320     XY      14.6377     YY    -154.0036
        XZ      17.4153     YZ      -7.0063     ZZ    -193.5807

 Total job time:  6930.99s(wall), 6914.47s(cpu)
        *  Thank you very much for using Q-Chem.  Have a nice day.  *
