 Q-Chem 5.0, Q-Chem, Inc., Pleasanton, CA (2017)
 Q-Chem 5.0.1 for Intel X86 EM64T Linux

User input:
--------------------------------------------------------------
$molecule
0  1
--
0  1
C        -0.54444000        -0.68370000        -0.06689000
C        -0.55709000        +0.71878000        +0.05493000
C        +0.74969000        -1.43776000        -0.09374000
C        +0.72843000        +1.48436000        +0.06598000
O        +1.53645000        -1.09176000        +0.94813000
O        +1.04702000        -2.28405000        -0.90088000
O        +1.53784000        +1.08301000        -0.93877000
O        +1.01035000        +2.37097000        +0.83478000
C        +2.83449000        +1.70121000        -0.99358000
C        +2.82316000        -1.73208000        +1.00475000
C        -1.74320000        -1.41616000        -0.12552000
C        -2.93952000        -0.70056000        -0.05285000
C        -2.95313000        +0.68255000        +0.06934000
C        -1.77161000        +1.42404000        +0.12810000
H        +2.73835000        +2.77989000        -1.12464000
H        +2.70778000        -2.81319000        +1.09555000
H        -3.90354000        +1.20325000        +0.11710000
H        +3.38998000        +1.50093000        -0.07544000
H        +3.33184000        +1.25269000        -1.85067000
H        +3.31095000        -1.32281000        +1.88650000
H        +3.39889000        -1.50934000        +0.10459000
H        -3.87892000        -1.24211000        -0.08988000
H        -1.78886000        +2.45164000        +0.22176000
H        -1.73878000        -2.44393000        -0.21875000
--
0  1
C        -0.50728000        -1.15453000        +5.31242000
C        -0.51993000        +0.24795000        +5.43424000
C        +0.78685000        -1.90859000        +5.28557000
C        +0.76559000        +1.01353000        +5.44529000
O        +1.57361000        -1.56259000        +6.32744000
O        +1.08418000        -2.75488000        +4.47843000
O        +1.57500000        +0.61218000        +4.44054000
O        +1.04751000        +1.90014000        +6.21409000
C        +2.87165000        +1.23038000        +4.38573000
C        +2.86032000        -2.20291000        +6.38406000
C        -1.70604000        -1.88699000        +5.25379000
C        -2.90236000        -1.17139000        +5.32646000
C        -2.91597000        +0.21172000        +5.44865000
C        -1.73445000        +0.95321000        +5.50741000
H        +2.77551000        +2.30906000        +4.25467000
H        +2.74494000        -3.28402000        +6.47486000
H        -3.86638000        +0.73242000        +5.49641000
H        +3.42714000        +1.03010000        +5.30387000
H        +3.36900000        +0.78186000        +3.52864000
H        +3.34811000        -1.79364000        +7.26581000
H        +3.43605000        -1.98017000        +5.48390000
H        -3.84176000        -1.71294000        +5.28943000
H        -1.75170000        +1.98081000        +5.60107000
H        -1.70162000        -2.91476000        +5.16056000
$end

$rem
JOBTYPE                   SP
METHOD                    B3LYP
DFT_D                     d3_op
BASIS                     6-311++G(d,p)
SYMMETRY                  False
THRESH                    12
SCF_CONVERGENCE           8
MAX_SUB_FILE_NUM          128
MEM_STATIC                400
MEM_TOTAL                 4000
$end
--------------------------------------------------------------

             Standard Nuclear Orientation (Angstroms)
    I     Atom           X                Y                Z
 ----------------------------------------------------------------
    1      C      -2.6746402417     0.8073164528     0.8271623305
    2      C      -2.7428698998     0.8285891291    -0.5788399711
    3      C      -2.5859353652    -0.4909050619     1.5693565145
    4      C      -2.8212747491    -0.4527573913    -1.3474753096
    5      O      -1.5917974656    -1.2638794097     1.0810933796
    6      O      -3.2685859922    -0.8018231693     2.5145575113
    7      O      -3.7541620353    -1.2756868419    -0.8199742540
    8      O      -2.1758643460    -0.7212751637    -2.3313214541
    9      C      -3.8778649568    -2.5696767873    -1.4337854686
   10      C      -1.4357777154    -2.5531387458     1.6994026490
   11      C      -2.6469130168     2.0015352086     1.5688047176
   12      C      -2.6839972688     3.2022813707     0.8579044126
   13      C      -2.7492630033     3.2244183902    -0.5289478638
   14      C      -2.7782608441     2.0474862983    -1.2794407981
   15      H      -4.1539592387    -2.4694875316    -2.4843587531
   16      H      -1.2015029188    -2.4422986285     2.7592072558
   17      H      -2.7821699829     4.1779840862    -1.0450081992
   18      H      -2.9352506123    -3.1156326161    -1.3625625183
   19      H      -4.6614222608    -3.0791216901    -0.8773375165
   20      H      -0.6119982610    -3.0286757143     1.1719786436
   21      H      -2.3515383824    -3.1379917950     1.5959837061
   22      H      -2.6578023163     4.1383919893     1.4057462854
   23      H      -2.8239760482     2.0711039732    -2.3101608589
   24      H      -2.6008856691     1.9907505728     2.5997206779
   25      C       2.7191747930     0.8293831362     0.5696545371
   26      C       2.6509451349     0.8506558124    -0.8363477645
   27      C       2.8078796695    -0.4688383785     1.3118487211
   28      C       2.5725402856    -0.4306907080    -1.6049831030
   29      O       3.8020175691    -1.2418127263     0.8235855862
   30      O       2.1252290425    -0.7797564860     2.2570497180
   31      O       1.6396529994    -1.2536201586    -1.0774820474
   32      O       3.2179506887    -0.6992084804    -2.5888292475
   33      C       1.5159500778    -2.5476101040    -1.6912932620
   34      C       3.9580373193    -2.5310720624     1.4418948556
   35      C       2.7469020179     2.0236018920     1.3112969243
   36      C       2.7098177659     3.2243480541     0.6003966192
   37      C       2.6445520314     3.2464850735    -0.7864556572
   38      C       2.6155541906     2.0695529817    -1.5369485915
   39      H       1.2398557960    -2.4474208483    -2.7418665465
   40      H       4.1923121159    -2.4202319451     2.5016994624
   41      H       2.6116450518     4.2000507696    -1.3025159926
   42      H       2.4585644224    -3.0935659327    -1.6200703117
   43      H       0.7323927739    -3.0570550068    -1.1348453099
   44      H       4.7818167737    -3.0066090309     0.9144708502
   45      H       3.0422766523    -3.1159251116     1.3384759127
   46      H       2.7360127184     4.1604586727     1.1482384920
   47      H       2.5698389864     2.0931706565    -2.5676686523
   48      H       2.7929293656     2.0128172561     2.3422128845
 ----------------------------------------------------------------

   15   -1376.4251268829      5.46E-09 Convergence criterion met
 Total energy in the final basis set = -1376.42512688

                    Orbital Energies (a.u.)
 --------------------------------------------------------------

 Alpha MOs
 -- Occupied --
-19.178 -19.177 -19.173 -19.172 -19.121 -19.121 -19.117 -19.116
-10.313 -10.313 -10.309 -10.309 -10.234 -10.233 -10.229 -10.227
-10.212 -10.211 -10.211 -10.211 -10.195 -10.195 -10.195 -10.195
-10.195 -10.194 -10.194 -10.194  -1.121  -1.120  -1.113  -1.112
 -1.032  -1.031  -1.027  -1.027  -0.884  -0.884  -0.797  -0.797
 -0.784  -0.784  -0.741  -0.741  -0.730  -0.729  -0.653  -0.653
 -0.643  -0.643  -0.593  -0.593  -0.576  -0.576  -0.552  -0.551
 -0.521  -0.520  -0.513  -0.512  -0.491  -0.491  -0.488  -0.487
 -0.483  -0.481  -0.477  -0.475  -0.469  -0.469  -0.465  -0.465
 -0.439  -0.437  -0.430  -0.427  -0.413  -0.413  -0.405  -0.404
 -0.386  -0.386  -0.385  -0.383  -0.381  -0.380  -0.367  -0.366
 -0.363  -0.361  -0.321  -0.321  -0.312  -0.311  -0.299  -0.299
 -0.294  -0.293  -0.273  -0.272  -0.269  -0.268

          Ground-State Mulliken Net Atomic Charges

     Atom                 Charge (a.u.)
  ----------------------------------------
      1 C                     0.809468
      2 C                     0.959843
      3 C                    -0.691230
      4 C                    -0.876343
      5 O                     0.094799
      6 O                    -0.180652
      7 O                     0.065378
      8 O                    -0.129139
      9 C                    -0.186500
     10 C                    -0.332918
     11 C                    -0.395506
     12 C                    -0.240340
     13 C                    -0.207018
     14 C                    -0.445829
     15 H                     0.170362
     16 H                     0.198938
     17 H                     0.180167
     18 H                     0.174759
     19 H                     0.172863
     20 H                     0.108273
     21 H                     0.186822
     22 H                     0.178702
     23 H                     0.188541
     24 H                     0.197998
     25 C                     0.945298
     26 C                     0.845590
     27 C                    -0.928868
     28 C                    -0.648822
     29 O                     0.073727
     30 O                    -0.118295
     31 O                     0.078892
     32 O                    -0.183335
     33 C                    -0.340303
     34 C                    -0.185573
     35 C                    -0.435046
     36 C                    -0.203213
     37 C                    -0.250967
     38 C                    -0.409949
     39 H                     0.202048
     40 H                     0.169808
     41 H                     0.178303
     42 H                     0.191057
     43 H                     0.104788
     44 H                     0.171423
     45 H                     0.174347
     46 H                     0.180830
     47 H                     0.199297
     48 H                     0.187520
  ----------------------------------------
  Sum of atomic charges =     0.000000

                    Cartesian Multipole Moments
 -----------------------------------------------------------------
    Charge (ESU x 10^10)
                 0.0000
    Dipole Moment (Debye)
         X       0.1882      Y       0.1658      Z       0.2056
       Tot       0.3243
    Quadrupole Moments (Debye-Ang)
        XX    -170.2080     XY      -0.7813     YY    -124.4661
        XZ      18.8849     YZ       0.5194     ZZ    -173.7714

 Total job time:  1236.37s(wall), 2460.52s(cpu)
        *  Thank you very much for using Q-Chem.  Have a nice day.  *
