 Q-Chem 5.0, Q-Chem, Inc., Pleasanton, CA (2017)
 Q-Chem 5.0.1 for Intel X86 EM64T Linux

User input:
--------------------------------------------------------------
$molecule
0  1
C        +0.22270000        +1.04488000        +0.58595000
C        +0.62626000        -0.41353000        +0.99871000
C        -1.18200000        +1.23223000        +0.04377000
C        -0.37457000        -1.51643000        +0.72333000
O        -2.09172000        +0.78832000        +0.93966000
O        -1.47336000        +1.75939000        -0.99882000
O        -0.91364000        -1.42792000        -0.50620000
O        -0.62208000        -2.40877000        +1.49911000
C        -1.86134000        -2.44741000        -0.86560000
C        -3.47068000        +0.87492000        +0.53920000
C        +1.33008000        +1.39974000        -0.43491000
C        +2.63070000        +1.71700000        +0.32855000
C        +3.04336000        +0.29351000        +0.80300000
C        +1.94423000        -0.59299000        +0.15262000
O        +1.62840000        +0.13663000        -1.04376000
H        +0.27811000        +1.68786000        +1.46900000
H        +0.83923000        -0.48042000        +2.06408000
H        -2.68749000        -2.46677000        -0.15296000
H        -3.76076000        +1.91522000        +0.38406000
H        +3.37234000        +2.13782000        -0.35195000
H        +2.48236000        +2.42488000        +1.14651000
H        +4.02182000        +0.00994000        +0.41161000
H        +3.07359000        +0.18738000        +1.88928000
H        -2.21148000        -2.17765000        -1.85937000
H        -1.38062000        -3.42697000        -0.88096000
H        -4.03855000        +0.43623000        +1.35671000
H        -3.63120000        +0.31700000        -0.38495000
C        +2.35450000        -2.01267000        -0.16812000
H        +3.26311000        -2.00678000        -0.77366000
H        +2.54990000        -2.57059000        +0.75079000
H        +1.57335000        -2.52896000        -0.72872000
H        +1.03270000        +2.19943000        -1.08064000
@C        +0.25087000        +2.64053000        +5.74474000
@C        +0.65443000        +1.18212000        +6.15750000
@C        -1.15383000        +2.82788000        +5.20256000
@C        -0.34640000        +0.07922000        +5.88212000
@O        -2.06355000        +2.38397000        +6.09845000
@O        -1.44519000        +3.35504000        +4.15997000
@O        -0.88547000        +0.16773000        +4.65259000
@O        -0.59391000        -0.81312000        +6.65790000
@C        -1.83317000        -0.85176000        +4.29319000
@C        -3.44251000        +2.47057000        +5.69799000
@C        +1.35825000        +2.99539000        +4.72388000
@C        +2.65887000        +3.31265000        +5.48734000
@C        +3.07153000        +1.88916000        +5.96179000
@C        +1.97240000        +1.00266000        +5.31141000
@O        +1.65657000        +1.73228000        +4.11503000
@H        +0.30628000        +3.28351000        +6.62779000
@H        +0.86740000        +1.11523000        +7.22287000
@H        -2.65932000        -0.87112000        +5.00583000
@H        -3.73259000        +3.51087000        +5.54285000
@H        +3.40051000        +3.73347000        +4.80684000
@H        +2.51053000        +4.02053000        +6.30530000
@H        +4.04999000        +1.60559000        +5.57040000
@H        +3.10176000        +1.78303000        +7.04807000
@H        -2.18331000        -0.58200000        +3.29942000
@H        -1.35245000        -1.83132000        +4.27783000
@H        -4.01038000        +2.03188000        +6.51550000
@H        -3.60303000        +1.91265000        +4.77384000
@C        +2.38267000        -0.41702000        +4.99067000
@H        +3.29128000        -0.41113000        +4.38513000
@H        +2.57807000        -0.97494000        +5.90958000
@H        +1.60152000        -0.93331000        +4.43007000
@H        +1.06087000        +3.79508000        +4.07815000
$end

$rem
JOBTYPE                   SP
METHOD                    B3LYP
DFT_D                     d3_op
BASIS                     6-311++G(d,p)
SYMMETRY                  False
THRESH                    12
SCF_CONVERGENCE           8
MAX_SUB_FILE_NUM          128
MEM_STATIC                400
MEM_TOTAL                 4000
$end
--------------------------------------------------------------

             Standard Nuclear Orientation (Angstroms)
    I     Atom           X                Y                Z
 ----------------------------------------------------------------
    1      C       0.2227000000     1.0448800000     0.5859500000
    2      C       0.6262600000    -0.4135300000     0.9987100000
    3      C      -1.1820000000     1.2322300000     0.0437700000
    4      C      -0.3745700000    -1.5164300000     0.7233300000
    5      O      -2.0917200000     0.7883200000     0.9396600000
    6      O      -1.4733600000     1.7593900000    -0.9988200000
    7      O      -0.9136400000    -1.4279200000    -0.5062000000
    8      O      -0.6220800000    -2.4087700000     1.4991100000
    9      C      -1.8613400000    -2.4474100000    -0.8656000000
   10      C      -3.4706800000     0.8749200000     0.5392000000
   11      C       1.3300800000     1.3997400000    -0.4349100000
   12      C       2.6307000000     1.7170000000     0.3285500000
   13      C       3.0433600000     0.2935100000     0.8030000000
   14      C       1.9442300000    -0.5929900000     0.1526200000
   15      O       1.6284000000     0.1366300000    -1.0437600000
   16      H       0.2781100000     1.6878600000     1.4690000000
   17      H       0.8392300000    -0.4804200000     2.0640800000
   18      H      -2.6874900000    -2.4667700000    -0.1529600000
   19      H      -3.7607600000     1.9152200000     0.3840600000
   20      H       3.3723400000     2.1378200000    -0.3519500000
   21      H       2.4823600000     2.4248800000     1.1465100000
   22      H       4.0218200000     0.0099400000     0.4116100000
   23      H       3.0735900000     0.1873800000     1.8892800000
   24      H      -2.2114800000    -2.1776500000    -1.8593700000
   25      H      -1.3806200000    -3.4269700000    -0.8809600000
   26      H      -4.0385500000     0.4362300000     1.3567100000
   27      H      -3.6312000000     0.3170000000    -0.3849500000
   28      C       2.3545000000    -2.0126700000    -0.1681200000
   29      H       3.2631100000    -2.0067800000    -0.7736600000
   30      H       2.5499000000    -2.5705900000     0.7507900000
   31      H       1.5733500000    -2.5289600000    -0.7287200000
   32      H       1.0327000000     2.1994300000    -1.0806400000
   33      GH      0.2508700000     2.6405300000     5.7447400000
   34      GH      0.6544300000     1.1821200000     6.1575000000
   35      GH     -1.1538300000     2.8278800000     5.2025600000
   36      GH     -0.3464000000     0.0792200000     5.8821200000
   37      GH     -2.0635500000     2.3839700000     6.0984500000
   38      GH     -1.4451900000     3.3550400000     4.1599700000
   39      GH     -0.8854700000     0.1677300000     4.6525900000
   40      GH     -0.5939100000    -0.8131200000     6.6579000000
   41      GH     -1.8331700000    -0.8517600000     4.2931900000
   42      GH     -3.4425100000     2.4705700000     5.6979900000
   43      GH      1.3582500000     2.9953900000     4.7238800000
   44      GH      2.6588700000     3.3126500000     5.4873400000
   45      GH      3.0715300000     1.8891600000     5.9617900000
   46      GH      1.9724000000     1.0026600000     5.3114100000
   47      GH      1.6565700000     1.7322800000     4.1150300000
   48      GH      0.3062800000     3.2835100000     6.6277900000
   49      GH      0.8674000000     1.1152300000     7.2228700000
   50      GH     -2.6593200000    -0.8711200000     5.0058300000
   51      GH     -3.7325900000     3.5108700000     5.5428500000
   52      GH      3.4005100000     3.7334700000     4.8068400000
   53      GH      2.5105300000     4.0205300000     6.3053000000
   54      GH      4.0499900000     1.6055900000     5.5704000000
   55      GH      3.1017600000     1.7830300000     7.0480700000
   56      GH     -2.1833100000    -0.5820000000     3.2994200000
   57      GH     -1.3524500000    -1.8313200000     4.2778300000
   58      GH     -4.0103800000     2.0318800000     6.5155000000
   59      GH     -3.6030300000     1.9126500000     4.7738400000
   60      GH      2.3826700000    -0.4170200000     4.9906700000
   61      GH      3.2912800000    -0.4111300000     4.3851300000
   62      GH      2.5780700000    -0.9749400000     5.9095800000
   63      GH      1.6015200000    -0.9333100000     4.4300700000
   64      GH      1.0608700000     3.7950800000     4.0781500000
 ----------------------------------------------------------------

   14    -805.1970271954      6.70E-09 Convergence criterion met
 Total energy in the final basis set = -805.19702720

                    Orbital Energies (a.u.)
 --------------------------------------------------------------

 Alpha MOs
 -- Occupied --
-19.175 -19.173 -19.131 -19.119 -19.116 -10.309 -10.306 -10.246
-10.232 -10.230 -10.228 -10.205 -10.204 -10.180 -10.178 -10.171
 -1.120  -1.113  -1.063  -1.030  -1.027  -0.832  -0.796  -0.784
 -0.746  -0.729  -0.697  -0.655  -0.606  -0.590  -0.569  -0.562
 -0.534  -0.518  -0.510  -0.492  -0.490  -0.483  -0.476  -0.472
 -0.461  -0.443  -0.434  -0.425  -0.416  -0.405  -0.397  -0.389
 -0.381  -0.374  -0.369  -0.361  -0.355  -0.351  -0.333  -0.332
 -0.320  -0.313  -0.289  -0.281  -0.274

          Ground-State Mulliken Net Atomic Charges

     Atom                 Charge (a.u.)
  ----------------------------------------
      1 C                    -0.065665
      2 C                     0.847258
      3 C                    -0.630461
      4 C                    -0.894616
      5 O                     0.042634
      6 O                    -0.167676
      7 O                     0.048374
      8 O                    -0.074974
      9 C                    -0.174258
     10 C                    -0.274102
     11 C                    -0.284368
     12 C                    -0.402351
     13 C                    -0.265892
     14 C                    -0.406845
     15 O                     0.020254
     16 H                     0.189970
     17 H                     0.303906
     18 H                     0.196292
     19 H                     0.187386
     20 H                     0.204728
     21 H                     0.116961
     22 H                     0.194582
     23 H                     0.079122
     24 H                     0.179785
     25 H                     0.175757
     26 H                     0.136914
     27 H                     0.185836
     28 C                    -0.267122
     29 H                     0.185324
     30 H                     0.162658
     31 H                     0.186315
     32 H                     0.291291
     33 GH                    0.001060
     34 GH                    0.015141
     35 GH                    0.001484
     36 GH                    0.013578
     37 GH                    0.000661
     38 GH                   -0.001783
     39 GH                    0.005066
     40 GH                    0.000463
     41 GH                   -0.022524
     42 GH                   -0.000195
     43 GH                   -0.018010
     44 GH                    0.009199
     45 GH                   -0.015289
     46 GH                   -0.048534
     47 GH                    0.002827
     48 GH                   -0.000174
     49 GH                    0.000344
     50 GH                   -0.002288
     51 GH                    0.000180
     52 GH                    0.002654
     53 GH                   -0.000128
     54 GH                   -0.000913
     55 GH                    0.000145
     56 GH                   -0.000491
     57 GH                    0.000505
     58 GH                   -0.000082
     59 GH                   -0.000547
     60 GH                    0.019539
     61 GH                    0.012430
     62 GH                   -0.000118
     63 GH                   -0.004370
     64 GH                    0.003154
  ----------------------------------------
  Sum of atomic charges =     0.000000

                    Cartesian Multipole Moments
 -----------------------------------------------------------------
    Charge (ESU x 10^10)
                 0.0000
    Dipole Moment (Debye)
         X       0.0511      Y       0.4816      Z       1.1170
       Tot       1.2175
    Quadrupole Moments (Debye-Ang)
        XX     -81.7498     XY       2.5776     YY     -96.1926
        XZ       3.0748     YZ      10.8522     ZZ    -102.2394

 Total job time:  8224.50s(wall), 8186.79s(cpu)
        *  Thank you very much for using Q-Chem.  Have a nice day.  *
