 Q-Chem 5.0, Q-Chem, Inc., Pleasanton, CA (2017)
 Q-Chem 5.0.1 for Intel X86 EM64T Linux

User input:
--------------------------------------------------------------
$molecule
0  1
--
0  1
C        +0.22270000        +1.04488000        +0.58595000
C        +0.62626000        -0.41353000        +0.99871000
C        -1.18200000        +1.23223000        +0.04377000
C        -0.37457000        -1.51643000        +0.72333000
O        -2.09172000        +0.78832000        +0.93966000
O        -1.47336000        +1.75939000        -0.99882000
O        -0.91364000        -1.42792000        -0.50620000
O        -0.62208000        -2.40877000        +1.49911000
C        -1.86134000        -2.44741000        -0.86560000
C        -3.47068000        +0.87492000        +0.53920000
C        +1.33008000        +1.39974000        -0.43491000
C        +2.63070000        +1.71700000        +0.32855000
C        +3.04336000        +0.29351000        +0.80300000
C        +1.94423000        -0.59299000        +0.15262000
O        +1.62840000        +0.13663000        -1.04376000
H        +0.27811000        +1.68786000        +1.46900000
H        +0.83923000        -0.48042000        +2.06408000
H        -2.68749000        -2.46677000        -0.15296000
H        -3.76076000        +1.91522000        +0.38406000
H        +3.37234000        +2.13782000        -0.35195000
H        +2.48236000        +2.42488000        +1.14651000
H        +4.02182000        +0.00994000        +0.41161000
H        +3.07359000        +0.18738000        +1.88928000
H        -2.21148000        -2.17765000        -1.85937000
H        -1.38062000        -3.42697000        -0.88096000
H        -4.03855000        +0.43623000        +1.35671000
H        -3.63120000        +0.31700000        -0.38495000
C        +2.35450000        -2.01267000        -0.16812000
H        +3.26311000        -2.00678000        -0.77366000
H        +2.54990000        -2.57059000        +0.75079000
H        +1.57335000        -2.52896000        -0.72872000
H        +1.03270000        +2.19943000        -1.08064000
--
0  1
C        +0.25087000        +2.64053000        +5.74474000
C        +0.65443000        +1.18212000        +6.15750000
C        -1.15383000        +2.82788000        +5.20256000
C        -0.34640000        +0.07922000        +5.88212000
O        -2.06355000        +2.38397000        +6.09845000
O        -1.44519000        +3.35504000        +4.15997000
O        -0.88547000        +0.16773000        +4.65259000
O        -0.59391000        -0.81312000        +6.65790000
C        -1.83317000        -0.85176000        +4.29319000
C        -3.44251000        +2.47057000        +5.69799000
C        +1.35825000        +2.99539000        +4.72388000
C        +2.65887000        +3.31265000        +5.48734000
C        +3.07153000        +1.88916000        +5.96179000
C        +1.97240000        +1.00266000        +5.31141000
O        +1.65657000        +1.73228000        +4.11503000
H        +0.30628000        +3.28351000        +6.62779000
H        +0.86740000        +1.11523000        +7.22287000
H        -2.65932000        -0.87112000        +5.00583000
H        -3.73259000        +3.51087000        +5.54285000
H        +3.40051000        +3.73347000        +4.80684000
H        +2.51053000        +4.02053000        +6.30530000
H        +4.04999000        +1.60559000        +5.57040000
H        +3.10176000        +1.78303000        +7.04807000
H        -2.18331000        -0.58200000        +3.29942000
H        -1.35245000        -1.83132000        +4.27783000
H        -4.01038000        +2.03188000        +6.51550000
H        -3.60303000        +1.91265000        +4.77384000
C        +2.38267000        -0.41702000        +4.99067000
H        +3.29128000        -0.41113000        +4.38513000
H        +2.57807000        -0.97494000        +5.90958000
H        +1.60152000        -0.93331000        +4.43007000
H        +1.06087000        +3.79508000        +4.07815000
$end

$rem
JOBTYPE                   SP
METHOD                    B3LYP
DFT_D                     d3_op
BASIS                     6-311++G(d,p)
SYMMETRY                  False
THRESH                    12
SCF_CONVERGENCE           8
MAX_SUB_FILE_NUM          128
MEM_STATIC                400
MEM_TOTAL                 4000
$end
--------------------------------------------------------------

             Standard Nuclear Orientation (Angstroms)
    I     Atom           X                Y                Z
 ----------------------------------------------------------------
    1      C      -1.8609293547     0.2102731101     1.1229227258
    2      C      -1.9951147494     0.5695543906    -0.3979659817
    3      C      -2.3265731006    -1.1732762197     1.5366961164
    4      C      -2.6702411519    -0.4464052241    -1.2956929141
    5      O      -1.6698848947    -2.1186745543     0.8280015083
    6      O      -3.1138004591    -1.4219692313     2.4131703575
    7      O      -3.7951630453    -0.9466259659    -0.7530102730
    8      O      -2.2744019408    -0.7362289281    -2.3996313289
    9      C      -4.5174193413    -1.9051786583    -1.5443294810
   10      C      -2.0393082318    -3.4829072270     1.0959456556
   11      C      -2.6623675762     1.3549754016     1.7875464274
   12      C      -1.8101722944     2.6389154482     1.7675809058
   13      C      -1.8740500475     3.0062161217     0.2567120478
   14      C      -2.8225176643     1.9078815174    -0.3009916624
   15      O      -3.6804398393     1.6437128750     0.8204375631
   16      H      -0.8042939128     0.2533798878     1.4020897001
   17      H      -1.0218932664     0.7492478969    -0.8511700404
   18      H      -3.8764917223    -2.7523777992    -1.7937684609
   19      H      -1.8137907460    -3.7455426010     2.1306453415
   20      H      -2.2777524204     3.4094413474     2.3822826842
   21      H      -0.7948122094     2.4817579742     2.1370438103
   22      H      -2.3219372773     3.9894789972     0.1031763984
   23      H      -0.8991458013     3.0018182002    -0.2349423403
   24      H      -5.3533134321    -2.2196638456    -0.9235820074
   25      H      -4.8761446737    -1.4456416831    -2.4668300750
   26      H      -1.4470090930    -4.0842436249     0.4097794077
   27      H      -3.1056104876    -3.6279798774     0.9141544442
   28      C      -3.6263589909     2.2965199860    -1.5214367391
   29      H      -4.1706746483     3.2226456693    -1.3257400357
   30      H      -2.9674502799     2.4523262327    -2.3790002636
   31      H      -4.3510408346     1.5213351243    -1.7762851298
   32      H      -2.9812763310     1.0943964199     2.7751202190
   33      C       3.5253407041     0.1197566550     0.7488794656
   34      C       3.3911553094     0.4790379355    -0.7720092419
   35      C       3.0596969582    -1.2637926748     1.1626528563
   36      C       2.7160289069    -0.5369216792    -1.6697361743
   37      O       3.7163851641    -2.2091910094     0.4539582481
   38      O       2.2724695997    -1.5124856864     2.0391270974
   39      O       1.5911070135    -1.0371424211    -1.1270535332
   40      O       3.1118681180    -0.8267453832    -2.7736745891
   41      C       0.8688507175    -1.9956951134    -1.9183727412
   42      C       3.3469618270    -3.5734236821     0.7219023955
   43      C       2.7239024826     1.2644589465     1.4135031672
   44      C       3.5760977644     2.5483989931     1.3935376456
   45      C       3.5122200113     2.9156996666    -0.1173312124
   46      C       2.5637523945     1.8173650623    -0.6750349226
   47      O       1.7058302195     1.5531964199     0.4463943029
   48      H       4.5819761460     0.1628634326     1.0280464399
   49      H       4.3643767924     0.6587314418    -1.2252133005
   50      H       1.5097783365    -2.8428942543    -2.1678117210
   51      H       3.5724793128    -3.8360590561     1.7566020813
   52      H       3.1085176384     3.3189248923     2.0082394240
   53      H       4.5914578494     2.3912415191     1.7630005502
   54      H       3.0643327815     3.8989625421    -0.2708668617
   55      H       4.4871242575     2.9113017451    -0.6089856005
   56      H       0.0329566267    -2.3101803007    -1.2976252676
   57      H       0.5101253851    -1.5361581382    -2.8408733351
   58      H       3.9392609658    -4.1747600800     0.0357361475
   59      H       2.2806595712    -3.7184963325     0.5401111840
   60      C       1.7599110679     2.2060035309    -1.8954799993
   61      H       1.2155954105     3.1321292142    -1.6997832958
   62      H       2.4188197789     2.3618097776    -2.7530435238
   63      H       1.0352292242     1.4308186692    -2.1503283899
   64      H       2.4049937278     1.0038799648     2.4010769588
 ----------------------------------------------------------------

   15   -1610.4067988754      5.31E-09 Convergence criterion met
 Total energy in the final basis set = -1610.40679888

                    Orbital Energies (a.u.)
 --------------------------------------------------------------

 Alpha MOs
 -- Occupied --
-19.178 -19.171 -19.171 -19.170 -19.140 -19.123 -19.123 -19.115
-19.114 -19.111 -10.313 -10.306 -10.303 -10.301 -10.252 -10.238
-10.236 -10.234 -10.229 -10.229 -10.220 -10.219 -10.210 -10.208
-10.195 -10.193 -10.185 -10.184 -10.176 -10.170 -10.168 -10.166
 -1.122  -1.116  -1.113  -1.108  -1.072  -1.055  -1.034  -1.026
 -1.026  -1.024  -0.837  -0.823  -0.802  -0.789  -0.788  -0.775
 -0.747  -0.742  -0.728  -0.724  -0.702  -0.690  -0.659  -0.648
 -0.610  -0.599  -0.595  -0.583  -0.568  -0.565  -0.565  -0.555
 -0.538  -0.527  -0.521  -0.513  -0.511  -0.504  -0.496  -0.493
 -0.486  -0.485  -0.484  -0.479  -0.476  -0.473  -0.472  -0.467
 -0.464  -0.454  -0.447  -0.438  -0.436  -0.429  -0.427  -0.419
 -0.417  -0.411  -0.409  -0.399  -0.398  -0.395  -0.393  -0.386
 -0.383  -0.375  -0.373  -0.372  -0.370  -0.365  -0.364  -0.358
 -0.356  -0.353  -0.346  -0.342  -0.339  -0.337  -0.325  -0.323
 -0.321  -0.316  -0.311  -0.309  -0.293  -0.285  -0.284  -0.279
 -0.276  -0.266

          Ground-State Mulliken Net Atomic Charges

     Atom                 Charge (a.u.)
  ----------------------------------------
      1 C                    -0.125367
      2 C                     0.901363
      3 C                    -0.698312
      4 C                    -0.788362
      5 O                     0.034244
      6 O                    -0.171776
      7 O                     0.055640
      8 O                    -0.089246
      9 C                    -0.172614
     10 C                    -0.257360
     11 C                    -0.301916
     12 C                    -0.402320
     13 C                    -0.247807
     14 C                    -0.436537
     15 O                     0.018010
     16 H                     0.252543
     17 H                     0.236770
     18 H                     0.192856
     19 H                     0.191640
     20 H                     0.198322
     21 H                     0.120576
     22 H                     0.189310
     23 H                     0.064727
     24 H                     0.180391
     25 H                     0.175405
     26 H                     0.126960
     27 H                     0.186390
     28 C                    -0.277696
     29 H                     0.183618
     30 H                     0.158338
     31 H                     0.183026
     32 H                     0.287102
     33 C                    -0.010506
     34 C                     0.480744
     35 C                    -0.618865
     36 C                    -0.876218
     37 O                     0.020995
     38 O                    -0.111353
     39 O                     0.051065
     40 O                    -0.096283
     41 C                    -0.340124
     42 C                    -0.159511
     43 C                    -0.138837
     44 C                    -0.668604
     45 C                    -0.315846
     46 C                    -0.316531
     47 O                     0.233960
     48 H                     0.248747
     49 H                     0.286280
     50 H                     0.214328
     51 H                     0.170552
     52 H                     0.178060
     53 H                     0.141297
     54 H                     0.168483
     55 H                     0.147565
     56 H                     0.130506
     57 H                     0.223613
     58 H                     0.165725
     59 H                     0.179685
     60 C                    -0.233169
     61 H                     0.198038
     62 H                     0.194357
     63 H                     0.209210
     64 H                     0.274721
  ----------------------------------------
  Sum of atomic charges =     0.000000

                    Cartesian Multipole Moments
 -----------------------------------------------------------------
    Charge (ESU x 10^10)
                 0.0000
    Dipole Moment (Debye)
         X       2.9425      Y       0.0632      Z       0.1532
       Tot       2.9472
    Quadrupole Moments (Debye-Ang)
        XX    -189.3265     XY       9.0865     YY    -165.0949
        XZ      19.7755     YZ       0.5451     ZZ    -208.4347

 Total job time:  7616.48s(wall), 7598.78s(cpu)
        *  Thank you very much for using Q-Chem.  Have a nice day.  *
