 Q-Chem 5.0, Q-Chem, Inc., Pleasanton, CA (2017)
 Q-Chem 5.0.1 for Intel X86 EM64T Linux

User input:
--------------------------------------------------------------
$molecule
0  1
--
0  1
C        +0.22270000        +1.04488000        +0.58595000
C        +0.62626000        -0.41353000        +0.99871000
C        -1.18200000        +1.23223000        +0.04377000
C        -0.37457000        -1.51643000        +0.72333000
O        -2.09172000        +0.78832000        +0.93966000
O        -1.47336000        +1.75939000        -0.99882000
O        -0.91364000        -1.42792000        -0.50620000
O        -0.62208000        -2.40877000        +1.49911000
C        -1.86134000        -2.44741000        -0.86560000
C        -3.47068000        +0.87492000        +0.53920000
C        +1.33008000        +1.39974000        -0.43491000
C        +2.63070000        +1.71700000        +0.32855000
C        +3.04336000        +0.29351000        +0.80300000
C        +1.94423000        -0.59299000        +0.15262000
O        +1.62840000        +0.13663000        -1.04376000
H        +0.27811000        +1.68786000        +1.46900000
H        +0.83923000        -0.48042000        +2.06408000
H        -2.68749000        -2.46677000        -0.15296000
H        -3.76076000        +1.91522000        +0.38406000
H        +3.37234000        +2.13782000        -0.35195000
H        +2.48236000        +2.42488000        +1.14651000
H        +4.02182000        +0.00994000        +0.41161000
H        +3.07359000        +0.18738000        +1.88928000
H        -2.21148000        -2.17765000        -1.85937000
H        -1.38062000        -3.42697000        -0.88096000
H        -4.03855000        +0.43623000        +1.35671000
H        -3.63120000        +0.31700000        -0.38495000
C        +0.90028000        +2.39077000        -1.49430000
C        +2.35450000        -2.01267000        -0.16812000
H        +3.26311000        -2.00678000        -0.77366000
H        +2.54990000        -2.57059000        +0.75079000
H        +1.57335000        -2.52896000        -0.72872000
H        +1.71845000        +2.58186000        -2.15686000
H        +0.59919000        +3.30478000        -1.02650000
H        +0.07925000        +1.98653000        -2.04874000
--
0  1
C        +0.25087000        +2.64053000        +5.74474000
C        +0.65443000        +1.18212000        +6.15750000
C        -1.15383000        +2.82788000        +5.20256000
C        -0.34640000        +0.07922000        +5.88212000
O        -2.06355000        +2.38397000        +6.09845000
O        -1.44519000        +3.35504000        +4.15997000
O        -0.88547000        +0.16773000        +4.65259000
O        -0.59391000        -0.81312000        +6.65790000
C        -1.83317000        -0.85176000        +4.29319000
C        -3.44251000        +2.47057000        +5.69799000
C        +1.35825000        +2.99539000        +4.72388000
C        +2.65887000        +3.31265000        +5.48734000
C        +3.07153000        +1.88916000        +5.96179000
C        +1.97240000        +1.00266000        +5.31141000
O        +1.65657000        +1.73228000        +4.11503000
H        +0.30628000        +3.28351000        +6.62779000
H        +0.86740000        +1.11523000        +7.22287000
H        -2.65932000        -0.87112000        +5.00583000
H        -3.73259000        +3.51087000        +5.54285000
H        +3.40051000        +3.73347000        +4.80684000
H        +2.51053000        +4.02053000        +6.30530000
H        +4.04999000        +1.60559000        +5.57040000
H        +3.10176000        +1.78303000        +7.04807000
H        -2.18331000        -0.58200000        +3.29942000
H        -1.35245000        -1.83132000        +4.27783000
H        -4.01038000        +2.03188000        +6.51550000
H        -3.60303000        +1.91265000        +4.77384000
C        +0.92845000        +3.98642000        +3.66449000
C        +2.38267000        -0.41702000        +4.99067000
H        +3.29128000        -0.41113000        +4.38513000
H        +2.57807000        -0.97494000        +5.90958000
H        +1.60152000        -0.93331000        +4.43007000
H        +1.74662000        +4.17751000        +3.00193000
H        +0.62736000        +4.90043000        +4.13229000
H        +0.10742000        +3.58218000        +3.11005000
$end

$rem
JOBTYPE                   SP
METHOD                    B3LYP
DFT_D                     d3_op
BASIS                     6-311++G(d,p)
SYMMETRY                  False
THRESH                    12
SCF_CONVERGENCE           8
MAX_SUB_FILE_NUM          128
MEM_STATIC                400
MEM_TOTAL                 4000
$end
--------------------------------------------------------------

             Standard Nuclear Orientation (Angstroms)
    I     Atom           X                Y                Z
 ----------------------------------------------------------------
    1      C      -1.8442519393     0.2543311744     0.8564847821
    2      C      -1.9405519167     0.4014592896    -0.7021270527
    3      C      -2.3056262839    -1.0668516689     1.4428727712
    4      C      -2.5793430373    -0.7370101118    -1.4700571078
    5      O      -1.6191776057    -2.0900016337     0.8867991966
    6      O      -3.1138406712    -1.2056922567     2.3245161337
    7      O      -3.7131128448    -1.1753992712    -0.8933808776
    8      O      -2.1500748765    -1.1683481956    -2.5136292364
    9      C      -4.4025811177    -2.2432311307    -1.5649701351
   10      C      -1.9805780628    -3.4104525950     1.3286107192
   11      C      -2.6763996072     1.4667768161     1.3380209159
   12      C      -1.8383651130     2.7485545316     1.1651581431
   13      C      -1.8647536018     2.9060300358    -0.3828147157
   14      C      -2.7851993297     1.7281444075    -0.8098138493
   15      O      -3.6706429498     1.6062326015     0.3147065573
   16      H      -0.7962429739     0.3506350464     1.1542659495
   17      H      -0.9572985938     0.5322532743    -1.1504010385
   18      H      -3.7456158610    -3.1068946093    -1.6800199025
   19      H      -1.7806908944    -3.5265962150     2.3949102528
   20      H      -2.3312511206     3.5884954644     1.6568513655
   21      H      -0.8318613961     2.6581421840     1.5785989330
   22      H      -2.3191973814     3.8525457172    -0.6804234600
   23      H      -0.8767052805     2.8492594953    -0.8440297293
   24      H      -5.2516715892    -2.4827365114    -0.9288649284
   25      H      -4.7409021324    -1.9187532102    -2.5504235392
   26      H      -1.3629510271    -4.0906641058     0.7462903619
   27      H      -3.0397898611    -3.5946674161     1.1409144611
   28      C      -3.3462287467     1.2637935216     2.6794016892
   29      C      -3.5594525877     1.9352890715    -2.0921203273
   30      H      -4.1192512610     2.8712607029    -2.0385659955
   31      H      -2.8789834718     1.9827870847    -2.9456759468
   32      H      -4.2681500515     1.1220081176    -2.2574836893
   33      H      -3.8985108987     2.1427351693     2.9389191169
   34      H      -2.6019426722     1.0770920777     3.4251141796
   35      H      -4.0119340187     0.4280085396     2.6227986264
   36      C       3.5509439089     0.1935582388     0.6369964097
   37      C       3.4546439315     0.3406863541    -0.9216154250
   38      C       3.0895695643    -1.1276246044     1.2233843989
   39      C       2.8158528109    -0.7977830474    -1.6895454802
   40      O       3.7760182425    -2.1507745692     0.6673108242
   41      O       2.2813551770    -1.2664651922     2.1050277614
   42      O       1.6820830034    -1.2361722068    -1.1128692500
   43      O       3.2451209717    -1.2291211312    -2.7331176088
   44      C       0.9926147305    -2.3040040663    -1.7844585074
   45      C       3.4146177854    -3.4712255305     1.1091223468
   46      C       2.7187962410     1.4060038806     1.1185325436
   47      C       3.5568307352     2.6877815961     0.9456697707
   48      C       3.5304422464     2.8452571002    -0.6023030881
   49      C       2.6099965185     1.6673714720    -1.0293022217
   50      O       1.7245528984     1.5454596659     0.0952181849
   51      H       4.5989528743     0.2898621109     0.9347775772
   52      H       4.4378972544     0.4714803387    -1.3698894109
   53      H       1.6495799872    -3.1676675449    -1.8995082749
   54      H       3.6145049538    -3.5873691506     2.1754218805
   55      H       3.0639447276     3.5277225288     1.4373629931
   56      H       4.5633344521     2.5973692485     1.3591105606
   57      H       3.0759984668     3.7917727816    -0.8999118323
   58      H       4.5184905676     2.7884865597    -1.0635181016
   59      H       0.1435242590    -2.5435094470    -1.1483533008
   60      H       0.6542937158    -1.9795261458    -2.7699119115
   61      H       4.0322448211    -4.1514370413     0.5268019896
   62      H       2.3554059871    -3.6554403517     0.9214260887
   63      C       2.0489671015     1.2030205861     2.4599133169
   64      C       1.8357432605     1.8745161360    -2.3116086997
   65      H       1.2759445872     2.8104877674    -2.2580543679
   66      H       2.5162123764     1.9220141492    -3.1651643191
   67      H       1.1270457967     1.0612351821    -2.4769720617
   68      H       1.4966849495     2.0819622338     2.7194307445
   69      H       2.7932531760     1.0163191421     3.2056258073
   70      H       1.3832618294     0.3672356041     2.4033102540
 ----------------------------------------------------------------

   15   -1689.0486826947      5.40E-09 Convergence criterion met
 Total energy in the final basis set = -1689.04868269

                    Orbital Energies (a.u.)
 --------------------------------------------------------------

 Alpha MOs
 -- Occupied --
-19.179 -19.172 -19.172 -19.171 -19.134 -19.121 -19.117 -19.115
-19.115 -19.111 -10.315 -10.305 -10.305 -10.303 -10.248 -10.238
-10.235 -10.235 -10.231 -10.230 -10.222 -10.220 -10.208 -10.206
-10.195 -10.193 -10.183 -10.181 -10.174 -10.168 -10.164 -10.164
-10.145 -10.129  -1.123  -1.117  -1.113  -1.111  -1.069  -1.053
 -1.038  -1.029  -1.026  -1.026  -0.837  -0.824  -0.810  -0.797
 -0.788  -0.775  -0.748  -0.744  -0.731  -0.726  -0.725  -0.714
 -0.678  -0.668  -0.649  -0.636  -0.606  -0.597  -0.585  -0.573
 -0.570  -0.565  -0.564  -0.555  -0.528  -0.518  -0.516  -0.512
 -0.510  -0.501  -0.497  -0.491  -0.488  -0.484  -0.483  -0.477
 -0.475  -0.473  -0.472  -0.466  -0.462  -0.452  -0.446  -0.438
 -0.438  -0.434  -0.429  -0.429  -0.419  -0.413  -0.408  -0.408
 -0.405  -0.403  -0.397  -0.395  -0.394  -0.389  -0.377  -0.373
 -0.371  -0.369  -0.368  -0.363  -0.359  -0.358  -0.355  -0.352
 -0.350  -0.346  -0.341  -0.339  -0.337  -0.334  -0.326  -0.323
 -0.320  -0.318  -0.311  -0.310  -0.286  -0.282  -0.280  -0.274
 -0.264  -0.264

          Ground-State Mulliken Net Atomic Charges

     Atom                 Charge (a.u.)
  ----------------------------------------
      1 C                     0.138003
      2 C                     0.639802
      3 C                    -0.549168
      4 C                    -0.575638
      5 O                     0.070470
      6 O                    -0.120054
      7 O                     0.048195
      8 O                    -0.089889
      9 C                    -0.159453
     10 C                    -0.248440
     11 C                    -0.842809
     12 C                    -0.146250
     13 C                    -0.022886
     14 C                    -0.755182
     15 O                     0.173619
     16 H                     0.212198
     17 H                     0.129972
     18 H                     0.191977
     19 H                     0.190079
     20 H                     0.195501
     21 H                     0.144183
     22 H                     0.196318
     23 H                     0.099937
     24 H                     0.175144
     25 H                     0.177548
     26 H                     0.129742
     27 H                     0.190888
     28 C                    -0.412137
     29 C                    -0.222077
     30 H                     0.175513
     31 H                     0.165535
     32 H                     0.180294
     33 H                     0.140642
     34 H                     0.146258
     35 H                     0.203440
     36 C                    -0.118017
     37 C                     0.507052
     38 C                    -0.643567
     39 C                    -0.782825
     40 O                     0.047671
     41 O                    -0.079239
     42 O                     0.044415
     43 O                    -0.095458
     44 C                    -0.321705
     45 C                    -0.162623
     46 C                     0.028641
     47 C                    -0.382439
     48 C                    -0.413430
     49 C                    -0.292399
     50 O                     0.311897
     51 H                     0.264671
     52 H                     0.286581
     53 H                     0.214567
     54 H                     0.168228
     55 H                     0.174650
     56 H                     0.152118
     57 H                     0.169104
     58 H                     0.148912
     59 H                     0.141226
     60 H                     0.223701
     61 H                     0.165926
     62 H                     0.175847
     63 C                    -0.642197
     64 C                    -0.368958
     65 H                     0.201827
     66 H                     0.194330
     67 H                     0.211040
     68 H                     0.134511
     69 H                     0.173996
     70 H                     0.190671
  ----------------------------------------
  Sum of atomic charges =     0.000000

                    Cartesian Multipole Moments
 -----------------------------------------------------------------
    Charge (ESU x 10^10)
                 0.0000
    Dipole Moment (Debye)
         X       2.6230      Y      -0.5489      Z       0.4815
       Tot       2.7227
    Quadrupole Moments (Debye-Ang)
        XX    -202.8016     XY      11.5852     YY    -180.2615
        XZ      17.8537     YZ      -6.3789     ZZ    -220.5743

 Total job time:  3802.45s(wall), 7557.15s(cpu)
        *  Thank you very much for using Q-Chem.  Have a nice day.  *
