 Q-Chem 5.0, Q-Chem, Inc., Pleasanton, CA (2017)
 Q-Chem 5.0.1 for Intel X86 EM64T Linux

User input:
--------------------------------------------------------------
$molecule
0  1
C        -0.50728000        -1.15453000        +5.31242000
C        -0.51993000        +0.24795000        +5.43424000
C        +0.78685000        -1.90859000        +5.28557000
C        +0.76559000        +1.01353000        +5.44529000
O        +1.57361000        -1.56259000        +6.32744000
O        +1.08418000        -2.75488000        +4.47843000
O        +1.57500000        +0.61218000        +4.44054000
O        +1.04751000        +1.90014000        +6.21409000
C        +2.87165000        +1.23038000        +4.38573000
C        +2.86032000        -2.20291000        +6.38406000
C        -1.70604000        -1.88699000        +5.25379000
C        -2.90236000        -1.17139000        +5.32646000
C        -2.91597000        +0.21172000        +5.44865000
C        -1.73445000        +0.95321000        +5.50741000
H        +2.77551000        +2.30906000        +4.25467000
H        +2.74494000        -3.28402000        +6.47486000
H        -3.86638000        +0.73242000        +5.49641000
H        +3.42714000        +1.03010000        +5.30387000
H        +3.36900000        +0.78186000        +3.52864000
H        +3.34811000        -1.79364000        +7.26581000
H        +3.43605000        -1.98017000        +5.48390000
H        -3.84176000        -1.71294000        +5.28943000
C        -1.80244000        +2.45663000        +5.62770000
H        -1.20498000        +2.95269000        +4.85866000
H        -1.41787000        +2.79344000        +6.59215000
H        -2.83495000        +2.79540000        +5.52569000
H        -1.70162000        -2.91476000        +5.16056000
@C        -0.54444000        -0.68370000        -0.06689000
@C        -0.55709000        +0.71878000        +0.05493000
@C        +0.74969000        -1.43776000        -0.09374000
@C        +0.72843000        +1.48436000        +0.06598000
@O        +1.53645000        -1.09176000        +0.94813000
@O        +1.04702000        -2.28405000        -0.90088000
@O        +1.53784000        +1.08301000        -0.93877000
@O        +1.01035000        +2.37097000        +0.83478000
@C        +2.83449000        +1.70121000        -0.99358000
@C        +2.82316000        -1.73208000        +1.00475000
@C        -1.74320000        -1.41616000        -0.12552000
@C        -2.93952000        -0.70056000        -0.05285000
@C        -2.95313000        +0.68255000        +0.06934000
@C        -1.77161000        +1.42404000        +0.12810000
@H        +2.73835000        +2.77989000        -1.12464000
@H        +2.70778000        -2.81319000        +1.09555000
@H        -3.90354000        +1.20325000        +0.11710000
@H        +3.38998000        +1.50093000        -0.07544000
@H        +3.33184000        +1.25269000        -1.85067000
@H        +3.31095000        -1.32281000        +1.88650000
@H        +3.39889000        -1.50934000        +0.10459000
@H        -3.87892000        -1.24211000        -0.08988000
@C        -1.83960000        +2.92746000        +0.24839000
@H        -1.24214000        +3.42352000        -0.52065000
@H        -1.45503000        +3.26427000        +1.21284000
@H        -2.87211000        +3.26623000        +0.14638000
@H        -1.73878000        -2.44393000        -0.21875000
$end

$rem
JOBTYPE                   SP
METHOD                    B3LYP
DFT_D                     d3_op
BASIS                     6-311++G(d,p)
SYMMETRY                  False
THRESH                    12
SCF_CONVERGENCE           8
MAX_SUB_FILE_NUM          128
MEM_STATIC                400
MEM_TOTAL                 4000
$end
--------------------------------------------------------------

             Standard Nuclear Orientation (Angstroms)
    I     Atom           X                Y                Z
 ----------------------------------------------------------------
    1      C      -0.5072800000    -1.1545300000     5.3124200000
    2      C      -0.5199300000     0.2479500000     5.4342400000
    3      C       0.7868500000    -1.9085900000     5.2855700000
    4      C       0.7655900000     1.0135300000     5.4452900000
    5      O       1.5736100000    -1.5625900000     6.3274400000
    6      O       1.0841800000    -2.7548800000     4.4784300000
    7      O       1.5750000000     0.6121800000     4.4405400000
    8      O       1.0475100000     1.9001400000     6.2140900000
    9      C       2.8716500000     1.2303800000     4.3857300000
   10      C       2.8603200000    -2.2029100000     6.3840600000
   11      C      -1.7060400000    -1.8869900000     5.2537900000
   12      C      -2.9023600000    -1.1713900000     5.3264600000
   13      C      -2.9159700000     0.2117200000     5.4486500000
   14      C      -1.7344500000     0.9532100000     5.5074100000
   15      H       2.7755100000     2.3090600000     4.2546700000
   16      H       2.7449400000    -3.2840200000     6.4748600000
   17      H      -3.8663800000     0.7324200000     5.4964100000
   18      H       3.4271400000     1.0301000000     5.3038700000
   19      H       3.3690000000     0.7818600000     3.5286400000
   20      H       3.3481100000    -1.7936400000     7.2658100000
   21      H       3.4360500000    -1.9801700000     5.4839000000
   22      H      -3.8417600000    -1.7129400000     5.2894300000
   23      C      -1.8024400000     2.4566300000     5.6277000000
   24      H      -1.2049800000     2.9526900000     4.8586600000
   25      H      -1.4178700000     2.7934400000     6.5921500000
   26      H      -2.8349500000     2.7954000000     5.5256900000
   27      H      -1.7016200000    -2.9147600000     5.1605600000
   28      GH     -0.5444400000    -0.6837000000    -0.0668900000
   29      GH     -0.5570900000     0.7187800000     0.0549300000
   30      GH      0.7496900000    -1.4377600000    -0.0937400000
   31      GH      0.7284300000     1.4843600000     0.0659800000
   32      GH      1.5364500000    -1.0917600000     0.9481300000
   33      GH      1.0470200000    -2.2840500000    -0.9008800000
   34      GH      1.5378400000     1.0830100000    -0.9387700000
   35      GH      1.0103500000     2.3709700000     0.8347800000
   36      GH      2.8344900000     1.7012100000    -0.9935800000
   37      GH      2.8231600000    -1.7320800000     1.0047500000
   38      GH     -1.7432000000    -1.4161600000    -0.1255200000
   39      GH     -2.9395200000    -0.7005600000    -0.0528500000
   40      GH     -2.9531300000     0.6825500000     0.0693400000
   41      GH     -1.7716100000     1.4240400000     0.1281000000
   42      GH      2.7383500000     2.7798900000    -1.1246400000
   43      GH      2.7077800000    -2.8131900000     1.0955500000
   44      GH     -3.9035400000     1.2032500000     0.1171000000
   45      GH      3.3899800000     1.5009300000    -0.0754400000
   46      GH      3.3318400000     1.2526900000    -1.8506700000
   47      GH      3.3109500000    -1.3228100000     1.8865000000
   48      GH      3.3988900000    -1.5093400000     0.1045900000
   49      GH     -3.8789200000    -1.2421100000    -0.0898800000
   50      GH     -1.8396000000     2.9274600000     0.2483900000
   51      GH     -1.2421400000     3.4235200000    -0.5206500000
   52      GH     -1.4550300000     3.2642700000     1.2128400000
   53      GH     -2.8721100000     3.2662300000     0.1463800000
   54      GH     -1.7387800000    -2.4439300000    -0.2187500000
 ----------------------------------------------------------------

   14    -727.5442931216      5.54E-09 Convergence criterion met
 Total energy in the final basis set = -727.54429312

                    Orbital Energies (a.u.)
 --------------------------------------------------------------

 Alpha MOs
 -- Occupied --
-19.178 -19.177 -19.121 -19.119 -10.313 -10.312 -10.233 -10.232
-10.211 -10.208 -10.207 -10.193 -10.191 -10.190 -10.174  -1.122
 -1.115  -1.033  -1.030  -0.886  -0.801  -0.795  -0.747  -0.731
 -0.704  -0.655  -0.627  -0.581  -0.575  -0.550  -0.521  -0.514
 -0.492  -0.490  -0.482  -0.478  -0.472  -0.447  -0.435  -0.432
 -0.429  -0.412  -0.406  -0.396  -0.384  -0.378  -0.371  -0.365
 -0.364  -0.322  -0.314  -0.296  -0.294  -0.269  -0.264

          Ground-State Mulliken Net Atomic Charges

     Atom                 Charge (a.u.)
  ----------------------------------------
      1 C                     0.647921
      2 C                     0.820266
      3 C                    -0.906091
      4 C                    -0.714961
      5 O                     0.071166
      6 O                    -0.097079
      7 O                     0.097941
      8 O                    -0.149603
      9 C                    -0.333072
     10 C                    -0.180350
     11 C                    -0.524989
     12 C                    -0.164917
     13 C                    -0.496546
     14 C                     0.375560
     15 H                     0.189867
     16 H                     0.170118
     17 H                     0.149481
     18 H                     0.196801
     19 H                     0.118861
     20 H                     0.171874
     21 H                     0.175391
     22 H                     0.188979
     23 C                    -0.524801
     24 H                     0.195594
     25 H                     0.214038
     26 H                     0.138450
     27 H                     0.180149
     28 GH                    0.022048
     29 GH                   -0.022337
     30 GH                   -0.024395
     31 GH                    0.022345
     32 GH                   -0.008551
     33 GH                   -0.000066
     34 GH                    0.000164
     35 GH                   -0.002054
     36 GH                   -0.003534
     37 GH                   -0.007127
     38 GH                   -0.011442
     39 GH                    0.008954
     40 GH                   -0.006222
     41 GH                    0.016817
     42 GH                    0.000274
     43 GH                   -0.000504
     44 GH                   -0.000999
     45 GH                    0.001727
     46 GH                   -0.000219
     47 GH                    0.011521
     48 GH                    0.000454
     49 GH                   -0.000100
     50 GH                   -0.001154
     51 GH                    0.000037
     52 GH                   -0.004628
     53 GH                    0.000142
     54 GH                   -0.001200
  ----------------------------------------
  Sum of atomic charges =     0.000000

                    Cartesian Multipole Moments
 -----------------------------------------------------------------
    Charge (ESU x 10^10)
                 0.0000
    Dipole Moment (Debye)
         X       0.0040      Y       0.4763      Z       0.1835
       Tot       0.5104
    Quadrupole Moments (Debye-Ang)
        XX     -68.7664     XY      -0.6898     YY     -90.1365
        XZ       0.0018     YZ      -6.8344     ZZ     -91.2968

 Total job time:  1498.23s(wall), 2982.01s(cpu)
        *  Thank you very much for using Q-Chem.  Have a nice day.  *
