 Q-Chem 5.0, Q-Chem, Inc., Pleasanton, CA (2017)
 Q-Chem 5.0.1 for Intel X86 EM64T Linux

User input:
--------------------------------------------------------------
$molecule
0  1
--
0  1
C        -0.54444000        -0.68370000        -0.06689000
C        -0.55709000        +0.71878000        +0.05493000
C        +0.74969000        -1.43776000        -0.09374000
C        +0.72843000        +1.48436000        +0.06598000
O        +1.53645000        -1.09176000        +0.94813000
O        +1.04702000        -2.28405000        -0.90088000
O        +1.53784000        +1.08301000        -0.93877000
O        +1.01035000        +2.37097000        +0.83478000
C        +2.83449000        +1.70121000        -0.99358000
C        +2.82316000        -1.73208000        +1.00475000
C        -1.74320000        -1.41616000        -0.12552000
C        -2.93952000        -0.70056000        -0.05285000
C        -2.95313000        +0.68255000        +0.06934000
C        -1.77161000        +1.42404000        +0.12810000
H        +2.73835000        +2.77989000        -1.12464000
H        +2.70778000        -2.81319000        +1.09555000
H        -3.90354000        +1.20325000        +0.11710000
H        +3.38998000        +1.50093000        -0.07544000
H        +3.33184000        +1.25269000        -1.85067000
H        +3.31095000        -1.32281000        +1.88650000
H        +3.39889000        -1.50934000        +0.10459000
H        -3.87892000        -1.24211000        -0.08988000
C        -1.83960000        +2.92746000        +0.24839000
H        -1.24214000        +3.42352000        -0.52065000
H        -1.45503000        +3.26427000        +1.21284000
H        -2.87211000        +3.26623000        +0.14638000
H        -1.73878000        -2.44393000        -0.21875000
--
0  1
C        -0.50728000        -1.15453000        +5.31242000
C        -0.51993000        +0.24795000        +5.43424000
C        +0.78685000        -1.90859000        +5.28557000
C        +0.76559000        +1.01353000        +5.44529000
O        +1.57361000        -1.56259000        +6.32744000
O        +1.08418000        -2.75488000        +4.47843000
O        +1.57500000        +0.61218000        +4.44054000
O        +1.04751000        +1.90014000        +6.21409000
C        +2.87165000        +1.23038000        +4.38573000
C        +2.86032000        -2.20291000        +6.38406000
C        -1.70604000        -1.88699000        +5.25379000
C        -2.90236000        -1.17139000        +5.32646000
C        -2.91597000        +0.21172000        +5.44865000
C        -1.73445000        +0.95321000        +5.50741000
H        +2.77551000        +2.30906000        +4.25467000
H        +2.74494000        -3.28402000        +6.47486000
H        -3.86638000        +0.73242000        +5.49641000
H        +3.42714000        +1.03010000        +5.30387000
H        +3.36900000        +0.78186000        +3.52864000
H        +3.34811000        -1.79364000        +7.26581000
H        +3.43605000        -1.98017000        +5.48390000
H        -3.84176000        -1.71294000        +5.28943000
C        -1.80244000        +2.45663000        +5.62770000
H        -1.20498000        +2.95269000        +4.85866000
H        -1.41787000        +2.79344000        +6.59215000
H        -2.83495000        +2.79540000        +5.52569000
H        -1.70162000        -2.91476000        +5.16056000
$end

$rem
JOBTYPE                   SP
METHOD                    B3LYP
DFT_D                     d3_op
BASIS                     6-311++G(d,p)
SYMMETRY                  False
THRESH                    12
SCF_CONVERGENCE           8
MAX_SUB_FILE_NUM          128
MEM_STATIC                400
MEM_TOTAL                 4000
$end
--------------------------------------------------------------

             Standard Nuclear Orientation (Angstroms)
    I     Atom           X                Y                Z
 ----------------------------------------------------------------
    1      C      -2.6627508919     0.2317428150     1.2146456358
    2      C      -2.7351495977     0.7330521385    -0.0988983014
    3      C      -2.5636110527    -1.2415538123     1.4669712257
    4      C      -2.8075587669    -0.2078364173    -1.2600538238
    5      O      -1.5659524011    -1.7934377031     0.7428843660
    6      O      -3.2415430075    -1.8623111869     2.2487355246
    7      O      -3.7336434568    -1.1682063732    -1.0460313295
    8      O      -2.1632691787    -0.1184349762    -2.2766697430
    9      C      -3.8508244022    -2.1743437943    -2.0660473659
   10      C      -1.3999121875    -3.2153918309     0.8818637052
   11      C      -2.6405380241     1.0996764595     2.3206105735
   12      C      -2.6873449595     2.4710394690     2.0642544959
   13      C      -2.7567303935     2.9666192698     0.7689957485
   14      C      -2.7803498612     2.1179491754    -0.3393592758
   15      H      -4.1305676877    -1.7221488322    -3.0185354635
   16      H      -1.1633112553    -3.4727958021     1.9153622349
   17      H      -2.7972193366     4.0390364234     0.6109743264
   18      H      -2.9045352642    -2.7050427120    -2.1867030910
   19      H      -4.6295057190    -2.8490924823    -1.7174787271
   20      H      -0.5746234809    -3.4756269529     0.2230008124
   21      H      -2.3122046004    -3.7357856122     0.5847458298
   22      H      -2.6655688023     3.1628991061     2.8997040904
   23      C      -2.8690852514     2.7056824618    -1.7271847818
   24      H      -3.6887308450     2.2671658763    -2.3019375999
   25      H      -1.9536905415     2.5225547417    -2.2928840188
   26      H      -3.0342852817     3.7829871935    -1.6691200079
   27      H      -2.5914845270     0.7365974622     3.2853851266
   28      C       2.7300513631     0.3784438678     0.9775792527
   29      C       2.6576526573     0.8797531912    -0.3359646845
   30      C       2.8291912023    -1.0948527595     1.2299048426
   31      C       2.5852434881    -0.0611353646    -1.4971202069
   32      O       3.8268498539    -1.6467366504     0.5058179829
   33      O       2.1512592475    -1.7156101341     2.0116691415
   34      O       1.6591587982    -1.0215053204    -1.2830977127
   35      O       3.2295330764     0.0282660765    -2.5137361262
   36      C       1.5419778528    -2.0276427416    -2.3031137490
   37      C       3.9928900675    -3.0686907782     0.6447973221
   38      C       2.7522642309     1.2463775123     2.0835441903
   39      C       2.7054572955     2.6177405217     1.8271881128
   40      C       2.6360718615     3.1133203225     0.5319293653
   41      C       2.6124523938     2.2646502281    -0.5764256589
   42      H       1.2622345673    -1.5754477795    -3.2556018466
   43      H       4.2294909997    -3.3260947494     1.6782958518
   44      H       2.5955829184     4.1857374761     0.3739079432
   45      H       2.4882669909    -2.5583416593    -2.4237694741
   46      H       0.7632965360    -2.7023914296    -1.9545451102
   47      H       4.8181787742    -3.3289259001    -0.0140655707
   48      H       3.0805976546    -3.5890845594     0.3476794466
   49      H       2.7272334527     3.3096001589     2.6626377072
   50      C       2.5237170037     2.8523835145    -1.9642511649
   51      H       1.7040714100     2.4138669290    -2.5390039830
   52      H       3.4391117135     2.6692557944    -2.5299504020
   53      H       2.3585169733     3.9296882463    -1.9061863911
   54      H       2.8013177280     0.8832985149     3.0483187434
 ----------------------------------------------------------------

   15   -1455.0919095556      6.04E-09 Convergence criterion met
 Total energy in the final basis set = -1455.09190956

                    Orbital Energies (a.u.)
 --------------------------------------------------------------

 Alpha MOs
 -- Occupied --
-19.176 -19.176 -19.172 -19.170 -19.120 -19.118 -19.117 -19.114
-10.312 -10.310 -10.308 -10.306 -10.233 -10.232 -10.229 -10.226
-10.208 -10.207 -10.205 -10.205 -10.204 -10.204 -10.191 -10.190
-10.189 -10.187 -10.187 -10.187 -10.173 -10.170  -1.120  -1.119
 -1.112  -1.110  -1.032  -1.029  -1.028  -1.024  -0.883  -0.883
 -0.799  -0.798  -0.792  -0.792  -0.744  -0.744  -0.729  -0.727
 -0.702  -0.701  -0.652  -0.652  -0.624  -0.624  -0.579  -0.577
 -0.574  -0.570  -0.547  -0.546  -0.519  -0.518  -0.511  -0.510
 -0.490  -0.490  -0.486  -0.486  -0.480  -0.478  -0.476  -0.474
 -0.470  -0.469  -0.445  -0.444  -0.433  -0.432  -0.430  -0.429
 -0.427  -0.424  -0.411  -0.409  -0.404  -0.403  -0.393  -0.393
 -0.382  -0.380  -0.376  -0.374  -0.368  -0.367  -0.363  -0.362
 -0.360  -0.359  -0.320  -0.319  -0.311  -0.309  -0.295  -0.294
 -0.291  -0.290  -0.267  -0.266  -0.262  -0.260

          Ground-State Mulliken Net Atomic Charges

     Atom                 Charge (a.u.)
  ----------------------------------------
      1 C                     0.447520
      2 C                     1.141394
      3 C                    -0.499497
      4 C                    -0.984854
      5 O                     0.108170
      6 O                    -0.180107
      7 O                     0.086060
      8 O                    -0.099804
      9 C                    -0.187891
     10 C                    -0.331735
     11 C                    -0.575749
     12 C                    -0.180853
     13 C                    -0.444906
     14 C                     0.210337
     15 H                     0.166955
     16 H                     0.200077
     17 H                     0.147150
     18 H                     0.177312
     19 H                     0.172476
     20 H                     0.102875
     21 H                     0.186019
     22 H                     0.184274
     23 C                    -0.553900
     24 H                     0.173682
     25 H                     0.192727
     26 H                     0.147167
     27 H                     0.191295
     28 C                     0.623912
     29 C                     0.919205
     30 C                    -0.869905
     31 C                    -0.748612
     32 O                     0.074257
     33 O                    -0.106991
     34 O                     0.101485
     35 O                    -0.154976
     36 C                    -0.319176
     37 C                    -0.180118
     38 C                    -0.551166
     39 C                    -0.172543
     40 C                    -0.501838
     41 C                     0.356129
     42 H                     0.194152
     43 H                     0.170265
     44 H                     0.147242
     45 H                     0.194824
     46 H                     0.109800
     47 H                     0.172318
     48 H                     0.172551
     49 H                     0.185531
     50 C                    -0.537776
     51 H                     0.197229
     52 H                     0.213540
     53 H                     0.136080
     54 H                     0.178387
  ----------------------------------------
  Sum of atomic charges =     0.000000

                    Cartesian Multipole Moments
 -----------------------------------------------------------------
    Charge (ESU x 10^10)
                 0.0000
    Dipole Moment (Debye)
         X       0.2588      Y       0.3607      Z      -0.8153
       Tot       0.9283
    Quadrupole Moments (Debye-Ang)
        XX    -182.7688     XY      -7.2353     YY    -144.3416
        XZ      16.9732     YZ      14.1854     ZZ    -180.1458

 Total job time:  1662.27s(wall), 3309.25s(cpu)
        *  Thank you very much for using Q-Chem.  Have a nice day.  *
