 Q-Chem 5.0, Q-Chem, Inc., Pleasanton, CA (2017)
 Q-Chem 5.0.1 for Intel X86 EM64T Linux

User input:
--------------------------------------------------------------
$molecule
0  1
--
0  1
C        -0.54444000        -0.68370000        -0.06689000
C        -0.55709000        +0.71878000        +0.05493000
C        +0.74969000        -1.43776000        -0.09374000
C        +0.72843000        +1.48436000        +0.06598000
O        +1.53645000        -1.09176000        +0.94813000
O        +1.04702000        -2.28405000        -0.90088000
O        +1.53784000        +1.08301000        -0.93877000
O        +1.01035000        +2.37097000        +0.83478000
C        +2.83449000        +1.70121000        -0.99358000
C        +2.82316000        -1.73208000        +1.00475000
C        -1.74320000        -1.41616000        -0.12552000
C        -2.93952000        -0.70056000        -0.05285000
C        -2.95313000        +0.68255000        +0.06934000
C        -1.77161000        +1.42404000        +0.12810000
H        +2.73835000        +2.77989000        -1.12464000
H        +2.70778000        -2.81319000        +1.09555000
H        -3.90354000        +1.20325000        +0.11710000
H        +3.38998000        +1.50093000        -0.07544000
H        +3.33184000        +1.25269000        -1.85067000
H        +3.31095000        -1.32281000        +1.88650000
H        +3.39889000        -1.50934000        +0.10459000
H        -3.87892000        -1.24211000        -0.08988000
C        -1.83960000        +2.92746000        +0.24839000
C        -1.78103000        -2.92226000        -0.24590000
H        -1.39752000        -3.25223000        -1.21323000
H        -2.80572000        -3.28175000        -0.13627000
H        -1.16958000        -3.40777000        +0.51926000
H        -1.24214000        +3.42352000        -0.52065000
H        -1.45503000        +3.26427000        +1.21284000
H        -2.87211000        +3.26623000        +0.14638000
--
0  1
C        -0.50728000        -1.15453000        +5.31242000
C        -0.51993000        +0.24795000        +5.43424000
C        +0.78685000        -1.90859000        +5.28557000
C        +0.76559000        +1.01353000        +5.44529000
O        +1.57361000        -1.56259000        +6.32744000
O        +1.08418000        -2.75488000        +4.47843000
O        +1.57500000        +0.61218000        +4.44054000
O        +1.04751000        +1.90014000        +6.21409000
C        +2.87165000        +1.23038000        +4.38573000
C        +2.86032000        -2.20291000        +6.38406000
C        -1.70604000        -1.88699000        +5.25379000
C        -2.90236000        -1.17139000        +5.32646000
C        -2.91597000        +0.21172000        +5.44865000
C        -1.73445000        +0.95321000        +5.50741000
H        +2.77551000        +2.30906000        +4.25467000
H        +2.74494000        -3.28402000        +6.47486000
H        -3.86638000        +0.73242000        +5.49641000
H        +3.42714000        +1.03010000        +5.30387000
H        +3.36900000        +0.78186000        +3.52864000
H        +3.34811000        -1.79364000        +7.26581000
H        +3.43605000        -1.98017000        +5.48390000
H        -3.84176000        -1.71294000        +5.28943000
C        -1.80244000        +2.45663000        +5.62770000
C        -1.74387000        -3.39309000        +5.13341000
H        -1.36036000        -3.72306000        +4.16608000
H        -2.76856000        -3.75258000        +5.24304000
H        -1.13242000        -3.87860000        +5.89857000
H        -1.20498000        +2.95269000        +4.85866000
H        -1.41787000        +2.79344000        +6.59215000
H        -2.83495000        +2.79540000        +5.52569000
$end

$rem
JOBTYPE                   SP
METHOD                    B3LYP
DFT_D                     d3_op
BASIS                     6-311++G(d,p)
SYMMETRY                  False
THRESH                    12
SCF_CONVERGENCE           8
MAX_SUB_FILE_NUM          128
MEM_STATIC                400
MEM_TOTAL                 4000
$end
--------------------------------------------------------------

             Standard Nuclear Orientation (Angstroms)
    I     Atom           X                Y                Z
 ----------------------------------------------------------------
    1      C      -2.6687868569     0.4946054436     0.8533881504
    2      C      -2.7434688476     0.5612652700    -0.5508658698
    3      C      -2.5763152706    -0.8268801992     1.5528340487
    4      C      -2.8250377165    -0.6946113854    -1.3601352039
    5      O      -1.5842097818    -1.5832490952     1.0353080233
    6      O      -3.2545373007    -1.1684677555     2.4906078444
    7      O      -3.7552653730    -1.5345544360    -0.8552380738
    8      O      -2.1840700827    -0.9309244871    -2.3550855689
    9      C      -3.8814183571    -2.8080896538    -1.5099670806
   10      C      -1.4249946095    -2.8917456978     1.6109166757
   11      C      -2.6379943957     1.6642502403     1.6330954929
   12      C      -2.6786750474     2.8873224645     0.9615411391
   13      C      -2.7503055779     2.9542287220    -0.4235586841
   14      C      -2.7824140770     1.8021469761    -1.2115474932
   15      H      -4.1623551447    -2.6741273712    -2.5554807313
   16      H      -1.1858937689    -2.8151049931     2.6726666496
   17      H      -2.7858462029     3.9239561248    -0.9083826767
   18      H      -2.9383341330    -3.3556574904    -1.4607340765
   19      H      -4.6622728640    -3.3355831025    -0.9666923972
   20      H      -0.6035088221    -3.3496402881     1.0646404409
   21      H      -2.3410556716    -3.4733444912     1.4928440706
   22      H      -2.6502310485     3.8052548836     1.5392183814
   23      C      -2.8732619674     1.9278222680    -2.7133185817
   24      C      -2.5480174622     1.6442072130     3.1416584156
   25      H      -3.4557725831     1.2330706976     3.5873431204
   26      H      -2.4006158298     2.6564953773     3.5221670547
   27      H      -1.7161117721     1.0276585632     3.4921745687
   28      H      -3.6972852482     1.3367813576    -3.1208879277
   29      H      -1.9609286220     1.5717160784    -3.1953301087
   30      H      -3.0326845599     2.9704009414    -2.9941427255
   31      C       2.7237842904     0.5272929001     0.5720595487
   32      C       2.6491022997     0.5939527266    -0.8321944714
   33      C       2.8162558767    -0.7941927427     1.2715054470
   34      C       2.5675334308    -0.6619239289    -1.6414638055
   35      O       3.8083613655    -1.5505616387     0.7539794217
   36      O       2.1380338466    -1.1357802990     2.2092792427
   37      O       1.6373057743    -1.5018669795    -1.1365666754
   38      O       3.2085010646    -0.8982370305    -2.6364141706
   39      C       1.5111527902    -2.7754021972    -1.7912956823
   40      C       3.9675765378    -2.8590582413     1.3295880741
   41      C       2.7545767516     1.6969376968     1.3517668913
   42      C       2.7138960999     2.9200099210     0.6802125374
   43      C       2.6422655694     2.9869161785    -0.7048872857
   44      C       2.6101570703     1.8348344326    -1.4928760948
   45      H       1.2302160026    -2.6414399147    -2.8368093330
   46      H       4.2066773784    -2.7824175365     2.3913380479
   47      H       2.6067249444     3.9566435814    -1.1897112783
   48      H       2.4542370143    -3.3229700339    -1.7420626782
   49      H       0.7302982833    -3.3028956460    -1.2480209989
   50      H       4.7890623252    -3.3169528315     0.7833118392
   51      H       3.0515154757    -3.4406570347     1.2115154690
   52      H       2.7423400988     3.8379423401     1.2578897798
   53      C       2.5193091799     1.9605097245    -2.9946471834
   54      C       2.8445536851     1.6768946695     2.8603298140
   55      H       1.9367985642     1.2657581542     3.3060145188
   56      H       2.9919553175     2.6891828338     3.2408384531
   57      H       3.6764593752     1.0603460198     3.2108459671
   58      H       1.6952858991     1.3694688141    -3.4022165293
   59      H       3.4316425253     1.6044035349    -3.4766587104
   60      H       2.3598865874     3.0030883980    -3.2754713272
 ----------------------------------------------------------------

   14   -1533.7579348592      9.28E-09 Convergence criterion met
 Total energy in the final basis set = -1533.75793486

                    Orbital Energies (a.u.)
 --------------------------------------------------------------

 Alpha MOs
 -- Occupied --
-19.175 -19.175 -19.170 -19.170 -19.118 -19.118 -19.115 -19.114
-10.310 -10.309 -10.306 -10.306 -10.232 -10.232 -10.227 -10.226
-10.203 -10.202 -10.202 -10.201 -10.199 -10.198 -10.198 -10.197
-10.184 -10.184 -10.183 -10.183 -10.170 -10.169 -10.167 -10.166
 -1.119  -1.118  -1.111  -1.110  -1.030  -1.030  -1.026  -1.025
 -0.882  -0.882  -0.804  -0.804  -0.793  -0.792  -0.744  -0.743
 -0.732  -0.731  -0.722  -0.721  -0.672  -0.672  -0.646  -0.646
 -0.618  -0.617  -0.575  -0.574  -0.562  -0.561  -0.534  -0.534
 -0.515  -0.514  -0.512  -0.511  -0.489  -0.489  -0.485  -0.484
 -0.478  -0.476  -0.475  -0.473  -0.467  -0.466  -0.441  -0.439
 -0.432  -0.431  -0.428  -0.426  -0.418  -0.417  -0.413  -0.413
 -0.409  -0.409  -0.403  -0.403  -0.393  -0.393  -0.385  -0.385
 -0.378  -0.377  -0.370  -0.369  -0.359  -0.359  -0.356  -0.355
 -0.355  -0.354  -0.319  -0.318  -0.309  -0.308  -0.292  -0.292
 -0.289  -0.288  -0.264  -0.263  -0.251  -0.249

          Ground-State Mulliken Net Atomic Charges

     Atom                 Charge (a.u.)
  ----------------------------------------
      1 C                     0.493265
      2 C                     0.731756
      3 C                    -0.687534
      4 C                    -1.026615
      5 O                     0.131960
      6 O                    -0.150607
      7 O                     0.079732
      8 O                    -0.087221
      9 C                    -0.181996
     10 C                    -0.316460
     11 C                     0.564317
     12 C                    -0.496080
     13 C                    -0.458879
     14 C                     0.333092
     15 H                     0.166530
     16 H                     0.191178
     17 H                     0.157814
     18 H                     0.174001
     19 H                     0.173351
     20 H                     0.105803
     21 H                     0.190737
     22 H                     0.151704
     23 C                    -0.652239
     24 C                    -0.627725
     25 H                     0.214149
     26 H                     0.135608
     27 H                     0.194858
     28 H                     0.171922
     29 H                     0.186282
     30 H                     0.138032
     31 C                     0.716276
     32 C                     0.467716
     33 C                    -1.079140
     34 C                    -0.630536
     35 O                     0.094465
     36 O                    -0.074902
     37 O                     0.110502
     38 O                    -0.152093
     39 C                    -0.318565
     40 C                    -0.179925
     41 C                     0.340440
     42 C                    -0.447517
     43 C                    -0.492839
     44 C                     0.572382
     45 H                     0.194254
     46 H                     0.165883
     47 H                     0.151340
     48 H                     0.194194
     49 H                     0.104879
     50 H                     0.171539
     51 H                     0.173606
     52 H                     0.158662
     53 C                    -0.617754
     54 C                    -0.663713
     55 H                     0.187092
     56 H                     0.138979
     57 H                     0.172103
     58 H                     0.194529
     59 H                     0.213179
     60 H                     0.134229
  ----------------------------------------
  Sum of atomic charges =     0.000000

                    Cartesian Multipole Moments
 -----------------------------------------------------------------
    Charge (ESU x 10^10)
                 0.0000
    Dipole Moment (Debye)
         X       0.1867      Y      -0.0979      Z       0.1834
       Tot       0.2794
    Quadrupole Moments (Debye-Ang)
        XX    -195.4388     XY      -1.3895     YY    -154.2818
        XZ      17.7884     YZ       1.7277     ZZ    -196.0921

 Total job time:  2255.27s(wall), 4488.40s(cpu)
        *  Thank you very much for using Q-Chem.  Have a nice day.  *
