 Q-Chem 5.0, Q-Chem, Inc., Pleasanton, CA (2017)
 Q-Chem 5.0.1 for Intel X86 EM64T Linux

User input:
--------------------------------------------------------------
$molecule
0  1
--
0  1
C        +0.22270000        +1.04488000        +0.58595000
C        +0.62626000        -0.41353000        +0.99871000
C        +1.33008000        +1.39974000        -0.43491000
C        +2.63070000        +1.71700000        +0.32855000
C        +3.04336000        +0.29351000        +0.80300000
C        +1.94423000        -0.59299000        +0.15262000
O        +1.62840000        +0.13663000        -1.04376000
H        +3.37234000        +2.13782000        -0.35195000
H        +2.48236000        +2.42488000        +1.14651000
H        +4.02182000        +0.00994000        +0.41161000
H        +3.07359000        +0.18738000        +1.88928000
H        +1.03270000        +2.19943000        -1.08064000
H        +2.24339000        -1.61496000        +0.04786000
H        +0.81693000        -0.48905000        +2.04887000
H        -0.12524000        -1.15356000        +0.81843000
H        -0.74673000        +1.06811000        +0.13365000
H        +0.15552000        +1.72617000        +1.40828000
--
0  1
C        +3.47349000        +2.93736000        +3.56771000
C        +3.87705000        +1.47895000        +3.98047000
C        +4.58087000        +3.29222000        +2.54685000
C        +5.88149000        +3.60948000        +3.31031000
C        +6.29415000        +2.18599000        +3.78476000
C        +5.19502000        +1.29949000        +3.13438000
O        +4.87919000        +2.02911000        +1.93800000
H        +6.62313000        +4.03030000        +2.62981000
H        +5.73315000        +4.31736000        +4.12827000
H        +7.27261000        +1.90242000        +3.39337000
H        +6.32438000        +2.07986000        +4.87104000
H        +4.28349000        +4.09191000        +1.90112000
H        +5.49418000        +0.27752000        +3.02962000
H        +4.06772000        +1.40343000        +5.03063000
H        +3.12555000        +0.73892000        +3.80019000
H        +2.50406000        +2.96059000        +3.11541000
H        +3.40631000        +3.61865000        +4.39004000
$end

$rem
JOBTYPE                   SP
METHOD                    B3LYP
DFT_D                     d3_op
BASIS                     6-311++G(d,p)
SYMMETRY                  False
THRESH                    12
SCF_CONVERGENCE           8
MAX_SUB_FILE_NUM          128
MEM_STATIC                400
MEM_TOTAL                 4000
$end
--------------------------------------------------------------

             Standard Nuclear Orientation (Angstroms)
    I     Atom           X                Y                Z
 ----------------------------------------------------------------
    1      C       2.9879072735    -0.5496306290     1.2093071841
    2      C       3.0364211342     0.9869795051     0.8983941408
    3      C       2.6565946594    -1.1408264532    -0.1817681815
    4      C       1.1626546492    -0.9085947705    -0.4806814718
    5      C       1.1549563490     0.6245104752    -0.7475970014
    6      C       2.6646039149     0.9779449641    -0.6335293015
    7      O       3.2983359545    -0.2299720580    -1.0837950092
    8      H       0.8665977776    -1.4666390196    -1.3701400469
    9      H       0.5116841024    -1.2127954983     0.3414235556
   10      H       0.8002464835     0.8530456693    -1.7540435350
   11      H       0.5420922287     1.1873633619    -0.0406487245
   12      H       2.9285387391    -2.1735220049    -0.2487943579
   13      H       2.9166743315     1.8889009271    -1.1350407994
   14      H       2.3185981958     1.5304654701     1.4765356285
   15      H       3.9673211918     1.4610151909     1.1299384794
   16      H       3.9308428830    -0.9046678686     1.5694883085
   17      H       2.2872519380    -0.8164117170     1.9727243684
   18      C      -1.8059950742    -0.4921964289     1.4442762576
   19      C      -1.7574812135     1.0444137052     1.1333632143
   20      C      -2.1373076883    -1.0833922531     0.0532008920
   21      C      -3.6312476985    -0.8511605704    -0.2457123983
   22      C      -3.6389459987     0.6819446753    -0.5126279278
   23      C      -2.1292984328     1.0353791642    -0.3985602280
   24      O      -1.4955663932    -0.1725378579    -0.8488259356
   25      H      -3.9273045701    -1.4092048195    -1.1351709734
   26      H      -4.2822182453    -1.1553612982     0.5763926291
   27      H      -3.9936558642     0.9104798694    -1.5190744614
   28      H      -4.2518101190     1.2447975620     0.1943203490
   29      H      -1.8653636086    -2.1160878048    -0.0138252844
   30      H      -1.8772280162     1.9463351272    -0.9000717259
   31      H      -2.4753041519     1.5878996702     1.7115047020
   32      H      -0.8265811559     1.5184493910     1.3649075529
   33      H      -0.8630594646    -0.8472336685     1.8044573821
   34      H      -2.5066504097    -0.7589775169     2.2076934419
 ----------------------------------------------------------------

   13    -619.9159660224      6.32E-09 Convergence criterion met
 Total energy in the final basis set = -619.91596602

                    Orbital Energies (a.u.)
 --------------------------------------------------------------

 Alpha MOs
 -- Occupied --
-19.126 -19.112 -10.227 -10.224 -10.210 -10.207 -10.173 -10.172
-10.171 -10.170 -10.157 -10.156 -10.152 -10.152  -1.056  -1.039
 -0.804  -0.787  -0.755  -0.754  -0.737  -0.737  -0.621  -0.604
 -0.584  -0.580  -0.568  -0.562  -0.534  -0.515  -0.487  -0.475
 -0.463  -0.452  -0.437  -0.420  -0.412  -0.402  -0.394  -0.385
 -0.373  -0.365  -0.357  -0.352  -0.348  -0.345  -0.340  -0.327
 -0.323  -0.310  -0.306  -0.292  -0.270  -0.250

          Ground-State Mulliken Net Atomic Charges

     Atom                 Charge (a.u.)
  ----------------------------------------
      1 C                    -0.445346
      2 C                    -0.426869
      3 C                    -0.038555
      4 C                    -0.256405
      5 C                    -0.206020
      6 C                    -0.091951
      7 O                    -0.124063
      8 H                     0.207925
      9 H                     0.041317
     10 H                     0.205954
     11 H                     0.027193
     12 H                     0.224538
     13 H                     0.224343
     14 H                     0.094423
     15 H                     0.179368
     16 H                     0.172097
     17 H                     0.104099
     18 C                    -0.345677
     19 C                    -0.387539
     20 C                     0.124699
     21 C                    -0.596481
     22 C                    -0.530039
     23 C                     0.169631
     24 O                     0.022238
     25 H                     0.169572
     26 H                     0.127284
     27 H                     0.170605
     28 H                     0.124798
     29 H                     0.222500
     30 H                     0.227372
     31 H                     0.158566
     32 H                     0.148544
     33 H                     0.131696
     34 H                     0.170184
  ----------------------------------------
  Sum of atomic charges =     0.000000

                    Cartesian Multipole Moments
 -----------------------------------------------------------------
    Charge (ESU x 10^10)
                 0.0000
    Dipole Moment (Debye)
         X      -3.0411      Y       0.4934      Z       2.3502
       Tot       3.8750
    Quadrupole Moments (Debye-Ang)
        XX     -92.3979     XY       0.9448     YY     -81.7208
        XZ       3.8439     YZ      -2.1292     ZZ     -90.4651

 Total job time:  126.07s(wall), 502.09s(cpu)
        *  Thank you very much for using Q-Chem.  Have a nice day.  *
