 Q-Chem 5.0, Q-Chem, Inc., Pleasanton, CA (2017)
 Q-Chem 5.0.1 for Intel X86 EM64T Linux

User input:
--------------------------------------------------------------
$molecule
0  1
C        +2.25444000        +2.22768000        +2.44955000
C        +2.65800000        +0.76927000        +2.86231000
C        +3.36182000        +2.58254000        +1.42869000
C        +4.66244000        +2.89980000        +2.19215000
C        +5.07510000        +1.47631000        +2.66660000
C        +3.97597000        +0.58981000        +2.01622000
O        +3.66014000        +1.31943000        +0.81984000
H        +5.40408000        +3.32062000        +1.51165000
H        +4.51410000        +3.60768000        +3.01011000
H        +6.05356000        +1.19274000        +2.27521000
H        +5.10533000        +1.37018000        +3.75288000
H        +3.06444000        +3.38223000        +0.78296000
H        +4.27513000        -0.43216000        +1.91146000
H        +2.84867000        +0.69375000        +3.91247000
H        +1.90650000        +0.02924000        +2.68203000
H        +1.28501000        +2.25091000        +1.99725000
H        +2.18726000        +2.90897000        +3.27188000
@C        +0.22270000        +1.04488000        +0.58595000
@C        +0.62626000        -0.41353000        +0.99871000
@C        +1.33008000        +1.39974000        -0.43491000
@C        +2.63070000        +1.71700000        +0.32855000
@C        +3.04336000        +0.29351000        +0.80300000
@C        +1.94423000        -0.59299000        +0.15262000
@O        +1.62840000        +0.13663000        -1.04376000
@H        +3.37234000        +2.13782000        -0.35195000
@H        +2.48236000        +2.42488000        +1.14651000
@H        +4.02182000        +0.00994000        +0.41161000
@H        +3.07359000        +0.18738000        +1.88928000
@H        +1.03270000        +2.19943000        -1.08064000
@H        +2.24339000        -1.61496000        +0.04786000
@H        +0.81693000        -0.48905000        +2.04887000
@H        -0.12524000        -1.15356000        +0.81843000
@H        -0.74673000        +1.06811000        +0.13365000
@H        +0.15552000        +1.72617000        +1.40828000
$end

$rem
JOBTYPE                   SP
METHOD                    B3LYP
DFT_D                     d3_op
BASIS                     6-311++G(d,p)
SYMMETRY                  False
THRESH                    12
SCF_CONVERGENCE           8
MAX_SUB_FILE_NUM          128
MEM_STATIC                400
MEM_TOTAL                 4000
$end
--------------------------------------------------------------

             Standard Nuclear Orientation (Angstroms)
    I     Atom           X                Y                Z
 ----------------------------------------------------------------
    1      C       2.2544400000     2.2276800000     2.4495500000
    2      C       2.6580000000     0.7692700000     2.8623100000
    3      C       3.3618200000     2.5825400000     1.4286900000
    4      C       4.6624400000     2.8998000000     2.1921500000
    5      C       5.0751000000     1.4763100000     2.6666000000
    6      C       3.9759700000     0.5898100000     2.0162200000
    7      O       3.6601400000     1.3194300000     0.8198400000
    8      H       5.4040800000     3.3206200000     1.5116500000
    9      H       4.5141000000     3.6076800000     3.0101100000
   10      H       6.0535600000     1.1927400000     2.2752100000
   11      H       5.1053300000     1.3701800000     3.7528800000
   12      H       3.0644400000     3.3822300000     0.7829600000
   13      H       4.2751300000    -0.4321600000     1.9114600000
   14      H       2.8486700000     0.6937500000     3.9124700000
   15      H       1.9065000000     0.0292400000     2.6820300000
   16      H       1.2850100000     2.2509100000     1.9972500000
   17      H       2.1872600000     2.9089700000     3.2718800000
   18      GH      0.2227000000     1.0448800000     0.5859500000
   19      GH      0.6262600000    -0.4135300000     0.9987100000
   20      GH      1.3300800000     1.3997400000    -0.4349100000
   21      GH      2.6307000000     1.7170000000     0.3285500000
   22      GH      3.0433600000     0.2935100000     0.8030000000
   23      GH      1.9442300000    -0.5929900000     0.1526200000
   24      GH      1.6284000000     0.1366300000    -1.0437600000
   25      GH      3.3723400000     2.1378200000    -0.3519500000
   26      GH      2.4823600000     2.4248800000     1.1465100000
   27      GH      4.0218200000     0.0099400000     0.4116100000
   28      GH      3.0735900000     0.1873800000     1.8892800000
   29      GH      1.0327000000     2.1994300000    -1.0806400000
   30      GH      2.2433900000    -1.6149600000     0.0478600000
   31      GH      0.8169300000    -0.4890500000     2.0488700000
   32      GH     -0.1252400000    -1.1535600000     0.8184300000
   33      GH     -0.7467300000     1.0681100000     0.1336500000
   34      GH      0.1555200000     1.7261700000     1.4082800000
 ----------------------------------------------------------------

   12    -309.9634441282      6.83E-09 Convergence criterion met
 Total energy in the final basis set = -309.96344413

                    Orbital Energies (a.u.)
 --------------------------------------------------------------

 Alpha MOs
 -- Occupied --
-19.124 -10.221 -10.218 -10.168 -10.167 -10.164 -10.163  -1.049
 -0.797  -0.748  -0.746  -0.613  -0.578  -0.573  -0.526  -0.477
 -0.465  -0.430  -0.406  -0.394  -0.364  -0.359  -0.351  -0.338
 -0.317  -0.304  -0.264

          Ground-State Mulliken Net Atomic Charges

     Atom                 Charge (a.u.)
  ----------------------------------------
      1 C                    -0.283062
      2 C                    -0.330776
      3 C                    -0.038988
      4 C                    -0.542422
      5 C                    -0.598214
      6 C                     0.050637
      7 O                    -0.381216
      8 H                     0.155680
      9 H                     0.121303
     10 H                     0.163779
     11 H                     0.118789
     12 H                     0.196958
     13 H                     0.205883
     14 H                     0.201113
     15 H                     0.085397
     16 H                     0.053755
     17 H                     0.212571
     18 GH                    0.011982
     19 GH                   -0.002587
     20 GH                   -0.058178
     21 GH                    0.179889
     22 GH                    0.214380
     23 GH                   -0.082750
     24 GH                   -0.001996
     25 GH                   -0.076527
     26 GH                    0.245183
     27 GH                   -0.076286
     28 GH                    0.245195
     29 GH                   -0.002269
     30 GH                   -0.004179
     31 GH                    0.005685
     32 GH                   -0.002471
     33 GH                   -0.002976
     34 GH                    0.016722
  ----------------------------------------
  Sum of atomic charges =    -0.000000

                    Cartesian Multipole Moments
 -----------------------------------------------------------------
    Charge (ESU x 10^10)
                 0.0000
    Dipole Moment (Debye)
         X      -0.0232      Y       0.4931      Z       1.6468
       Tot       1.7192
    Quadrupole Moments (Debye-Ang)
        XX     -43.3897     XY       0.9071     YY     -39.5346
        XZ       6.0040     YZ       2.0594     ZZ     -39.9330

 Total job time:  202.60s(wall), 805.67s(cpu)
        *  Thank you very much for using Q-Chem.  Have a nice day.  *
