 Q-Chem 5.0, Q-Chem, Inc., Pleasanton, CA (2017)
 Q-Chem 5.0.1 for Intel X86 EM64T Linux

User input:
--------------------------------------------------------------
$molecule
0  1
C        +0.22270000        +1.04488000        +0.58595000
C        +0.62626000        -0.41353000        +0.99871000
C        +1.33008000        +1.39974000        -0.43491000
C        +2.63070000        +1.71700000        +0.32855000
C        +3.04336000        +0.29351000        +0.80300000
C        +1.94423000        -0.59299000        +0.15262000
O        +1.62840000        +0.13663000        -1.04376000
H        +3.37234000        +2.13782000        -0.35195000
H        +2.48236000        +2.42488000        +1.14651000
H        +4.02182000        +0.00994000        +0.41161000
H        +3.07359000        +0.18738000        +1.88928000
H        +1.03270000        +2.19943000        -1.08064000
H        +2.24339000        -1.61496000        +0.04786000
H        +0.81693000        -0.48905000        +2.04887000
H        -0.12524000        -1.15356000        +0.81843000
H        -0.74673000        +1.06811000        +0.13365000
H        +0.15552000        +1.72617000        +1.40828000
@C        +3.47349000        +2.93736000        +3.56771000
@C        +3.87705000        +1.47895000        +3.98047000
@C        +4.58087000        +3.29222000        +2.54685000
@C        +5.88149000        +3.60948000        +3.31031000
@C        +6.29415000        +2.18599000        +3.78476000
@C        +5.19502000        +1.29949000        +3.13438000
@O        +4.87919000        +2.02911000        +1.93800000
@H        +6.62313000        +4.03030000        +2.62981000
@H        +5.73315000        +4.31736000        +4.12827000
@H        +7.27261000        +1.90242000        +3.39337000
@H        +6.32438000        +2.07986000        +4.87104000
@H        +4.28349000        +4.09191000        +1.90112000
@H        +5.49418000        +0.27752000        +3.02962000
@H        +4.06772000        +1.40343000        +5.03063000
@H        +3.12555000        +0.73892000        +3.80019000
@H        +2.50406000        +2.96059000        +3.11541000
@H        +3.40631000        +3.61865000        +4.39004000
$end

$rem
JOBTYPE                   SP
METHOD                    B3LYP
DFT_D                     d3_op
BASIS                     6-311++G(d,p)
SYMMETRY                  False
THRESH                    12
SCF_CONVERGENCE           8
MAX_SUB_FILE_NUM          128
MEM_STATIC                400
MEM_TOTAL                 4000
$end
--------------------------------------------------------------

             Standard Nuclear Orientation (Angstroms)
    I     Atom           X                Y                Z
 ----------------------------------------------------------------
    1      C       0.2227000000     1.0448800000     0.5859500000
    2      C       0.6262600000    -0.4135300000     0.9987100000
    3      C       1.3300800000     1.3997400000    -0.4349100000
    4      C       2.6307000000     1.7170000000     0.3285500000
    5      C       3.0433600000     0.2935100000     0.8030000000
    6      C       1.9442300000    -0.5929900000     0.1526200000
    7      O       1.6284000000     0.1366300000    -1.0437600000
    8      H       3.3723400000     2.1378200000    -0.3519500000
    9      H       2.4823600000     2.4248800000     1.1465100000
   10      H       4.0218200000     0.0099400000     0.4116100000
   11      H       3.0735900000     0.1873800000     1.8892800000
   12      H       1.0327000000     2.1994300000    -1.0806400000
   13      H       2.2433900000    -1.6149600000     0.0478600000
   14      H       0.8169300000    -0.4890500000     2.0488700000
   15      H      -0.1252400000    -1.1535600000     0.8184300000
   16      H      -0.7467300000     1.0681100000     0.1336500000
   17      H       0.1555200000     1.7261700000     1.4082800000
   18      GH      3.4734900000     2.9373600000     3.5677100000
   19      GH      3.8770500000     1.4789500000     3.9804700000
   20      GH      4.5808700000     3.2922200000     2.5468500000
   21      GH      5.8814900000     3.6094800000     3.3103100000
   22      GH      6.2941500000     2.1859900000     3.7847600000
   23      GH      5.1950200000     1.2994900000     3.1343800000
   24      GH      4.8791900000     2.0291100000     1.9380000000
   25      GH      6.6231300000     4.0303000000     2.6298100000
   26      GH      5.7331500000     4.3173600000     4.1282700000
   27      GH      7.2726100000     1.9024200000     3.3933700000
   28      GH      6.3243800000     2.0798600000     4.8710400000
   29      GH      4.2834900000     4.0919100000     1.9011200000
   30      GH      5.4941800000     0.2775200000     3.0296200000
   31      GH      4.0677200000     1.4034300000     5.0306300000
   32      GH      3.1255500000     0.7389200000     3.8001900000
   33      GH      2.5040600000     2.9605900000     3.1154100000
   34      GH      3.4063100000     3.6186500000     4.3900400000
 ----------------------------------------------------------------

   12    -309.9597735484      6.29E-09 Convergence criterion met
 Total energy in the final basis set = -309.95977355

                    Orbital Energies (a.u.)
 --------------------------------------------------------------

 Alpha MOs
 -- Occupied --
-19.123 -10.221 -10.218 -10.168 -10.167 -10.165 -10.163  -1.050
 -0.798  -0.749  -0.747  -0.614  -0.578  -0.574  -0.527  -0.478
 -0.465  -0.431  -0.406  -0.395  -0.364  -0.360  -0.351  -0.339
 -0.317  -0.304  -0.264

          Ground-State Mulliken Net Atomic Charges

     Atom                 Charge (a.u.)
  ----------------------------------------
      1 C                    -0.441681
      2 C                    -0.420987
      3 C                    -0.019723
      4 C                    -0.294479
      5 C                    -0.245038
      6 C                    -0.047128
      7 O                    -0.118403
      8 H                     0.192243
      9 H                     0.071568
     10 H                     0.184853
     11 H                     0.065091
     12 H                     0.231047
     13 H                     0.231547
     14 H                     0.102693
     15 H                     0.183897
     16 H                     0.175748
     17 H                     0.111036
     18 GH                   -0.004846
     19 GH                    0.002880
     20 GH                   -0.004607
     21 GH                    0.000227
     22 GH                   -0.004337
     23 GH                   -0.003426
     24 GH                    0.023828
     25 GH                   -0.000335
     26 GH                    0.000429
     27 GH                   -0.000126
     28 GH                    0.000206
     29 GH                    0.004880
     30 GH                    0.005072
     31 GH                   -0.000613
     32 GH                    0.010639
     33 GH                    0.008881
     34 GH                   -0.001034
  ----------------------------------------
  Sum of atomic charges =     0.000000

                    Cartesian Multipole Moments
 -----------------------------------------------------------------
    Charge (ESU x 10^10)
                 0.0000
    Dipole Moment (Debye)
         X      -0.0149      Y       0.5155      Z       1.7174
       Tot       1.7932
    Quadrupole Moments (Debye-Ang)
        XX     -43.2375     XY      -0.0558     YY     -40.6270
        XZ       2.7804     YZ      -0.8567     ZZ     -46.2257

 Total job time:  143.16s(wall), 568.11s(cpu)
        *  Thank you very much for using Q-Chem.  Have a nice day.  *
