 Q-Chem 5.0, Q-Chem, Inc., Pleasanton, CA (2017)
 Q-Chem 5.0.1 for Intel X86 EM64T Linux

User input:
--------------------------------------------------------------
$molecule
0  1
--
0  1
C        +0.22270000        +1.04488000        +0.58595000
C        +0.62626000        -0.41353000        +0.99871000
C        +1.33008000        +1.39974000        -0.43491000
C        +2.63070000        +1.71700000        +0.32855000
C        +3.04336000        +0.29351000        +0.80300000
C        +1.94423000        -0.59299000        +0.15262000
O        +1.62840000        +0.13663000        -1.04376000
H        +3.37234000        +2.13782000        -0.35195000
H        +2.48236000        +2.42488000        +1.14651000
H        +4.02182000        +0.00994000        +0.41161000
H        +3.07359000        +0.18738000        +1.88928000
H        +1.03270000        +2.19943000        -1.08064000
H        +2.24339000        -1.61496000        +0.04786000
H        +0.81693000        -0.48905000        +2.04887000
H        -0.12524000        -1.15356000        +0.81843000
H        -0.74673000        +1.06811000        +0.13365000
H        +0.15552000        +1.72617000        +1.40828000
--
0  1
C        +2.25444000        +2.22768000        +2.44955000
C        +2.65800000        +0.76927000        +2.86231000
C        +3.36182000        +2.58254000        +1.42869000
C        +4.66244000        +2.89980000        +2.19215000
C        +5.07510000        +1.47631000        +2.66660000
C        +3.97597000        +0.58981000        +2.01622000
O        +3.66014000        +1.31943000        +0.81984000
H        +5.40408000        +3.32062000        +1.51165000
H        +4.51410000        +3.60768000        +3.01011000
H        +6.05356000        +1.19274000        +2.27521000
H        +5.10533000        +1.37018000        +3.75288000
H        +3.06444000        +3.38223000        +0.78296000
H        +4.27513000        -0.43216000        +1.91146000
H        +2.84867000        +0.69375000        +3.91247000
H        +1.90650000        +0.02924000        +2.68203000
H        +1.28501000        +2.25091000        +1.99725000
H        +2.18726000        +2.90897000        +3.27188000
$end

$rem
JOBTYPE                   SP
METHOD                    B3LYP
DFT_D                     d3_op
BASIS                     6-311++G(d,p)
SYMMETRY                  False
THRESH                    12
SCF_CONVERGENCE           8
MAX_SUB_FILE_NUM          128
MEM_STATIC                400
MEM_TOTAL                 4000
$end
--------------------------------------------------------------

             Standard Nuclear Orientation (Angstroms)
    I     Atom           X                Y                Z
 ----------------------------------------------------------------
    1      C       2.1666222852    -0.6662056659     1.0427531381
    2      C       2.2203819890     0.8900573511     0.8547463950
    3      C       1.7210944278    -1.1367153779    -0.3624147390
    4      C       0.2135592416    -0.8620582606    -0.5268489018
    5      C       0.2145038153     0.6877913784    -0.6671345478
    6      C       1.7347860802     1.0117865767    -0.6400772433
    7      O       2.3103696288    -0.1627765215    -1.2338146809
    8      H      -0.1586355223    -1.3412603756    -1.4335109130
    9      H      -0.3795824002    -1.2247557692     0.3150483137
   10      H      -0.2102519983     1.0027990381    -1.6217730772
   11      H      -0.3330892434     1.1981412709     0.1277657588
   12      H       1.9679378389    -2.1636996723    -0.5335222574
   13      H       1.9655473219     1.9577178979    -1.0837632009
   14      H       1.5581359823     1.3930186431     1.5280624502
   15      H       3.1746906004     1.3317814638     1.0524138222
   16      H       3.1270929326    -1.0614148869     1.3000763880
   17      H       1.5202474206    -0.9861631951     1.8331470648
   18      C      -0.8089605666    -0.6051644901     1.4198060452
   19      C      -0.7552008627     0.9510985269     1.2317993021
   20      C      -1.2544884239    -1.0756742021     0.0146381680
   21      C      -2.7620236101    -0.8010170848    -0.1497959947
   22      C      -2.7610790365     0.7488325542    -0.2900816408
   23      C      -1.2407967715     1.0728277525    -0.2630243362
   24      O      -0.6652132230    -0.1017353457    -0.8567617738
   25      H      -3.1342183741    -1.2802191998    -1.0564580059
   26      H      -3.3551652520    -1.1637145934     0.6921012208
   27      H      -3.1858348501     1.0638402139    -1.2447201701
   28      H      -3.3086720952     1.2591824467     0.5048186659
   29      H      -1.0076450128    -2.1026584965    -0.1564693503
   30      H      -1.0100355299     2.0187590737    -0.7067102939
   31      H      -1.4174468694     1.4540598189     1.9051153573
   32      H       0.1991077486     1.3928226396     1.4294667293
   33      H       0.1515100808    -1.0003737111     1.6771292950
   34      H      -1.4553354312    -0.9251220193     2.2101999719
 ----------------------------------------------------------------

   18    -618.2619286747      6.24E-09 Convergence criterion met
 Total energy in the final basis set = -618.26192867

                    Orbital Energies (a.u.)
 --------------------------------------------------------------

 Alpha MOs
 -- Occupied --
-19.254 -19.127 -10.321 -10.318 -10.240 -10.233 -10.233 -10.228
-10.216 -10.214 -10.187 -10.186 -10.176 -10.175  -1.464  -1.104
 -1.053  -1.014  -0.891  -0.815  -0.794  -0.777  -0.761  -0.747
 -0.713  -0.690  -0.646  -0.625  -0.596  -0.584  -0.540  -0.532
 -0.521  -0.514  -0.504  -0.481  -0.472  -0.456  -0.437  -0.430
 -0.420  -0.414  -0.413  -0.379  -0.371  -0.366  -0.357  -0.336
 -0.328  -0.298  -0.277  -0.229  -0.173  -0.088

          Ground-State Mulliken Net Atomic Charges

     Atom                 Charge (a.u.)
  ----------------------------------------
      1 C                    -0.330066
      2 C                    -0.414814
      3 C                    -0.073193
      4 C                     0.177982
      5 C                     0.062211
      6 C                    -0.056141
      7 O                    -0.032903
      8 H                    -0.242088
      9 H                     0.399883
     10 H                    -0.303973
     11 H                     0.405173
     12 H                     0.183503
     13 H                     0.177923
     14 H                     0.071205
     15 H                     0.211709
     16 H                     0.206177
     17 H                     0.094670
     18 C                    -0.330060
     19 C                    -0.353069
     20 C                    -0.392903
     21 C                    -0.658982
     22 C                    -0.841071
     23 C                    -0.214758
     24 O                     0.826834
     25 H                     0.161282
     26 H                     0.080236
     27 H                     0.163616
     28 H                     0.061803
     29 H                     0.188414
     30 H                     0.209063
     31 H                     0.118146
     32 H                     0.173915
     33 H                     0.156204
     34 H                     0.114074
  ----------------------------------------
  Sum of atomic charges =     0.000000

                    Cartesian Multipole Moments
 -----------------------------------------------------------------
    Charge (ESU x 10^10)
                 0.0000
    Dipole Moment (Debye)
         X      -1.6411      Y       0.3476      Z       5.3044
       Tot       5.5634
    Quadrupole Moments (Debye-Ang)
        XX     -97.9158     XY       1.2752     YY     -88.5144
        XZ       6.8414     YZ      -1.4368     ZZ    -104.1488

 Total job time:  327.28s(wall), 1302.49s(cpu)
        *  Thank you very much for using Q-Chem.  Have a nice day.  *
