 Q-Chem 5.0, Q-Chem, Inc., Pleasanton, CA (2017)
 Q-Chem 5.0.1 for Intel X86 EM64T Linux

User input:
--------------------------------------------------------------
$molecule
0  1
C        +0.20238000        +1.04766000        +0.59128000
C        +0.63819000        -0.38392000        +1.03507000
C        +1.32502000        +1.40342000        -0.40773000
C        +2.63024000        +1.71632000        +0.35656000
C        +3.06844000        +0.28546000        +0.80025000
C        +1.92879000        -0.57154000        +0.20725000
O        +1.61715000        +0.12844000        -1.01410000
H        +3.36771000        +2.16806000        -0.30914000
H        +2.46905000        +2.39751000        +1.19495000
H        +4.02649000        +0.00980000        +0.35668000
H        +3.15140000        +0.17666000        +1.88393000
H        +1.05332000        +2.11810000        -1.18255000
H        +2.19020000        -1.60239000        -0.02473000
H        +0.81538000        -0.46660000        +2.10960000
H        -0.10758000        -1.13032000        +0.75591000
H        -0.76622000        +1.02844000        +0.08894000
H        +0.14243000        +1.75630000        +1.41989000
@C        +0.23211000        +1.94430000        +3.45400000
@C        +0.66792000        +0.51272000        +3.89779000
@C        +1.35475000        +2.30006000        +2.45499000
@C        +2.65997000        +2.61296000        +3.21928000
@C        +3.09817000        +1.18210000        +3.66297000
@C        +1.95852000        +0.32510000        +3.06997000
@O        +1.64688000        +1.02508000        +1.84862000
@H        +3.39744000        +3.06470000        +2.55358000
@H        +2.49878000        +3.29415000        +4.05767000
@H        +4.05622000        +0.90644000        +3.21940000
@H        +3.18113000        +1.07330000        +4.74665000
@H        +1.08305000        +3.01474000        +1.68017000
@H        +2.21993000        -0.70575000        +2.83799000
@H        +0.84511000        +0.43004000        +4.97232000
@H        -0.07785000        -0.23368000        +3.61863000
@H        -0.73649000        +1.92508000        +2.95166000
@H        +0.17216000        +2.65294000        +4.28261000
$end

$rem
JOBTYPE                   SP
METHOD                    B3LYP
DFT_D                     d3_op
BASIS                     6-311++G(d,p)
SYMMETRY                  False
THRESH                    12
SCF_CONVERGENCE           8
MAX_SUB_FILE_NUM          128
MEM_STATIC                400
MEM_TOTAL                 4000
$end
--------------------------------------------------------------

             Standard Nuclear Orientation (Angstroms)
    I     Atom           X                Y                Z
 ----------------------------------------------------------------
    1      C       0.2023800000     1.0476600000     0.5912800000
    2      C       0.6381900000    -0.3839200000     1.0350700000
    3      C       1.3250200000     1.4034200000    -0.4077300000
    4      C       2.6302400000     1.7163200000     0.3565600000
    5      C       3.0684400000     0.2854600000     0.8002500000
    6      C       1.9287900000    -0.5715400000     0.2072500000
    7      O       1.6171500000     0.1284400000    -1.0141000000
    8      H       3.3677100000     2.1680600000    -0.3091400000
    9      H       2.4690500000     2.3975100000     1.1949500000
   10      H       4.0264900000     0.0098000000     0.3566800000
   11      H       3.1514000000     0.1766600000     1.8839300000
   12      H       1.0533200000     2.1181000000    -1.1825500000
   13      H       2.1902000000    -1.6023900000    -0.0247300000
   14      H       0.8153800000    -0.4666000000     2.1096000000
   15      H      -0.1075800000    -1.1303200000     0.7559100000
   16      H      -0.7662200000     1.0284400000     0.0889400000
   17      H       0.1424300000     1.7563000000     1.4198900000
   18      GH      0.2321100000     1.9443000000     3.4540000000
   19      GH      0.6679200000     0.5127200000     3.8977900000
   20      GH      1.3547500000     2.3000600000     2.4549900000
   21      GH      2.6599700000     2.6129600000     3.2192800000
   22      GH      3.0981700000     1.1821000000     3.6629700000
   23      GH      1.9585200000     0.3251000000     3.0699700000
   24      GH      1.6468800000     1.0250800000     1.8486200000
   25      GH      3.3974400000     3.0647000000     2.5535800000
   26      GH      2.4987800000     3.2941500000     4.0576700000
   27      GH      4.0562200000     0.9064400000     3.2194000000
   28      GH      3.1811300000     1.0733000000     4.7466500000
   29      GH      1.0830500000     3.0147400000     1.6801700000
   30      GH      2.2199300000    -0.7057500000     2.8379900000
   31      GH      0.8451100000     0.4300400000     4.9723200000
   32      GH     -0.0778500000    -0.2336800000     3.6186300000
   33      GH     -0.7364900000     1.9250800000     2.9516600000
   34      GH      0.1721600000     2.6529400000     4.2826100000
 ----------------------------------------------------------------

   12    -309.9691138406      1.24E-09 Convergence criterion met
 Total energy in the final basis set = -309.96911384

                    Orbital Energies (a.u.)
 --------------------------------------------------------------

 Alpha MOs
 -- Occupied --
-19.118 -10.219 -10.219 -10.170 -10.170 -10.170 -10.170  -1.046
 -0.798  -0.751  -0.745  -0.612  -0.572  -0.571  -0.524  -0.478
 -0.468  -0.418  -0.407  -0.388  -0.366  -0.361  -0.348  -0.342
 -0.323  -0.306  -0.263

          Ground-State Mulliken Net Atomic Charges

     Atom                 Charge (a.u.)
  ----------------------------------------
      1 C                    -0.202479
      2 C                    -0.209493
      3 C                    -0.284987
      4 C                    -0.202621
      5 C                    -0.207287
      6 C                    -0.284843
      7 O                    -0.157225
      8 H                     0.226342
      9 H                     0.115900
     10 H                     0.226512
     11 H                     0.115641
     12 H                     0.230624
     13 H                     0.231086
     14 H                     0.116334
     15 H                     0.226736
     16 H                     0.226110
     17 H                     0.115693
     18 GH                    0.017900
     19 GH                    0.016488
     20 GH                   -0.143349
     21 GH                    0.017150
     22 GH                    0.016715
     23 GH                   -0.142507
     24 GH                   -0.121250
     25 GH                   -0.006251
     26 GH                   -0.000518
     27 GH                   -0.006293
     28 GH                   -0.000490
     29 GH                    0.042452
     30 GH                    0.041447
     31 GH                   -0.000556
     32 GH                   -0.006300
     33 GH                   -0.006129
     34 GH                   -0.000550
  ----------------------------------------
  Sum of atomic charges =     0.000000

                    Cartesian Multipole Moments
 -----------------------------------------------------------------
    Charge (ESU x 10^10)
                 0.0000
    Dipole Moment (Debye)
         X       0.0178      Y       0.5234      Z       1.6661
       Tot       1.7465
    Quadrupole Moments (Debye-Ang)
        XX     -43.1170     XY       0.2854     YY     -41.2843
        XZ       2.8610     YZ      -0.6879     ZZ     -45.8905

 Total job time:  161.28s(wall), 641.72s(cpu)
        *  Thank you very much for using Q-Chem.  Have a nice day.  *
