 Q-Chem 5.0, Q-Chem, Inc., Pleasanton, CA (2017)
 Q-Chem 5.0.1 for Intel X86 EM64T Linux

User input:
--------------------------------------------------------------
$molecule
0  1
C        +0.22270000        +1.04488000        +0.58595000
C        +0.62626000        -0.41353000        +0.99871000
C        +1.33008000        +1.39974000        -0.43491000
C        +2.63070000        +1.71700000        +0.32855000
C        +3.04336000        +0.29351000        +0.80300000
C        +1.94423000        -0.59299000        +0.15262000
O        +1.62840000        +0.13663000        -1.04376000
H        +3.37234000        +2.13782000        -0.35195000
H        +2.48236000        +2.42488000        +1.14651000
H        +4.02182000        +0.00994000        +0.41161000
H        +3.07359000        +0.18738000        +1.88928000
H        +1.03270000        +2.19943000        -1.08064000
H        +2.24339000        -1.61496000        +0.04786000
H        +0.81693000        -0.48905000        +2.04887000
H        -0.12524000        -1.15356000        +0.81843000
H        -0.74673000        +1.06811000        +0.13365000
H        +0.15552000        +1.72617000        +1.40828000
@C        +4.62481000        +3.60761000        +4.62375000
@C        +5.02837000        +2.14920000        +5.03651000
@C        +5.73219000        +3.96247000        +3.60289000
@C        +7.03281000        +4.27973000        +4.36635000
@C        +7.44547000        +2.85624000        +4.84080000
@C        +6.34634000        +1.96974000        +4.19042000
@O        +6.03051000        +2.69936000        +2.99404000
@H        +7.77445000        +4.70055000        +3.68585000
@H        +6.88447000        +4.98761000        +5.18431000
@H        +8.42393000        +2.57267000        +4.44941000
@H        +7.47570000        +2.75011000        +5.92708000
@H        +5.43481000        +4.76216000        +2.95716000
@H        +6.64550000        +0.94777000        +4.08566000
@H        +5.21904000        +2.07368000        +6.08667000
@H        +4.27687000        +1.40917000        +4.85623000
@H        +3.65538000        +3.63084000        +4.17145000
@H        +4.55763000        +4.28890000        +5.44608000
$end

$rem
JOBTYPE                   SP
METHOD                    B3LYP
DFT_D                     d3_op
BASIS                     6-311++G(d,p)
SYMMETRY                  False
THRESH                    12
SCF_CONVERGENCE           8
MAX_SUB_FILE_NUM          128
MEM_STATIC                400
MEM_TOTAL                 4000
$end
--------------------------------------------------------------

             Standard Nuclear Orientation (Angstroms)
    I     Atom           X                Y                Z
 ----------------------------------------------------------------
    1      C       0.2227000000     1.0448800000     0.5859500000
    2      C       0.6262600000    -0.4135300000     0.9987100000
    3      C       1.3300800000     1.3997400000    -0.4349100000
    4      C       2.6307000000     1.7170000000     0.3285500000
    5      C       3.0433600000     0.2935100000     0.8030000000
    6      C       1.9442300000    -0.5929900000     0.1526200000
    7      O       1.6284000000     0.1366300000    -1.0437600000
    8      H       3.3723400000     2.1378200000    -0.3519500000
    9      H       2.4823600000     2.4248800000     1.1465100000
   10      H       4.0218200000     0.0099400000     0.4116100000
   11      H       3.0735900000     0.1873800000     1.8892800000
   12      H       1.0327000000     2.1994300000    -1.0806400000
   13      H       2.2433900000    -1.6149600000     0.0478600000
   14      H       0.8169300000    -0.4890500000     2.0488700000
   15      H      -0.1252400000    -1.1535600000     0.8184300000
   16      H      -0.7467300000     1.0681100000     0.1336500000
   17      H       0.1555200000     1.7261700000     1.4082800000
   18      GH      4.6248100000     3.6076100000     4.6237500000
   19      GH      5.0283700000     2.1492000000     5.0365100000
   20      GH      5.7321900000     3.9624700000     3.6028900000
   21      GH      7.0328100000     4.2797300000     4.3663500000
   22      GH      7.4454700000     2.8562400000     4.8408000000
   23      GH      6.3463400000     1.9697400000     4.1904200000
   24      GH      6.0305100000     2.6993600000     2.9940400000
   25      GH      7.7744500000     4.7005500000     3.6858500000
   26      GH      6.8844700000     4.9876100000     5.1843100000
   27      GH      8.4239300000     2.5726700000     4.4494100000
   28      GH      7.4757000000     2.7501100000     5.9270800000
   29      GH      5.4348100000     4.7621600000     2.9571600000
   30      GH      6.6455000000     0.9477700000     4.0856600000
   31      GH      5.2190400000     2.0736800000     6.0866700000
   32      GH      4.2768700000     1.4091700000     4.8562300000
   33      GH      3.6553800000     3.6308400000     4.1714500000
   34      GH      4.5576300000     4.2889000000     5.4460800000
 ----------------------------------------------------------------

   12    -309.9595018242      6.20E-09 Convergence criterion met
 Total energy in the final basis set = -309.95950182

                    Orbital Energies (a.u.)
 --------------------------------------------------------------

 Alpha MOs
 -- Occupied --
-19.123 -10.221 -10.218 -10.168 -10.167 -10.165 -10.163  -1.050
 -0.798  -0.749  -0.747  -0.614  -0.578  -0.574  -0.527  -0.478
 -0.465  -0.431  -0.406  -0.395  -0.364  -0.360  -0.351  -0.339
 -0.317  -0.304  -0.264

          Ground-State Mulliken Net Atomic Charges

     Atom                 Charge (a.u.)
  ----------------------------------------
      1 C                    -0.452473
      2 C                    -0.428779
      3 C                     0.093669
      4 C                    -0.354667
      5 C                    -0.338184
      6 C                     0.093045
      7 O                    -0.146300
      8 H                     0.170354
      9 H                     0.078907
     10 H                     0.161130
     11 H                     0.072262
     12 H                     0.231980
     13 H                     0.234970
     14 H                     0.115395
     15 H                     0.175583
     16 H                     0.168799
     17 H                     0.121954
     18 GH                    0.001269
     19 GH                    0.004672
     20 GH                   -0.006219
     21 GH                   -0.000047
     22 GH                   -0.001061
     23 GH                   -0.008644
     24 GH                    0.000771
     25 GH                   -0.000089
     26 GH                    0.000061
     27 GH                   -0.000069
     28 GH                    0.000031
     29 GH                    0.001154
     30 GH                    0.001209
     31 GH                   -0.000363
     32 GH                    0.005636
     33 GH                    0.004396
     34 GH                   -0.000353
  ----------------------------------------
  Sum of atomic charges =    -0.000000

                    Cartesian Multipole Moments
 -----------------------------------------------------------------
    Charge (ESU x 10^10)
                -0.0000
    Dipole Moment (Debye)
         X      -0.0123      Y       0.5177      Z       1.7227
       Tot       1.7989
    Quadrupole Moments (Debye-Ang)
        XX     -43.2173     XY      -0.0530     YY     -40.6227
        XZ       2.7795     YZ      -0.8642     ZZ     -46.2412

 Total job time:  83.88s(wall), 333.80s(cpu)
        *  Thank you very much for using Q-Chem.  Have a nice day.  *
