 Q-Chem 5.0, Q-Chem, Inc., Pleasanton, CA (2017)
 Q-Chem 5.0.1 for Intel X86 EM64T Linux

User input:
--------------------------------------------------------------
$molecule
0  1
C        +0.22270000        +1.04488000        +0.58595000
C        +0.62626000        -0.41353000        +0.99871000
C        +1.33008000        +1.39974000        -0.43491000
C        +2.63070000        +1.71700000        +0.32855000
C        +3.04336000        +0.29351000        +0.80300000
C        +1.94423000        -0.59299000        +0.15262000
O        +1.62840000        +0.13663000        -1.04376000
H        +3.37234000        +2.13782000        -0.35195000
H        +2.48236000        +2.42488000        +1.14651000
H        +4.02182000        +0.00994000        +0.41161000
H        +3.07359000        +0.18738000        +1.88928000
H        +1.03270000        +2.19943000        -1.08064000
H        +2.24339000        -1.61496000        +0.04786000
H        +0.81693000        -0.48905000        +2.04887000
H        -0.12524000        -1.15356000        +0.81843000
H        -0.74673000        +1.06811000        +0.13365000
H        +0.15552000        +1.72617000        +1.40828000
@C        +2.25444000        +2.22768000        +2.44955000
@C        +2.65800000        +0.76927000        +2.86231000
@C        +3.36182000        +2.58254000        +1.42869000
@C        +4.66244000        +2.89980000        +2.19215000
@C        +5.07510000        +1.47631000        +2.66660000
@C        +3.97597000        +0.58981000        +2.01622000
@O        +3.66014000        +1.31943000        +0.81984000
@H        +5.40408000        +3.32062000        +1.51165000
@H        +4.51410000        +3.60768000        +3.01011000
@H        +6.05356000        +1.19274000        +2.27521000
@H        +5.10533000        +1.37018000        +3.75288000
@H        +3.06444000        +3.38223000        +0.78296000
@H        +4.27513000        -0.43216000        +1.91146000
@H        +2.84867000        +0.69375000        +3.91247000
@H        +1.90650000        +0.02924000        +2.68203000
@H        +1.28501000        +2.25091000        +1.99725000
@H        +2.18726000        +2.90897000        +3.27188000
$end

$rem
JOBTYPE                   SP
METHOD                    B3LYP
DFT_D                     d3_op
BASIS                     6-311++G(d,p)
SYMMETRY                  False
THRESH                    12
SCF_CONVERGENCE           8
MAX_SUB_FILE_NUM          128
MEM_STATIC                400
MEM_TOTAL                 4000
$end
--------------------------------------------------------------

             Standard Nuclear Orientation (Angstroms)
    I     Atom           X                Y                Z
 ----------------------------------------------------------------
    1      C       0.2227000000     1.0448800000     0.5859500000
    2      C       0.6262600000    -0.4135300000     0.9987100000
    3      C       1.3300800000     1.3997400000    -0.4349100000
    4      C       2.6307000000     1.7170000000     0.3285500000
    5      C       3.0433600000     0.2935100000     0.8030000000
    6      C       1.9442300000    -0.5929900000     0.1526200000
    7      O       1.6284000000     0.1366300000    -1.0437600000
    8      H       3.3723400000     2.1378200000    -0.3519500000
    9      H       2.4823600000     2.4248800000     1.1465100000
   10      H       4.0218200000     0.0099400000     0.4116100000
   11      H       3.0735900000     0.1873800000     1.8892800000
   12      H       1.0327000000     2.1994300000    -1.0806400000
   13      H       2.2433900000    -1.6149600000     0.0478600000
   14      H       0.8169300000    -0.4890500000     2.0488700000
   15      H      -0.1252400000    -1.1535600000     0.8184300000
   16      H      -0.7467300000     1.0681100000     0.1336500000
   17      H       0.1555200000     1.7261700000     1.4082800000
   18      GH      2.2544400000     2.2276800000     2.4495500000
   19      GH      2.6580000000     0.7692700000     2.8623100000
   20      GH      3.3618200000     2.5825400000     1.4286900000
   21      GH      4.6624400000     2.8998000000     2.1921500000
   22      GH      5.0751000000     1.4763100000     2.6666000000
   23      GH      3.9759700000     0.5898100000     2.0162200000
   24      GH      3.6601400000     1.3194300000     0.8198400000
   25      GH      5.4040800000     3.3206200000     1.5116500000
   26      GH      4.5141000000     3.6076800000     3.0101100000
   27      GH      6.0535600000     1.1927400000     2.2752100000
   28      GH      5.1053300000     1.3701800000     3.7528800000
   29      GH      3.0644400000     3.3822300000     0.7829600000
   30      GH      4.2751300000    -0.4321600000     1.9114600000
   31      GH      2.8486700000     0.6937500000     3.9124700000
   32      GH      1.9065000000     0.0292400000     2.6820300000
   33      GH      1.2850100000     2.2509100000     1.9972500000
   34      GH      2.1872600000     2.9089700000     3.2718800000
 ----------------------------------------------------------------

   12    -309.9610929239      6.73E-09 Convergence criterion met
 Total energy in the final basis set = -309.96109292

                    Orbital Energies (a.u.)
 --------------------------------------------------------------

 Alpha MOs
 -- Occupied --
-19.123 -10.221 -10.218 -10.168 -10.167 -10.165 -10.163  -1.050
 -0.797  -0.749  -0.747  -0.614  -0.578  -0.573  -0.526  -0.478
 -0.465  -0.430  -0.406  -0.395  -0.364  -0.359  -0.351  -0.339
 -0.317  -0.304  -0.264

          Ground-State Mulliken Net Atomic Charges

     Atom                 Charge (a.u.)
  ----------------------------------------
      1 C                    -0.269580
      2 C                    -0.269711
      3 C                    -0.318836
      4 C                     0.043511
      5 C                     0.043536
      6 C                    -0.201125
      7 O                    -0.090955
      8 H                     0.207110
      9 H                     0.183885
     10 H                     0.212550
     11 H                     0.159674
     12 H                     0.221106
     13 H                     0.220213
     14 H                     0.095255
     15 H                     0.199826
     16 H                     0.193244
     17 H                     0.111888
     18 GH                   -0.025722
     19 GH                   -0.117174
     20 GH                   -0.135968
     21 GH                   -0.072873
     22 GH                   -0.034805
     23 GH                   -0.123633
     24 GH                   -0.333787
     25 GH                   -0.000020
     26 GH                    0.000681
     27 GH                   -0.000736
     28 GH                    0.001716
     29 GH                    0.026657
     30 GH                    0.028490
     31 GH                    0.001258
     32 GH                    0.026860
     33 GH                    0.015597
     34 GH                    0.001868
  ----------------------------------------
  Sum of atomic charges =     0.000000

                    Cartesian Multipole Moments
 -----------------------------------------------------------------
    Charge (ESU x 10^10)
                 0.0000
    Dipole Moment (Debye)
         X      -0.0125      Y       0.5115      Z       1.7009
       Tot       1.7762
    Quadrupole Moments (Debye-Ang)
        XX     -43.2224     XY      -0.0538     YY     -40.6404
        XZ       2.7538     YZ      -0.8463     ZZ     -46.1837

 Total job time:  203.96s(wall), 811.43s(cpu)
        *  Thank you very much for using Q-Chem.  Have a nice day.  *
