 Q-Chem 5.0, Q-Chem, Inc., Pleasanton, CA (2017)
 Q-Chem 5.0.1 for Intel X86 EM64T Linux

User input:
--------------------------------------------------------------
$molecule
0  1
--
0  1
C        +0.22270000        +1.04488000        +0.58595000
C        +0.62626000        -0.41353000        +0.99871000
C        +1.33008000        +1.39974000        -0.43491000
C        +2.63070000        +1.71700000        +0.32855000
C        +3.04336000        +0.29351000        +0.80300000
C        +1.94423000        -0.59299000        +0.15262000
O        +1.62840000        +0.13663000        -1.04376000
H        +3.37234000        +2.13782000        -0.35195000
H        +2.48236000        +2.42488000        +1.14651000
H        +4.02182000        +0.00994000        +0.41161000
H        +3.07359000        +0.18738000        +1.88928000
H        +1.03270000        +2.19943000        -1.08064000
H        +2.24339000        -1.61496000        +0.04786000
H        +0.81693000        -0.48905000        +2.04887000
H        -0.12524000        -1.15356000        +0.81843000
H        -0.74673000        +1.06811000        +0.13365000
H        +0.15552000        +1.72617000        +1.40828000
--
0  1
C        +4.62481000        +3.60761000        +4.62375000
C        +5.02837000        +2.14920000        +5.03651000
C        +5.73219000        +3.96247000        +3.60289000
C        +7.03281000        +4.27973000        +4.36635000
C        +7.44547000        +2.85624000        +4.84080000
C        +6.34634000        +1.96974000        +4.19042000
O        +6.03051000        +2.69936000        +2.99404000
H        +7.77445000        +4.70055000        +3.68585000
H        +6.88447000        +4.98761000        +5.18431000
H        +8.42393000        +2.57267000        +4.44941000
H        +7.47570000        +2.75011000        +5.92708000
H        +5.43481000        +4.76216000        +2.95716000
H        +6.64550000        +0.94777000        +4.08566000
H        +5.21904000        +2.07368000        +6.08667000
H        +4.27687000        +1.40917000        +4.85623000
H        +3.65538000        +3.63084000        +4.17145000
H        +4.55763000        +4.28890000        +5.44608000
$end

$rem
JOBTYPE                   SP
METHOD                    B3LYP
DFT_D                     d3_op
BASIS                     6-311++G(d,p)
SYMMETRY                  False
THRESH                    12
SCF_CONVERGENCE           8
MAX_SUB_FILE_NUM          128
MEM_STATIC                400
MEM_TOTAL                 4000
$end
--------------------------------------------------------------

             Standard Nuclear Orientation (Angstroms)
    I     Atom           X                Y                Z
 ----------------------------------------------------------------
    1      C       3.8128883808    -0.4872688764     1.2738072132
    2      C       3.8599147712     1.0356597842     0.9014256448
    3      C       3.5158524512    -1.1368058196    -0.0988699665
    4      C       2.0276887716    -0.9264763039    -0.4398506422
    5      C       2.0175576955     0.5943869616    -0.7693762816
    6      C       3.5223392797     0.9617854741    -0.6366590325
    7      O       4.1725248852    -0.2594307417    -1.0230638336
    8      H       1.7545541589    -1.5222068758    -1.3120330664
    9      H       1.3602541298    -1.2010331963     0.3794825765
   10      H       1.6840921332     0.7794205227    -1.7918954006
   11      H       1.3860457293     1.1816906032    -0.0997131294
   12      H       3.7948584433    -2.1696231654    -0.1175830621
   13      H       3.7805286867     1.8531158307    -1.1693526306
   14      H       3.1264440963     1.5976912500     1.4409029339
   15      H       4.7828274214     1.5246627137     1.1338173496
   16      H       4.7494996640    -0.8213090890     1.6688842794
   17      H       3.0968837419    -0.7271479992     2.0318911195
   18      C      -2.6846536706    -0.4379170979     1.4455571424
   19      C      -2.6376272801     1.0850115627     1.0731755739
   20      C      -2.9816896002    -1.0874540411     0.0728799627
   21      C      -4.4698532797    -0.8771245254    -0.2681007130
   22      C      -4.4799843559     0.6437387401    -0.5976263524
   23      C      -2.9752027717     1.0111372526    -0.4649091033
   24      O      -2.3250171661    -0.2100789632    -0.8513139044
   25      H      -4.7429878925    -1.4728550973    -1.1402831372
   26      H      -5.1372879215    -1.1516814178     0.5512325057
   27      H      -4.8134499181     0.8287723012    -1.6201454714
   28      H      -5.1114963220     1.2310423817     0.0720367998
   29      H      -2.7026836081    -2.1202713869     0.0541668671
   30      H      -2.7170133647     1.9024676092    -0.9976027015
   31      H      -3.3710979550     1.6470430285     1.6126528630
   32      H      -1.7147146300     1.5740144922     1.3055672788
   33      H      -1.7480423873    -0.7719573105     1.8406342086
   34      H      -3.4006583094    -0.6777962207     2.2036410487
 ----------------------------------------------------------------

   13    -619.9200768638      6.16E-09 Convergence criterion met
 Total energy in the final basis set = -619.92007686

                    Orbital Energies (a.u.)
 --------------------------------------------------------------

 Alpha MOs
 -- Occupied --
-19.126 -19.118 -10.224 -10.221 -10.217 -10.213 -10.170 -10.169
-10.168 -10.166 -10.161 -10.161 -10.161 -10.160  -1.053  -1.045
 -0.800  -0.793  -0.752  -0.750  -0.744  -0.742  -0.617  -0.609
 -0.581  -0.576  -0.573  -0.568  -0.529  -0.522  -0.480  -0.472
 -0.468  -0.460  -0.433  -0.426  -0.409  -0.401  -0.398  -0.390
 -0.367  -0.362  -0.359  -0.355  -0.354  -0.346  -0.342  -0.334
 -0.320  -0.312  -0.307  -0.299  -0.267  -0.259

          Ground-State Mulliken Net Atomic Charges

     Atom                 Charge (a.u.)
  ----------------------------------------
      1 C                    -0.451912
      2 C                    -0.428660
      3 C                     0.101721
      4 C                    -0.354904
      5 C                    -0.352492
      6 C                     0.104685
      7 O                    -0.149026
      8 H                     0.172530
      9 H                     0.076115
     10 H                     0.164108
     11 H                     0.067686
     12 H                     0.230505
     13 H                     0.233368
     14 H                     0.113343
     15 H                     0.173415
     16 H                     0.167257
     17 H                     0.120172
     18 C                    -0.341277
     19 C                    -0.427461
     20 C                     0.132470
     21 C                    -0.541048
     22 C                    -0.459360
     23 C                     0.186440
     24 O                    -0.107396
     25 H                     0.168245
     26 H                     0.124158
     27 H                     0.166042
     28 H                     0.125569
     29 H                     0.219882
     30 H                     0.223515
     31 H                     0.125273
     32 H                     0.145476
     33 H                     0.134401
     34 H                     0.137162
  ----------------------------------------
  Sum of atomic charges =    -0.000000

                    Cartesian Multipole Moments
 -----------------------------------------------------------------
    Charge (ESU x 10^10)
                -0.0000
    Dipole Moment (Debye)
         X      -2.6860      Y       0.6039      Z       2.4215
       Tot       3.6665
    Quadrupole Moments (Debye-Ang)
        XX     -91.8964     XY       1.1244     YY     -81.5196
        XZ       3.8657     YZ      -2.5269     ZZ     -90.0514

 Total job time:  89.02s(wall), 354.32s(cpu)
        *  Thank you very much for using Q-Chem.  Have a nice day.  *
