 Q-Chem 5.0, Q-Chem, Inc., Pleasanton, CA (2017)
 Q-Chem 5.0.1 for Intel X86 EM64T Linux

User input:
--------------------------------------------------------------
$molecule
0  1
--
0  1
C        +0.20238000        +1.04766000        +0.59128000
C        +0.63819000        -0.38392000        +1.03507000
C        +1.32502000        +1.40342000        -0.40773000
C        +2.63024000        +1.71632000        +0.35656000
C        +3.06844000        +0.28546000        +0.80025000
C        +1.92879000        -0.57154000        +0.20725000
O        +1.61715000        +0.12844000        -1.01410000
H        +3.36771000        +2.16806000        -0.30914000
H        +2.46905000        +2.39751000        +1.19495000
H        +4.02649000        +0.00980000        +0.35668000
H        +3.15140000        +0.17666000        +1.88393000
H        +1.05332000        +2.11810000        -1.18255000
H        +2.19020000        -1.60239000        -0.02473000
H        +0.81538000        -0.46660000        +2.10960000
H        -0.10758000        -1.13032000        +0.75591000
H        -0.76622000        +1.02844000        +0.08894000
H        +0.14243000        +1.75630000        +1.41989000
--
0  1
C        +0.23211000        +1.94430000        +3.45400000
C        +0.66792000        +0.51272000        +3.89779000
C        +1.35475000        +2.30006000        +2.45499000
C        +2.65997000        +2.61296000        +3.21928000
C        +3.09817000        +1.18210000        +3.66297000
C        +1.95852000        +0.32510000        +3.06997000
O        +1.64688000        +1.02508000        +1.84862000
H        +3.39744000        +3.06470000        +2.55358000
H        +2.49878000        +3.29415000        +4.05767000
H        +4.05622000        +0.90644000        +3.21940000
H        +3.18113000        +1.07330000        +4.74665000
H        +1.08305000        +3.01474000        +1.68017000
H        +2.21993000        -0.70575000        +2.83799000
H        +0.84511000        +0.43004000        +4.97232000
H        -0.07785000        -0.23368000        +3.61863000
H        -0.73649000        +1.92508000        +2.95166000
H        +0.17216000        +2.65294000        +4.28261000
$end

$rem
JOBTYPE                   SP
METHOD                    B3LYP
DFT_D                     d3_op
BASIS                     6-311++G(d,p)
SYMMETRY                  False
THRESH                    12
SCF_CONVERGENCE           8
MAX_SUB_FILE_NUM          128
MEM_STATIC                400
MEM_TOTAL                 4000
$end
--------------------------------------------------------------

             Standard Nuclear Orientation (Angstroms)
    I     Atom           X                Y                Z
 ----------------------------------------------------------------
    1      C      -1.0361001588     1.2641352671    -0.7815360229
    2      C      -1.0363525027     1.2659462607     0.7793284405
    3      C      -1.8717642976    -0.0004685244    -1.0770853844
    4      C      -1.0358880884    -1.2650351814    -0.7807291879
    5      C      -1.0359966974    -1.2657180795     0.7801167101
    6      C      -1.8694705290    -0.0001542362     1.0777232509
    7      O      -2.8286833424     0.0001709578     0.0012949042
    8      H      -1.5286553053    -2.1543434086    -1.1774644467
    9      H      -0.0338222501    -1.2126410573    -1.2120280816
   10      H      -1.5321107243    -2.1535940204     1.1752746139
   11      H      -0.0336586126    -1.2157978528     1.2112877652
   12      H      -2.4001057925    -0.0008536513    -2.0288151472
   13      H      -2.3964560568     0.0001729912     2.0301348097
   14      H      -0.0339941758     1.2176562466     1.2103653977
   15      H      -1.5333577127     2.1533528578     1.1751964883
   16      H      -1.5308487126     2.1522298446    -1.1782887595
   17      H      -0.0341475398     1.2111800264    -1.2124024475
   18      C       1.9639019621     1.2644699828    -0.7811851438
   19      C       1.9636496183     1.2662809764     0.7796793197
   20      C       1.1282378233    -0.0001338087    -1.0767345053
   21      C       1.9641140325    -1.2647004657    -0.7803783088
   22      C       1.9640054235    -1.2653833638     0.7804675893
   23      C       1.1305315919     0.0001804795     1.0780741300
   24      O       0.1713187786     0.0005056735     0.0016457834
   25      H       1.4713468157    -2.1540086929    -1.1771135675
   26      H       2.9661798709    -1.2123063417    -1.2116772025
   27      H       1.4678913966    -2.1532593047     1.1756254930
   28      H       2.9663435083    -1.2154631371     1.2116386443
   29      H       0.5998963285    -0.0005189356    -2.0284642681
   30      H       0.6035460641     0.0005077069     2.0304856888
   31      H       2.9660079452     1.2179909622     1.2107162768
   32      H       1.4666444083     2.1536875734     1.1755473675
   33      H       1.4691534084     2.1525645603    -1.1779378804
   34      H       2.9658545812     1.2115147421    -1.2120515684
 ----------------------------------------------------------------

   13    -619.5630159076      4.79E-09 Convergence criterion met
 Total energy in the final basis set = -619.56301591

                    Orbital Energies (a.u.)
 --------------------------------------------------------------

 Alpha MOs
 -- Occupied --
-19.116 -19.096 -10.242 -10.242 -10.198 -10.198 -10.191 -10.191
-10.190 -10.190 -10.138 -10.138 -10.138 -10.138  -1.120  -1.023
 -0.845  -0.813  -0.792  -0.766  -0.737  -0.723  -0.651  -0.628
 -0.616  -0.589  -0.578  -0.552  -0.546  -0.531  -0.524  -0.479
 -0.454  -0.440  -0.438  -0.429  -0.428  -0.422  -0.404  -0.399
 -0.382  -0.373  -0.372  -0.353  -0.337  -0.336  -0.335  -0.319
 -0.304  -0.282  -0.280  -0.272  -0.244  -0.223

          Ground-State Mulliken Net Atomic Charges

     Atom                 Charge (a.u.)
  ----------------------------------------
      1 C                    -0.240953
      2 C                    -0.246926
      3 C                    -0.195593
      4 C                    -0.241478
      5 C                    -0.245695
      6 C                    -0.193257
      7 O                    -0.165560
      8 H                     0.190658
      9 H                     0.088025
     10 H                     0.191058
     11 H                     0.086257
     12 H                     0.229896
     13 H                     0.229915
     14 H                     0.086181
     15 H                     0.190872
     16 H                     0.190794
     17 H                     0.087774
     18 C                    -0.550396
     19 C                    -0.556123
     20 C                     0.239849
     21 C                    -0.551653
     22 C                    -0.554829
     23 C                     0.247857
     24 O                    -0.204207
     25 H                     0.172499
     26 H                     0.162837
     27 H                     0.172585
     28 H                     0.163253
     29 H                     0.272637
     30 H                     0.272703
     31 H                     0.163156
     32 H                     0.172590
     33 H                     0.172360
     34 H                     0.162915
  ----------------------------------------
  Sum of atomic charges =    -0.000000

                    Cartesian Multipole Moments
 -----------------------------------------------------------------
    Charge (ESU x 10^10)
                -0.0000
    Dipole Moment (Debye)
         X       5.7239      Y      -0.0033      Z      -0.0042
       Tot       5.7239
    Quadrupole Moments (Debye-Ang)
        XX     -96.3727     XY      -0.0014     YY     -90.7530
        XZ       0.0102     YZ       0.0064     ZZ     -83.0829

 Total job time:  181.33s(wall), 719.51s(cpu)
        *  Thank you very much for using Q-Chem.  Have a nice day.  *
