 Q-Chem 5.0, Q-Chem, Inc., Pleasanton, CA (2017)
 Q-Chem 5.0.1 for Intel X86 EM64T Linux

User input:
--------------------------------------------------------------
$molecule
0  1
--
0  1
C        +0.22270000        +1.04488000        +0.58595000
C        +0.62626000        -0.41353000        +0.99871000
C        +1.33008000        +1.39974000        -0.43491000
C        +2.63070000        +1.71700000        +0.32855000
C        +3.04336000        +0.29351000        +0.80300000
C        +1.94423000        -0.59299000        +0.15262000
O        +1.62840000        +0.13663000        -1.04376000
H        +3.37234000        +2.13782000        -0.35195000
H        +2.48236000        +2.42488000        +1.14651000
H        +4.02182000        +0.00994000        +0.41161000
H        +3.07359000        +0.18738000        +1.88928000
H        +1.03270000        +2.19943000        -1.08064000
C        +2.35450000        -2.01267000        -0.16812000
H        +3.25743000        -2.00195000        -0.74215000
H        +1.57951000        -2.48932000        -0.73123000
H        +2.51687000        -2.55129000        +0.74206000
H        -0.74673000        +1.06811000        +0.13365000
H        +0.15552000        +1.72617000        +1.40828000
H        +0.81693000        -0.48905000        +2.04887000
H        -0.12524000        -1.15356000        +0.81843000
--
0  1
C        +3.69394000        +2.75583000        +3.42552000
C        +4.09750000        +1.29742000        +3.83828000
C        +4.80132000        +3.11069000        +2.40466000
C        +6.10194000        +3.42795000        +3.16812000
C        +6.51460000        +2.00446000        +3.64257000
C        +5.41547000        +1.11796000        +2.99219000
O        +5.09964000        +1.84758000        +1.79581000
H        +6.84358000        +3.84877000        +2.48762000
H        +5.95360000        +4.13583000        +3.98608000
H        +7.49306000        +1.72089000        +3.25118000
H        +6.54483000        +1.89833000        +4.72885000
H        +4.50394000        +3.91038000        +1.75893000
C        +5.82574000        -0.30172000        +2.67145000
H        +6.72867000        -0.29100000        +2.09742000
H        +5.05075000        -0.77837000        +2.10834000
H        +5.98811000        -0.84034000        +3.58163000
H        +2.72451000        +2.77906000        +2.97322000
H        +3.62676000        +3.43712000        +4.24785000
H        +4.28817000        +1.22190000        +4.88844000
H        +3.34600000        +0.55739000        +3.65800000
$end

$rem
JOBTYPE                   SP
METHOD                    B3LYP
DFT_D                     d3_op
BASIS                     6-311++G(d,p)
SYMMETRY                  False
THRESH                    12
SCF_CONVERGENCE           8
MAX_SUB_FILE_NUM          128
MEM_STATIC                400
MEM_TOTAL                 4000
$end
--------------------------------------------------------------

             Standard Nuclear Orientation (Angstroms)
    I     Atom           X                Y                Z
 ----------------------------------------------------------------
    1      C       2.9330212882    -1.5240447592     0.7900032020
    2      C       2.9769933189    -0.0358685823     1.2835509163
    3      C       2.5535377027    -1.3493197939    -0.6999077411
    4      C       1.0513940493    -1.0189615299    -0.7977102229
    5      C       1.0406309080     0.4435463573    -0.2660433225
    6      C       2.5545527245     0.7133566833    -0.0375564019
    7      O       3.1684464832    -0.1020675180    -1.0483169386
    8      H       0.7239044870    -1.0645187398    -1.8373614813
    9      H       0.4268987838    -1.7003593941    -0.2164529428
   10      H       0.6536080951     1.1376976195    -1.0139399839
   11      H       0.4536721083     0.5720310651     0.6456324507
   12      H       2.8192134701    -2.2081635936    -1.2801748414
   13      C       2.9878748477     2.1564826258    -0.1652528174
   14      H       2.6431081268     2.5511890675    -1.0981250902
   15      H       4.0556922919     2.2129824569    -0.1268956864
   16      H       2.5714370610     2.7264197193     0.6388954481
   17      H       3.8860359059    -1.9986911478     0.8966961829
   18      H       2.2570640144    -2.1444499769     1.3405256587
   19      H       2.2807900800     0.1384970164     2.0771452920
   20      H       3.9168401477     0.2724640463     1.6916151978
   21      C      -1.8612969529    -1.3946803721     0.9844055772
   22      C      -1.8173249222     0.0934958048     1.4779532915
   23      C      -2.2407805383    -1.2199554068    -0.5055053659
   24      C      -3.7429241918    -0.8895971428    -0.6033078477
   25      C      -3.7536873331     0.5729107444    -0.0716409474
   26      C      -2.2397655166     0.8427210703     0.1568459733
   27      O      -1.6258717579     0.0272968691    -0.8539145635
   28      H      -4.0704137540    -0.9351543527    -1.6429591062
   29      H      -4.3674194573    -1.5709950071    -0.0220505677
   30      H      -4.1407101460     1.2670620066    -0.8195376087
   31      H      -4.3406461328     0.7013954521     0.8400348259
   32      H      -1.9751047710    -2.0787992066    -1.0857724662
   33      C      -1.8064433934     2.2858470128     0.0291495577
   34      H      -2.1512101143     2.6805534546    -0.9037227150
   35      H      -0.7386259492     2.3423468440     0.0675066887
   36      H      -2.2228811801     2.8557841064     0.8332978232
   37      H      -0.9082823352    -1.8693267607     1.0910985580
   38      H      -2.5372542267    -2.0150855899     1.5349280338
   39      H      -2.5135281611     0.2678614034     2.2715476671
   40      H      -0.8774780934     0.4018284334     1.8860175729
 ----------------------------------------------------------------

   13    -698.5865932491      6.92E-09 Convergence criterion met
 Total energy in the final basis set = -698.58659325

                    Orbital Energies (a.u.)
 --------------------------------------------------------------

 Alpha MOs
 -- Occupied --
-19.122 -19.110 -10.230 -10.221 -10.215 -10.206 -10.170 -10.170
-10.169 -10.168 -10.157 -10.157 -10.156 -10.153 -10.151 -10.148
 -1.055  -1.040  -0.804  -0.789  -0.781  -0.767  -0.755  -0.738
 -0.688  -0.676  -0.622  -0.606  -0.580  -0.567  -0.563  -0.547
 -0.509  -0.495  -0.491  -0.477  -0.466  -0.453  -0.446  -0.432
 -0.422  -0.413  -0.411  -0.398  -0.394  -0.383  -0.382  -0.371
 -0.366  -0.354  -0.350  -0.349  -0.343  -0.338  -0.333  -0.325
 -0.320  -0.307  -0.304  -0.291  -0.268  -0.249

          Ground-State Mulliken Net Atomic Charges

     Atom                 Charge (a.u.)
  ----------------------------------------
      1 C                    -0.581396
      2 C                    -0.178030
      3 C                     0.035415
      4 C                    -0.212592
      5 C                    -0.116350
      6 C                    -0.165946
      7 O                    -0.044216
      8 H                     0.214234
      9 H                     0.040902
     10 H                     0.209145
     11 H                    -0.103874
     12 H                     0.238561
     13 C                    -0.523673
     14 H                     0.147187
     15 H                     0.163917
     16 H                     0.148960
     17 H                     0.170847
     18 H                     0.112759
     19 H                     0.125056
     20 H                     0.170000
     21 C                    -0.379321
     22 C                    -0.416597
     23 C                     0.197729
     24 C                    -0.676992
     25 C                    -0.467379
     26 C                     0.279236
     27 O                     0.072082
     28 H                     0.163285
     29 H                     0.130188
     30 H                     0.158438
     31 H                     0.135152
     32 H                     0.234468
     33 C                    -0.373607
     34 H                     0.158826
     35 H                     0.125313
     36 H                     0.143723
     37 H                     0.115985
     38 H                     0.175862
     39 H                     0.170030
     40 H                     0.202676
  ----------------------------------------
  Sum of atomic charges =     0.000000

                    Cartesian Multipole Moments
 -----------------------------------------------------------------
    Charge (ESU x 10^10)
                 0.0000
    Dipole Moment (Debye)
         X      -2.7013      Y      -0.6005      Z       2.2257
       Tot       3.5513
    Quadrupole Moments (Debye-Ang)
        XX    -104.5324     XY       0.0170     YY     -95.6632
        XZ       3.3581     YZ       1.5182     ZZ    -103.2490

 Total job time:  201.40s(wall), 801.50s(cpu)
        *  Thank you very much for using Q-Chem.  Have a nice day.  *
