 Q-Chem 5.0, Q-Chem, Inc., Pleasanton, CA (2017)
 Q-Chem 5.0.1 for Intel X86 EM64T Linux

User input:
--------------------------------------------------------------
$molecule
0  1
C        +0.22270000        +1.04488000        +0.58595000
C        +0.62626000        -0.41353000        +0.99871000
C        +1.33008000        +1.39974000        -0.43491000
C        +2.63070000        +1.71700000        +0.32855000
C        +3.04336000        +0.29351000        +0.80300000
C        +1.94423000        -0.59299000        +0.15262000
O        +1.62840000        +0.13663000        -1.04376000
H        +3.37234000        +2.13782000        -0.35195000
H        +2.48236000        +2.42488000        +1.14651000
H        +4.02182000        +0.00994000        +0.41161000
H        +3.07359000        +0.18738000        +1.88928000
H        +1.03270000        +2.19943000        -1.08064000
C        +2.35450000        -2.01267000        -0.16812000
H        +3.25743000        -2.00195000        -0.74215000
H        +1.57951000        -2.48932000        -0.73123000
H        +2.51687000        -2.55129000        +0.74206000
H        -0.74673000        +1.06811000        +0.13365000
H        +0.15552000        +1.72617000        +1.40828000
H        +0.81693000        -0.48905000        +2.04887000
H        -0.12524000        -1.15356000        +0.81843000
@C        +4.92334000        +3.36179000        +4.43120000
@C        +5.32690000        +1.90338000        +4.84396000
@C        +6.03072000        +3.71665000        +3.41034000
@C        +7.33134000        +4.03391000        +4.17380000
@C        +7.74400000        +2.61042000        +4.64825000
@C        +6.64487000        +1.72392000        +3.99787000
@O        +6.32904000        +2.45354000        +2.80149000
@H        +8.07298000        +4.45473000        +3.49330000
@H        +7.18300000        +4.74179000        +4.99176000
@H        +8.72246000        +2.32685000        +4.25686000
@H        +7.77423000        +2.50429000        +5.73453000
@H        +5.73334000        +4.51634000        +2.76461000
@C        +7.05514000        +0.30424000        +3.67713000
@H        +7.95807000        +0.31496000        +3.10310000
@H        +6.28015000        -0.17241000        +3.11402000
@H        +7.21751000        -0.23438000        +4.58731000
@H        +3.95391000        +3.38502000        +3.97890000
@H        +4.85616000        +4.04308000        +5.25353000
@H        +5.51757000        +1.82786000        +5.89412000
@H        +4.57540000        +1.16335000        +4.66368000
$end

$rem
JOBTYPE                   SP
METHOD                    B3LYP
DFT_D                     d3_op
BASIS                     6-311++G(d,p)
SYMMETRY                  False
THRESH                    12
SCF_CONVERGENCE           8
MAX_SUB_FILE_NUM          128
MEM_STATIC                400
MEM_TOTAL                 4000
$end
--------------------------------------------------------------

             Standard Nuclear Orientation (Angstroms)
    I     Atom           X                Y                Z
 ----------------------------------------------------------------
    1      C       0.2227000000     1.0448800000     0.5859500000
    2      C       0.6262600000    -0.4135300000     0.9987100000
    3      C       1.3300800000     1.3997400000    -0.4349100000
    4      C       2.6307000000     1.7170000000     0.3285500000
    5      C       3.0433600000     0.2935100000     0.8030000000
    6      C       1.9442300000    -0.5929900000     0.1526200000
    7      O       1.6284000000     0.1366300000    -1.0437600000
    8      H       3.3723400000     2.1378200000    -0.3519500000
    9      H       2.4823600000     2.4248800000     1.1465100000
   10      H       4.0218200000     0.0099400000     0.4116100000
   11      H       3.0735900000     0.1873800000     1.8892800000
   12      H       1.0327000000     2.1994300000    -1.0806400000
   13      C       2.3545000000    -2.0126700000    -0.1681200000
   14      H       3.2574300000    -2.0019500000    -0.7421500000
   15      H       1.5795100000    -2.4893200000    -0.7312300000
   16      H       2.5168700000    -2.5512900000     0.7420600000
   17      H      -0.7467300000     1.0681100000     0.1336500000
   18      H       0.1555200000     1.7261700000     1.4082800000
   19      H       0.8169300000    -0.4890500000     2.0488700000
   20      H      -0.1252400000    -1.1535600000     0.8184300000
   21      GH      4.9233400000     3.3617900000     4.4312000000
   22      GH      5.3269000000     1.9033800000     4.8439600000
   23      GH      6.0307200000     3.7166500000     3.4103400000
   24      GH      7.3313400000     4.0339100000     4.1738000000
   25      GH      7.7440000000     2.6104200000     4.6482500000
   26      GH      6.6448700000     1.7239200000     3.9978700000
   27      GH      6.3290400000     2.4535400000     2.8014900000
   28      GH      8.0729800000     4.4547300000     3.4933000000
   29      GH      7.1830000000     4.7417900000     4.9917600000
   30      GH      8.7224600000     2.3268500000     4.2568600000
   31      GH      7.7742300000     2.5042900000     5.7345300000
   32      GH      5.7333400000     4.5163400000     2.7646100000
   33      GH      7.0551400000     0.3042400000     3.6771300000
   34      GH      7.9580700000     0.3149600000     3.1031000000
   35      GH      6.2801500000    -0.1724100000     3.1140200000
   36      GH      7.2175100000    -0.2343800000     4.5873100000
   37      GH      3.9539100000     3.3850200000     3.9789000000
   38      GH      4.8561600000     4.0430800000     5.2535300000
   39      GH      5.5175700000     1.8278600000     5.8941200000
   40      GH      4.5754000000     1.1633500000     4.6636800000
 ----------------------------------------------------------------

   13    -349.2960547723      2.61E-09 Convergence criterion met
 Total energy in the final basis set = -349.29605477

                    Orbital Energies (a.u.)
 --------------------------------------------------------------

 Alpha MOs
 -- Occupied --
-19.119 -10.225 -10.216 -10.166 -10.166 -10.163 -10.162 -10.154
 -1.049  -0.798  -0.775  -0.748  -0.684  -0.615  -0.575  -0.556
 -0.503  -0.482  -0.465  -0.441  -0.418  -0.405  -0.392  -0.378
 -0.360  -0.348  -0.344  -0.336  -0.316  -0.301  -0.262

          Ground-State Mulliken Net Atomic Charges

     Atom                 Charge (a.u.)
  ----------------------------------------
      1 C                    -0.630055
      2 C                    -0.262771
      3 C                     0.380028
      4 C                    -0.613693
      5 C                    -0.133698
      6 C                    -0.012120
      7 O                    -0.080231
      8 H                     0.168535
      9 H                     0.091676
     10 H                     0.153300
     11 H                     0.063484
     12 H                     0.251657
     13 C                    -0.420723
     14 H                     0.145829
     15 H                     0.157430
     16 H                     0.137746
     17 H                     0.171109
     18 H                     0.121232
     19 H                     0.138357
     20 H                     0.168140
     21 GH                   -0.000450
     22 GH                    0.002165
     23 GH                   -0.007060
     24 GH                    0.000895
     25 GH                   -0.002823
     26 GH                   -0.007806
     27 GH                    0.000304
     28 GH                   -0.000042
     29 GH                    0.000023
     30 GH                   -0.000081
     31 GH                    0.000030
     32 GH                    0.001164
     33 GH                    0.003478
     34 GH                    0.000633
     35 GH                    0.004070
     36 GH                   -0.000575
     37 GH                    0.005814
     38 GH                   -0.000678
     39 GH                   -0.000335
     40 GH                    0.006041
  ----------------------------------------
  Sum of atomic charges =    -0.000000

                    Cartesian Multipole Moments
 -----------------------------------------------------------------
    Charge (ESU x 10^10)
                -0.0000
    Dipole Moment (Debye)
         X      -0.0060      Y       0.4053      Z       1.6182
       Tot       1.6682
    Quadrupole Moments (Debye-Ang)
        XX     -49.7860     XY      -0.0684     YY     -47.6101
        XZ       2.5558     YZ      -0.6752     ZZ     -52.6615

 Total job time:  143.42s(wall), 570.11s(cpu)
        *  Thank you very much for using Q-Chem.  Have a nice day.  *
