 Q-Chem 5.0, Q-Chem, Inc., Pleasanton, CA (2017)
 Q-Chem 5.0.1 for Intel X86 EM64T Linux

User input:
--------------------------------------------------------------
$molecule
0  1
C        +3.69394000        +2.75583000        +3.42552000
C        +4.09750000        +1.29742000        +3.83828000
C        +4.80132000        +3.11069000        +2.40466000
C        +6.10194000        +3.42795000        +3.16812000
C        +6.51460000        +2.00446000        +3.64257000
C        +5.41547000        +1.11796000        +2.99219000
O        +5.09964000        +1.84758000        +1.79581000
H        +6.84358000        +3.84877000        +2.48762000
H        +5.95360000        +4.13583000        +3.98608000
H        +7.49306000        +1.72089000        +3.25118000
H        +6.54483000        +1.89833000        +4.72885000
H        +4.50394000        +3.91038000        +1.75893000
C        +5.82574000        -0.30172000        +2.67145000
H        +6.72867000        -0.29100000        +2.09742000
H        +5.05075000        -0.77837000        +2.10834000
H        +5.98811000        -0.84034000        +3.58163000
H        +2.72451000        +2.77906000        +2.97322000
H        +3.62676000        +3.43712000        +4.24785000
H        +4.28817000        +1.22190000        +4.88844000
H        +3.34600000        +0.55739000        +3.65800000
@C        +0.22270000        +1.04488000        +0.58595000
@C        +0.62626000        -0.41353000        +0.99871000
@C        +1.33008000        +1.39974000        -0.43491000
@C        +2.63070000        +1.71700000        +0.32855000
@C        +3.04336000        +0.29351000        +0.80300000
@C        +1.94423000        -0.59299000        +0.15262000
@O        +1.62840000        +0.13663000        -1.04376000
@H        +3.37234000        +2.13782000        -0.35195000
@H        +2.48236000        +2.42488000        +1.14651000
@H        +4.02182000        +0.00994000        +0.41161000
@H        +3.07359000        +0.18738000        +1.88928000
@H        +1.03270000        +2.19943000        -1.08064000
@C        +2.35450000        -2.01267000        -0.16812000
@H        +3.25743000        -2.00195000        -0.74215000
@H        +1.57951000        -2.48932000        -0.73123000
@H        +2.51687000        -2.55129000        +0.74206000
@H        -0.74673000        +1.06811000        +0.13365000
@H        +0.15552000        +1.72617000        +1.40828000
@H        +0.81693000        -0.48905000        +2.04887000
@H        -0.12524000        -1.15356000        +0.81843000
$end

$rem
JOBTYPE                   SP
METHOD                    B3LYP
DFT_D                     d3_op
BASIS                     6-311++G(d,p)
SYMMETRY                  False
THRESH                    12
SCF_CONVERGENCE           8
MAX_SUB_FILE_NUM          128
MEM_STATIC                400
MEM_TOTAL                 4000
$end
--------------------------------------------------------------

             Standard Nuclear Orientation (Angstroms)
    I     Atom           X                Y                Z
 ----------------------------------------------------------------
    1      C       3.6939400000     2.7558300000     3.4255200000
    2      C       4.0975000000     1.2974200000     3.8382800000
    3      C       4.8013200000     3.1106900000     2.4046600000
    4      C       6.1019400000     3.4279500000     3.1681200000
    5      C       6.5146000000     2.0044600000     3.6425700000
    6      C       5.4154700000     1.1179600000     2.9921900000
    7      O       5.0996400000     1.8475800000     1.7958100000
    8      H       6.8435800000     3.8487700000     2.4876200000
    9      H       5.9536000000     4.1358300000     3.9860800000
   10      H       7.4930600000     1.7208900000     3.2511800000
   11      H       6.5448300000     1.8983300000     4.7288500000
   12      H       4.5039400000     3.9103800000     1.7589300000
   13      C       5.8257400000    -0.3017200000     2.6714500000
   14      H       6.7286700000    -0.2910000000     2.0974200000
   15      H       5.0507500000    -0.7783700000     2.1083400000
   16      H       5.9881100000    -0.8403400000     3.5816300000
   17      H       2.7245100000     2.7790600000     2.9732200000
   18      H       3.6267600000     3.4371200000     4.2478500000
   19      H       4.2881700000     1.2219000000     4.8884400000
   20      H       3.3460000000     0.5573900000     3.6580000000
   21      GH      0.2227000000     1.0448800000     0.5859500000
   22      GH      0.6262600000    -0.4135300000     0.9987100000
   23      GH      1.3300800000     1.3997400000    -0.4349100000
   24      GH      2.6307000000     1.7170000000     0.3285500000
   25      GH      3.0433600000     0.2935100000     0.8030000000
   26      GH      1.9442300000    -0.5929900000     0.1526200000
   27      GH      1.6284000000     0.1366300000    -1.0437600000
   28      GH      3.3723400000     2.1378200000    -0.3519500000
   29      GH      2.4823600000     2.4248800000     1.1465100000
   30      GH      4.0218200000     0.0099400000     0.4116100000
   31      GH      3.0735900000     0.1873800000     1.8892800000
   32      GH      1.0327000000     2.1994300000    -1.0806400000
   33      GH      2.3545000000    -2.0126700000    -0.1681200000
   34      GH      3.2574300000    -2.0019500000    -0.7421500000
   35      GH      1.5795100000    -2.4893200000    -0.7312300000
   36      GH      2.5168700000    -2.5512900000     0.7420600000
   37      GH     -0.7467300000     1.0681100000     0.1336500000
   38      GH      0.1555200000     1.7261700000     1.4082800000
   39      GH      0.8169300000    -0.4890500000     2.0488700000
   40      GH     -0.1252400000    -1.1535600000     0.8184300000
 ----------------------------------------------------------------

   13    -349.2967085938      2.62E-09 Convergence criterion met
 Total energy in the final basis set = -349.29670859

                    Orbital Energies (a.u.)
 --------------------------------------------------------------

 Alpha MOs
 -- Occupied --
-19.119 -10.225 -10.216 -10.166 -10.166 -10.163 -10.162 -10.154
 -1.049  -0.798  -0.775  -0.748  -0.684  -0.615  -0.575  -0.556
 -0.503  -0.482  -0.464  -0.440  -0.418  -0.405  -0.392  -0.377
 -0.360  -0.348  -0.344  -0.336  -0.316  -0.301  -0.262

          Ground-State Mulliken Net Atomic Charges

     Atom                 Charge (a.u.)
  ----------------------------------------
      1 C                    -0.378610
      2 C                    -0.438811
      3 C                     0.246987
      4 C                    -0.683494
      5 C                    -0.448424
      6 C                     0.324223
      7 O                     0.034404
      8 H                     0.161839
      9 H                     0.128698
     10 H                     0.156371
     11 H                     0.134844
     12 H                     0.230738
     13 C                    -0.411846
     14 H                     0.153512
     15 H                     0.122304
     16 H                     0.144351
     17 H                     0.120479
     18 H                     0.175076
     19 H                     0.168629
     20 H                     0.180517
     21 GH                   -0.007588
     22 GH                    0.004887
     23 GH                   -0.063781
     24 GH                    0.048766
     25 GH                   -0.010471
     26 GH                   -0.096010
     27 GH                   -0.000586
     28 GH                    0.006390
     29 GH                   -0.006703
     30 GH                    0.030564
     31 GH                   -0.047816
     32 GH                   -0.001579
     33 GH                    0.016763
     34 GH                   -0.001771
     35 GH                   -0.000138
     36 GH                    0.003546
     37 GH                   -0.000279
     38 GH                    0.002377
     39 GH                    0.001791
     40 GH                   -0.000147
  ----------------------------------------
  Sum of atomic charges =     0.000000

                    Cartesian Multipole Moments
 -----------------------------------------------------------------
    Charge (ESU x 10^10)
                 0.0000
    Dipole Moment (Debye)
         X      -0.0088      Y       0.3992      Z       1.6072
       Tot       1.6560
    Quadrupole Moments (Debye-Ang)
        XX     -49.8600     XY       1.2944     YY     -46.2709
        XZ       8.0961     YZ       3.2221     ZZ     -43.5054

 Total job time:  202.34s(wall), 804.94s(cpu)
        *  Thank you very much for using Q-Chem.  Have a nice day.  *
