 Q-Chem 5.0, Q-Chem, Inc., Pleasanton, CA (2017)
 Q-Chem 5.0.1 for Intel X86 EM64T Linux

User input:
--------------------------------------------------------------
$molecule
0  1
C        +2.39223000        +2.11422000        +2.36068000
C        +2.79579000        +0.65581000        +2.77344000
C        +3.49961000        +2.46908000        +1.33982000
C        +4.80023000        +2.78634000        +2.10328000
C        +5.21289000        +1.36285000        +2.57773000
C        +4.11376000        +0.47635000        +1.92735000
O        +3.79793000        +1.20597000        +0.73097000
H        +5.54187000        +3.20716000        +1.42278000
H        +4.65189000        +3.49422000        +2.92124000
H        +6.19135000        +1.07928000        +2.18634000
H        +5.24312000        +1.25672000        +3.66401000
H        +3.20223000        +3.26877000        +0.69409000
C        +4.52403000        -0.94333000        +1.60661000
H        +5.42696000        -0.93261000        +1.03258000
H        +3.74904000        -1.41998000        +1.04350000
H        +4.68640000        -1.48195000        +2.51679000
H        +1.42280000        +2.13745000        +1.90838000
H        +2.32505000        +2.79551000        +3.18301000
H        +2.98646000        +0.58029000        +3.82360000
H        +2.04429000        -0.08422000        +2.59316000
@C        +0.22270000        +1.04488000        +0.58595000
@C        +0.62626000        -0.41353000        +0.99871000
@C        +1.33008000        +1.39974000        -0.43491000
@C        +2.63070000        +1.71700000        +0.32855000
@C        +3.04336000        +0.29351000        +0.80300000
@C        +1.94423000        -0.59299000        +0.15262000
@O        +1.62840000        +0.13663000        -1.04376000
@H        +3.37234000        +2.13782000        -0.35195000
@H        +2.48236000        +2.42488000        +1.14651000
@H        +4.02182000        +0.00994000        +0.41161000
@H        +3.07359000        +0.18738000        +1.88928000
@H        +1.03270000        +2.19943000        -1.08064000
@C        +2.35450000        -2.01267000        -0.16812000
@H        +3.25743000        -2.00195000        -0.74215000
@H        +1.57951000        -2.48932000        -0.73123000
@H        +2.51687000        -2.55129000        +0.74206000
@H        -0.74673000        +1.06811000        +0.13365000
@H        +0.15552000        +1.72617000        +1.40828000
@H        +0.81693000        -0.48905000        +2.04887000
@H        -0.12524000        -1.15356000        +0.81843000
$end

$rem
JOBTYPE                   SP
METHOD                    B3LYP
DFT_D                     d3_op
BASIS                     6-311++G(d,p)
SYMMETRY                  False
THRESH                    12
SCF_CONVERGENCE           8
MAX_SUB_FILE_NUM          128
MEM_STATIC                400
MEM_TOTAL                 4000
$end
--------------------------------------------------------------

             Standard Nuclear Orientation (Angstroms)
    I     Atom           X                Y                Z
 ----------------------------------------------------------------
    1      C       2.3922300000     2.1142200000     2.3606800000
    2      C       2.7957900000     0.6558100000     2.7734400000
    3      C       3.4996100000     2.4690800000     1.3398200000
    4      C       4.8002300000     2.7863400000     2.1032800000
    5      C       5.2128900000     1.3628500000     2.5777300000
    6      C       4.1137600000     0.4763500000     1.9273500000
    7      O       3.7979300000     1.2059700000     0.7309700000
    8      H       5.5418700000     3.2071600000     1.4227800000
    9      H       4.6518900000     3.4942200000     2.9212400000
   10      H       6.1913500000     1.0792800000     2.1863400000
   11      H       5.2431200000     1.2567200000     3.6640100000
   12      H       3.2022300000     3.2687700000     0.6940900000
   13      C       4.5240300000    -0.9433300000     1.6066100000
   14      H       5.4269600000    -0.9326100000     1.0325800000
   15      H       3.7490400000    -1.4199800000     1.0435000000
   16      H       4.6864000000    -1.4819500000     2.5167900000
   17      H       1.4228000000     2.1374500000     1.9083800000
   18      H       2.3250500000     2.7955100000     3.1830100000
   19      H       2.9864600000     0.5802900000     3.8236000000
   20      H       2.0442900000    -0.0842200000     2.5931600000
   21      GH      0.2227000000     1.0448800000     0.5859500000
   22      GH      0.6262600000    -0.4135300000     0.9987100000
   23      GH      1.3300800000     1.3997400000    -0.4349100000
   24      GH      2.6307000000     1.7170000000     0.3285500000
   25      GH      3.0433600000     0.2935100000     0.8030000000
   26      GH      1.9442300000    -0.5929900000     0.1526200000
   27      GH      1.6284000000     0.1366300000    -1.0437600000
   28      GH      3.3723400000     2.1378200000    -0.3519500000
   29      GH      2.4823600000     2.4248800000     1.1465100000
   30      GH      4.0218200000     0.0099400000     0.4116100000
   31      GH      3.0735900000     0.1873800000     1.8892800000
   32      GH      1.0327000000     2.1994300000    -1.0806400000
   33      GH      2.3545000000    -2.0126700000    -0.1681200000
   34      GH      3.2574300000    -2.0019500000    -0.7421500000
   35      GH      1.5795100000    -2.4893200000    -0.7312300000
   36      GH      2.5168700000    -2.5512900000     0.7420600000
   37      GH     -0.7467300000     1.0681100000     0.1336500000
   38      GH      0.1555200000     1.7261700000     1.4082800000
   39      GH      0.8169300000    -0.4890500000     2.0488700000
   40      GH     -0.1252400000    -1.1535600000     0.8184300000
 ----------------------------------------------------------------

   13    -349.2999566273      2.69E-09 Convergence criterion met
 Total energy in the final basis set = -349.29995663

                    Orbital Energies (a.u.)
 --------------------------------------------------------------

 Alpha MOs
 -- Occupied --
-19.119 -10.225 -10.216 -10.166 -10.166 -10.163 -10.162 -10.154
 -1.048  -0.798  -0.775  -0.748  -0.683  -0.614  -0.575  -0.556
 -0.502  -0.482  -0.464  -0.440  -0.417  -0.405  -0.392  -0.377
 -0.360  -0.348  -0.343  -0.336  -0.316  -0.301  -0.262

          Ground-State Mulliken Net Atomic Charges

     Atom                 Charge (a.u.)
  ----------------------------------------
      1 C                    -0.407151
      2 C                    -0.358964
      3 C                    -0.033112
      4 C                    -0.386627
      5 C                    -0.368466
      6 C                     0.078582
      7 O                    -0.150217
      8 H                     0.156089
      9 H                     0.118773
     10 H                     0.149712
     11 H                     0.134297
     12 H                     0.221716
     13 C                    -0.571682
     14 H                     0.154791
     15 H                     0.043040
     16 H                     0.161581
     17 H                     0.073723
     18 H                     0.220811
     19 H                     0.185930
     20 H                     0.202444
     21 GH                   -0.070627
     22 GH                    0.032528
     23 GH                    0.034607
     24 GH                    0.031785
     25 GH                   -0.022906
     26 GH                    0.127835
     27 GH                   -0.004923
     28 GH                   -0.083749
     29 GH                    0.109598
     30 GH                   -0.078106
     31 GH                    0.270588
     32 GH                   -0.000153
     33 GH                    0.045390
     34 GH                    0.000449
     35 GH                    0.001409
     36 GH                    0.009862
     37 GH                   -0.003003
     38 GH                    0.005611
     39 GH                   -0.030764
     40 GH                   -0.000701
  ----------------------------------------
  Sum of atomic charges =     0.000000

                    Cartesian Multipole Moments
 -----------------------------------------------------------------
    Charge (ESU x 10^10)
                 0.0000
    Dipole Moment (Debye)
         X      -0.0143      Y       0.3889      Z       1.5572
       Tot       1.6051
    Quadrupole Moments (Debye-Ang)
        XX     -49.8970     XY       0.7613     YY     -46.8699
        XZ       5.8576     YZ       1.7166     ZZ     -46.9803

 Total job time:  354.48s(wall), 1407.28s(cpu)
        *  Thank you very much for using Q-Chem.  Have a nice day.  *
