 Q-Chem 5.0, Q-Chem, Inc., Pleasanton, CA (2017)
 Q-Chem 5.0.1 for Intel X86 EM64T Linux

User input:
--------------------------------------------------------------
$molecule
0  1
C        +0.21647000        +1.90176000        +3.45667000
C        +0.66094000        +0.47105000        +3.88138000
C        +1.34042000        +2.27773000        +2.46673000
C        +2.64013000        +2.58786000        +3.24020000
C        +3.07877000        +1.15680000        +3.66877000
C        +1.95745000        +0.28124000        +3.05106000
O        +1.64150000        +1.01732000        +1.84278000
H        +3.37861000        +3.04703000        +2.58050000
H        +2.47413000        +3.26299000        +4.08271000
H        +4.04392000        +0.89029000        +3.23342000
H        +3.15013000        +1.03190000        +4.75158000
H        +1.06669000        +3.00452000        +1.70352000
C        +2.33522000        -1.14436000        +2.72192000
H        +3.21055000        -1.16876000        +2.06817000
H        +1.51115000        -1.65483000        +2.21768000
H        +2.57348000        -1.69404000        +3.63694000
H        -0.74931000        +1.88081000        +2.94871000
H        +0.14575000        +2.60113000        +4.29244000
H        +0.84041000        +0.37488000        +4.95448000
H        -0.08028000        -0.27818000        +3.59470000
@C        +0.20553000        +1.04146000        +0.58269000
@C        +0.65000000        -0.38925000        +1.00740000
@C        +1.32948000        +1.41743000        -0.40725000
@C        +2.62919000        +1.72756000        +0.36622000
@C        +3.06783000        +0.29650000        +0.79479000
@C        +1.94651000        -0.57906000        +0.17708000
@O        +1.63056000        +0.15702000        -1.03120000
@H        +3.36767000        +2.18673000        -0.29348000
@H        +2.46319000        +2.40269000        +1.20873000
@H        +4.03298000        +0.02999000        +0.35944000
@H        +3.13919000        +0.17160000        +1.87760000
@H        +1.05575000        +2.14422000        -1.17046000
@C        +2.32428000        -2.00466000        -0.15206000
@H        +3.19961000        -2.02906000        -0.80581000
@H        +1.50021000        -2.51513000        -0.65630000
@H        +2.56254000        -2.55434000        +0.76296000
@H        -0.76025000        +1.02051000        +0.07473000
@H        +0.13481000        +1.74083000        +1.41846000
@H        +0.82947000        -0.48542000        +2.08050000
@H        -0.09122000        -1.13848000        +0.72072000
$end

$rem
JOBTYPE                   SP
METHOD                    B3LYP
DFT_D                     d3_op
BASIS                     6-311++G(d,p)
SYMMETRY                  False
THRESH                    12
SCF_CONVERGENCE           8
MAX_SUB_FILE_NUM          128
MEM_STATIC                400
MEM_TOTAL                 4000
$end
--------------------------------------------------------------

             Standard Nuclear Orientation (Angstroms)
    I     Atom           X                Y                Z
 ----------------------------------------------------------------
    1      C       0.2164700000     1.9017600000     3.4566700000
    2      C       0.6609400000     0.4710500000     3.8813800000
    3      C       1.3404200000     2.2777300000     2.4667300000
    4      C       2.6401300000     2.5878600000     3.2402000000
    5      C       3.0787700000     1.1568000000     3.6687700000
    6      C       1.9574500000     0.2812400000     3.0510600000
    7      O       1.6415000000     1.0173200000     1.8427800000
    8      H       3.3786100000     3.0470300000     2.5805000000
    9      H       2.4741300000     3.2629900000     4.0827100000
   10      H       4.0439200000     0.8902900000     3.2334200000
   11      H       3.1501300000     1.0319000000     4.7515800000
   12      H       1.0666900000     3.0045200000     1.7035200000
   13      C       2.3352200000    -1.1443600000     2.7219200000
   14      H       3.2105500000    -1.1687600000     2.0681700000
   15      H       1.5111500000    -1.6548300000     2.2176800000
   16      H       2.5734800000    -1.6940400000     3.6369400000
   17      H      -0.7493100000     1.8808100000     2.9487100000
   18      H       0.1457500000     2.6011300000     4.2924400000
   19      H       0.8404100000     0.3748800000     4.9544800000
   20      H      -0.0802800000    -0.2781800000     3.5947000000
   21      GH      0.2055300000     1.0414600000     0.5826900000
   22      GH      0.6500000000    -0.3892500000     1.0074000000
   23      GH      1.3294800000     1.4174300000    -0.4072500000
   24      GH      2.6291900000     1.7275600000     0.3662200000
   25      GH      3.0678300000     0.2965000000     0.7947900000
   26      GH      1.9465100000    -0.5790600000     0.1770800000
   27      GH      1.6305600000     0.1570200000    -1.0312000000
   28      GH      3.3676700000     2.1867300000    -0.2934800000
   29      GH      2.4631900000     2.4026900000     1.2087300000
   30      GH      4.0329800000     0.0299900000     0.3594400000
   31      GH      3.1391900000     0.1716000000     1.8776000000
   32      GH      1.0557500000     2.1442200000    -1.1704600000
   33      GH      2.3242800000    -2.0046600000    -0.1520600000
   34      GH      3.1996100000    -2.0290600000    -0.8058100000
   35      GH      1.5002100000    -2.5151300000    -0.6563000000
   36      GH      2.5625400000    -2.5543400000     0.7629600000
   37      GH     -0.7602500000     1.0205100000     0.0747300000
   38      GH      0.1348100000     1.7408300000     1.4184600000
   39      GH      0.8294700000    -0.4854200000     2.0805000000
   40      GH     -0.0912200000    -1.1384800000     0.7207200000
 ----------------------------------------------------------------

   13    -349.3057061290      2.95E-09 Convergence criterion met
 Total energy in the final basis set = -349.30570613

                    Orbital Energies (a.u.)
 --------------------------------------------------------------

 Alpha MOs
 -- Occupied --
-19.116 -10.224 -10.217 -10.168 -10.168 -10.167 -10.167 -10.161
 -1.044  -0.799  -0.772  -0.750  -0.679  -0.612  -0.572  -0.553
 -0.498  -0.481  -0.467  -0.434  -0.413  -0.405  -0.391  -0.371
 -0.362  -0.346  -0.344  -0.339  -0.319  -0.301  -0.262

          Ground-State Mulliken Net Atomic Charges

     Atom                 Charge (a.u.)
  ----------------------------------------
      1 C                    -0.634128
      2 C                    -0.391012
      3 C                     0.650637
      4 C                    -0.641314
      5 C                    -0.385354
      6 C                     0.637859
      7 O                    -0.258108
      8 H                     0.147200
      9 H                     0.153122
     10 H                     0.173702
     11 H                     0.152358
     12 H                     0.245214
     13 C                    -0.841512
     14 H                     0.196451
     15 H                     0.195650
     16 H                     0.191568
     17 H                     0.147310
     18 H                     0.152564
     19 H                     0.152601
     20 H                     0.173642
     21 GH                   -0.106727
     22 GH                   -0.057587
     23 GH                    0.064016
     24 GH                   -0.109843
     25 GH                   -0.054266
     26 GH                    0.203352
     27 GH                   -0.047809
     28 GH                    0.013094
     29 GH                   -0.047869
     30 GH                    0.002119
     31 GH                   -0.084867
     32 GH                    0.000033
     33 GH                    0.121799
     34 GH                    0.000459
     35 GH                    0.000472
     36 GH                   -0.000294
     37 GH                    0.013466
     38 GH                   -0.048507
     39 GH                   -0.081264
     40 GH                    0.001774
  ----------------------------------------
  Sum of atomic charges =     0.000000

                    Cartesian Multipole Moments
 -----------------------------------------------------------------
    Charge (ESU x 10^10)
                 0.0000
    Dipole Moment (Debye)
         X       0.0410      Y       0.3504      Z       1.5551
       Tot       1.5946
    Quadrupole Moments (Debye-Ang)
        XX     -49.7964     XY       0.0627     YY     -47.5624
        XZ       2.8278     YZ       1.8079     ZZ     -43.5077

 Total job time:  298.08s(wall), 1181.93s(cpu)
        *  Thank you very much for using Q-Chem.  Have a nice day.  *
