 Q-Chem 5.0, Q-Chem, Inc., Pleasanton, CA (2017)
 Q-Chem 5.0.1 for Intel X86 EM64T Linux

User input:
--------------------------------------------------------------
$molecule
0  1
--
0  1
C        +0.22270000        +1.04488000        +0.58595000
C        +0.62626000        -0.41353000        +0.99871000
C        +1.33008000        +1.39974000        -0.43491000
C        +2.63070000        +1.71700000        +0.32855000
C        +3.04336000        +0.29351000        +0.80300000
C        +1.94423000        -0.59299000        +0.15262000
O        +1.62840000        +0.13663000        -1.04376000
H        +3.37234000        +2.13782000        -0.35195000
H        +2.48236000        +2.42488000        +1.14651000
H        +4.02182000        +0.00994000        +0.41161000
H        +3.07359000        +0.18738000        +1.88928000
H        +1.03270000        +2.19943000        -1.08064000
C        +2.35450000        -2.01267000        -0.16812000
H        +3.25743000        -2.00195000        -0.74215000
H        +1.57951000        -2.48932000        -0.73123000
H        +2.51687000        -2.55129000        +0.74206000
H        -0.74673000        +1.06811000        +0.13365000
H        +0.15552000        +1.72617000        +1.40828000
H        +0.81693000        -0.48905000        +2.04887000
H        -0.12524000        -1.15356000        +0.81843000
--
0  1
C        +4.92334000        +3.36179000        +4.43120000
C        +5.32690000        +1.90338000        +4.84396000
C        +6.03072000        +3.71665000        +3.41034000
C        +7.33134000        +4.03391000        +4.17380000
C        +7.74400000        +2.61042000        +4.64825000
C        +6.64487000        +1.72392000        +3.99787000
O        +6.32904000        +2.45354000        +2.80149000
H        +8.07298000        +4.45473000        +3.49330000
H        +7.18300000        +4.74179000        +4.99176000
H        +8.72246000        +2.32685000        +4.25686000
H        +7.77423000        +2.50429000        +5.73453000
H        +5.73334000        +4.51634000        +2.76461000
C        +7.05514000        +0.30424000        +3.67713000
H        +7.95807000        +0.31496000        +3.10310000
H        +6.28015000        -0.17241000        +3.11402000
H        +7.21751000        -0.23438000        +4.58731000
H        +3.95391000        +3.38502000        +3.97890000
H        +4.85616000        +4.04308000        +5.25353000
H        +5.51757000        +1.82786000        +5.89412000
H        +4.57540000        +1.16335000        +4.66368000
$end

$rem
JOBTYPE                   SP
METHOD                    B3LYP
DFT_D                     d3_op
BASIS                     6-311++G(d,p)
SYMMETRY                  False
THRESH                    12
SCF_CONVERGENCE           8
MAX_SUB_FILE_NUM          128
MEM_STATIC                400
MEM_TOTAL                 4000
$end
--------------------------------------------------------------

             Standard Nuclear Orientation (Angstroms)
    I     Atom           X                Y                Z
 ----------------------------------------------------------------
    1      C       3.7877221420    -1.4941976651     0.8295432422
    2      C       3.8029706831    -0.0040488722     1.3188440459
    3      C       3.4332427842    -1.3291423082    -0.6676115052
    4      C       1.9288960826    -1.0190857093    -0.7938785652
    5      C       1.8890666688     0.4447874915    -0.2673771613
    6      C       3.3948580064     0.7354043989    -0.0122352168
    7      O       4.0378535059    -0.0749098144    -1.0089130489
    8      H       1.6210867979    -1.0722080447    -1.8391685124
    9      H       1.3029584320    -1.7069236598    -0.2218309946
   10      H       1.5066193179     1.1314158283    -1.0245149291
   11      H       1.2839008662     0.5682777478     0.6330150733
   12      H       3.7208186150    -2.1861693694    -1.2400719416
   13      C       3.8113036470     2.1837611739    -0.1368249583
   14      H       3.4784440885     2.5709621141    -1.0771376140
   15      H       4.8774008130     2.2545691497    -0.0791998079
   16      H       3.3727375072     2.7505968580     0.6576938910
   17      H       4.7448267271    -1.9558011534     0.9551715854
   18      H       3.1100898808    -2.1218278197     1.3697198364
   19      H       3.0901383282     0.1635005255     2.0990309326
   20      H       4.7310425031     0.3180109213     1.7429403977
   21      C      -2.7100601808    -1.4045201051     0.9738302482
   22      C      -2.6948116398     0.0856286878     1.4631310519
   23      C      -3.0645395387    -1.2394647482    -0.5233244992
   24      C      -4.5688862403    -0.9294081493    -0.6495915591
   25      C      -4.6087156541     0.5344650514    -0.1230901553
   26      C      -3.1029243164     0.8250819589     0.1320517892
   27      O      -2.4599288170     0.0147677456    -0.8646260429
   28      H      -4.8766955250    -0.9825304847    -1.6948815063
   29      H      -5.1948238908    -1.6172460998    -0.0775439886
   30      H      -4.9911630050     1.2210933883    -0.8802279231
   31      H      -5.2138814566     0.6579553078     0.7773020793
   32      H      -2.7769637079    -2.0964918094    -1.0957849356
   33      C      -2.6864786759     2.2734387339     0.0074620477
   34      H      -3.0193382344     2.6606396741    -0.9328506080
   35      H      -1.6203815099     2.3442467097     0.0650871981
   36      H      -3.1250448157     2.8402744180     0.8019808970
   37      H      -1.7529555958    -1.8661235934     1.0994585914
   38      H      -3.3876924421    -2.0321502597     1.5140068424
   39      H      -3.4076439946     0.2531780855     2.2433179386
   40      H      -1.7667398197     0.4076884813     1.8872274037
 ----------------------------------------------------------------

   13    -698.5937332591      4.74E-09 Convergence criterion met
 Total energy in the final basis set = -698.59373326

                    Orbital Energies (a.u.)
 --------------------------------------------------------------

 Alpha MOs
 -- Occupied --
-19.121 -19.115 -10.227 -10.221 -10.218 -10.212 -10.168 -10.168
-10.166 -10.165 -10.161 -10.160 -10.160 -10.159 -10.156 -10.151
 -1.051  -1.045  -0.801  -0.794  -0.777  -0.772  -0.751  -0.744
 -0.686  -0.680  -0.617  -0.611  -0.577  -0.571  -0.558  -0.552
 -0.505  -0.499  -0.484  -0.478  -0.467  -0.460  -0.443  -0.437
 -0.420  -0.414  -0.407  -0.401  -0.395  -0.389  -0.380  -0.374
 -0.362  -0.356  -0.350  -0.346  -0.344  -0.340  -0.338  -0.332
 -0.318  -0.312  -0.304  -0.297  -0.265  -0.258

          Ground-State Mulliken Net Atomic Charges

     Atom                 Charge (a.u.)
  ----------------------------------------
      1 C                    -0.632610
      2 C                    -0.260017
      3 C                     0.391550
      4 C                    -0.615433
      5 C                    -0.155397
      6 C                    -0.010990
      7 O                    -0.082642
      8 H                     0.172125
      9 H                     0.084182
     10 H                     0.159364
     11 H                     0.053961
     12 H                     0.250481
     13 C                    -0.409000
     14 H                     0.147366
     15 H                     0.155877
     16 H                     0.136238
     17 H                     0.170040
     18 H                     0.119819
     19 H                     0.136974
     20 H                     0.166718
     21 C                    -0.439479
     22 C                    -0.378000
     23 C                     0.205463
     24 C                    -0.622153
     25 C                    -0.427439
     26 C                     0.249814
     27 O                    -0.068045
     28 H                     0.166071
     29 H                     0.125460
     30 H                     0.151810
     31 H                     0.142576
     32 H                     0.232738
     33 C                    -0.320888
     34 H                     0.152613
     35 H                     0.146291
     36 H                     0.136833
     37 H                     0.130612
     38 H                     0.141603
     39 H                     0.141497
     40 H                     0.154014
  ----------------------------------------
  Sum of atomic charges =    -0.000000

                    Cartesian Multipole Moments
 -----------------------------------------------------------------
    Charge (ESU x 10^10)
                -0.0000
    Dipole Moment (Debye)
         X      -2.3450      Y      -0.6563      Z       2.3256
       Tot       3.3672
    Quadrupole Moments (Debye-Ang)
        XX    -103.8637     XY      -0.2263     YY     -95.1890
        XZ       3.3855     YZ       1.5966     ZZ    -103.0907

 Total job time:  146.59s(wall), 583.60s(cpu)
        *  Thank you very much for using Q-Chem.  Have a nice day.  *
