 Q-Chem 5.0, Q-Chem, Inc., Pleasanton, CA (2017)
 Q-Chem 5.0.1 for Intel X86 EM64T Linux

User input:
--------------------------------------------------------------
$molecule
0  1
--
0  1
C        +0.22270000        +1.04488000        +0.58595000
C        +0.62626000        -0.41353000        +0.99871000
C        +1.33008000        +1.39974000        -0.43491000
C        +2.63070000        +1.71700000        +0.32855000
C        +3.04336000        +0.29351000        +0.80300000
C        +1.94423000        -0.59299000        +0.15262000
O        +1.62840000        +0.13663000        -1.04376000
H        +3.37234000        +2.13782000        -0.35195000
H        +2.48236000        +2.42488000        +1.14651000
H        +4.02182000        +0.00994000        +0.41161000
H        +3.07359000        +0.18738000        +1.88928000
H        +1.03270000        +2.19943000        -1.08064000
C        +2.35450000        -2.01267000        -0.16812000
H        +3.25743000        -2.00195000        -0.74215000
H        +1.57951000        -2.48932000        -0.73123000
H        +2.51687000        -2.55129000        +0.74206000
H        -0.74673000        +1.06811000        +0.13365000
H        +0.15552000        +1.72617000        +1.40828000
H        +0.81693000        -0.48905000        +2.04887000
H        -0.12524000        -1.15356000        +0.81843000
--
0  1
C        +2.39223000        +2.11422000        +2.36068000
C        +2.79579000        +0.65581000        +2.77344000
C        +3.49961000        +2.46908000        +1.33982000
C        +4.80023000        +2.78634000        +2.10328000
C        +5.21289000        +1.36285000        +2.57773000
C        +4.11376000        +0.47635000        +1.92735000
O        +3.79793000        +1.20597000        +0.73097000
H        +5.54187000        +3.20716000        +1.42278000
H        +4.65189000        +3.49422000        +2.92124000
H        +6.19135000        +1.07928000        +2.18634000
H        +5.24312000        +1.25672000        +3.66401000
H        +3.20223000        +3.26877000        +0.69409000
C        +4.52403000        -0.94333000        +1.60661000
H        +5.42696000        -0.93261000        +1.03258000
H        +3.74904000        -1.41998000        +1.04350000
H        +4.68640000        -1.48195000        +2.51679000
H        +1.42280000        +2.13745000        +1.90838000
H        +2.32505000        +2.79551000        +3.18301000
H        +2.98646000        +0.58029000        +3.82360000
H        +2.04429000        -0.08422000        +2.59316000
$end

$rem
JOBTYPE                   SP
METHOD                    B3LYP
DFT_D                     d3_op
BASIS                     6-311++G(d,p)
SYMMETRY                  False
THRESH                    12
SCF_CONVERGENCE           8
MAX_SUB_FILE_NUM          128
MEM_STATIC                400
MEM_TOTAL                 4000
$end
--------------------------------------------------------------

             Standard Nuclear Orientation (Angstroms)
    I     Atom           X                Y                Z
 ----------------------------------------------------------------
    1      C       1.9816388533    -1.6349702152     0.6854883949
    2      C       2.1483450625    -0.1597652463     1.1916213408
    3      C       1.5255743764    -1.4152700055    -0.7767387538
    4      C       0.0439786203    -0.9910038856    -0.7798594281
    5      C       0.1568205638     0.4614213704    -0.2326460969
    6      C       1.6956321313     0.6334620979    -0.0932757302
    7      O       2.1956639695    -0.2035849136    -1.1481404129
    8      H      -0.3472269362    -1.0009500602    -1.7982203160
    9      H      -0.5862324640    -1.6407964901    -0.1693178882
   10      H      -0.2298332824     1.1891038842    -0.9481592071
   11      H      -0.3654197579     0.6127039945     0.7142225752
   12      H       1.7016809381    -2.2803537642    -1.3813235393
   13      C       2.2102954799     2.0486539318    -0.2312635336
   14      H       1.8358935133     2.4775860260    -1.1372151715
   15      H       3.2799346635     2.0382622732    -0.2569856068
   16      H       1.8792269535     2.6314912024     0.6027613464
   17      H       2.9076435489    -2.1693098133     0.7291455303
   18      H       1.3021528372    -2.2202532557     1.2691307184
   19      H       1.5130996911     0.0458069252     2.0277419931
   20      H       3.1283833109     0.0836906479     1.5453893278
   21      C      -0.9912103498    -1.3702434586     0.9889721491
   22      C      -0.8245041406     0.1049615102     1.4951050950
   23      C      -1.4472748267    -1.1505432489    -0.4732549996
   24      C      -2.9288705828    -0.7262771290    -0.4763756738
   25      C      -2.8160286394     0.7261481270     0.0708376574
   26      C      -1.2772170719     0.8981888545     0.2102080241
   27      O      -0.7771852336     0.0611418430    -0.8446566586
   28      H      -3.3200761393    -0.7362233036    -1.4947365618
   29      H      -3.5590816671    -1.3760697335     0.1341658661
   30      H      -3.2026824855     1.4538306408    -0.6446754528
   31      H      -3.3382689611     0.8774307511     1.0177063295
   32      H      -1.2711682650    -2.0156270076    -1.0778397850
   33      C      -0.7625537233     2.3133806884     0.0722202207
   34      H      -1.1369556898     2.7423127826    -0.8337314172
   35      H       0.3070854603     2.3029890298     0.0464981475
   36      H      -1.0936222496     2.8962179590     0.9062451007
   37      H      -0.0652056542    -1.9045830567     1.0326292846
   38      H      -1.6706963659    -1.9555264991     1.5726144726
   39      H      -1.4597495121     0.3105336818     2.3312257474
   40      H       0.1555341077     0.3484174045     1.8488730820
 ----------------------------------------------------------------

   18    -696.8426271080      4.75E-09 Convergence criterion met
 Total energy in the final basis set = -696.84262711

                    Orbital Energies (a.u.)
 --------------------------------------------------------------

 Alpha MOs
 -- Occupied --
-19.251 -19.111 -10.318 -10.291 -10.227 -10.223 -10.210 -10.198
-10.196 -10.191 -10.171 -10.171 -10.171 -10.170 -10.168 -10.152
 -1.429  -1.081  -1.040  -1.010  -0.880  -0.827  -0.794  -0.787
 -0.767  -0.753  -0.711  -0.693  -0.681  -0.661  -0.625  -0.602
 -0.579  -0.568  -0.537  -0.513  -0.502  -0.495  -0.484  -0.481
 -0.471  -0.454  -0.441  -0.433  -0.425  -0.420  -0.416  -0.410
 -0.396  -0.378  -0.362  -0.361  -0.357  -0.354  -0.340  -0.331
 -0.307  -0.272  -0.264  -0.203  -0.134  -0.092

          Ground-State Mulliken Net Atomic Charges

     Atom                 Charge (a.u.)
  ----------------------------------------
      1 C                    -0.335345
      2 C                    -0.198561
      3 C                     0.093095
      4 C                     0.391861
      5 C                    -0.058549
      6 C                    -0.317261
      7 O                     0.076955
      8 H                    -0.150593
      9 H                     0.319536
     10 H                    -0.168106
     11 H                     0.166679
     12 H                     0.206900
     13 C                    -0.535412
     14 H                     0.133245
     15 H                     0.180918
     16 H                     0.149693
     17 H                     0.198715
     18 H                     0.159628
     19 H                     0.078347
     20 H                     0.196083
     21 C                    -0.485228
     22 C                    -0.239072
     23 C                    -0.666415
     24 C                    -0.587888
     25 C                    -0.454574
     26 C                    -0.302495
     27 O                     0.962241
     28 H                     0.156676
     29 H                     0.094136
     30 H                     0.166803
     31 H                     0.111043
     32 H                     0.230673
     33 C                    -0.576220
     34 H                     0.200094
     35 H                     0.207495
     36 H                     0.015696
     37 H                     0.065197
     38 H                     0.156751
     39 H                     0.081544
     40 H                     0.275717
  ----------------------------------------
  Sum of atomic charges =     0.000000

                    Cartesian Multipole Moments
 -----------------------------------------------------------------
    Charge (ESU x 10^10)
                 0.0000
    Dipole Moment (Debye)
         X      -1.6276      Y      -1.0915      Z       2.9251
       Tot       3.5209
    Quadrupole Moments (Debye-Ang)
        XX    -111.4836     XY       0.9411     YY    -102.5727
        XZ       7.2409     YZ      -1.5943     ZZ    -111.3055

 Total job time:  527.80s(wall), 2097.85s(cpu)
        *  Thank you very much for using Q-Chem.  Have a nice day.  *
