 Q-Chem 5.0, Q-Chem, Inc., Pleasanton, CA (2017)
 Q-Chem 5.0.1 for Intel X86 EM64T Linux

User input:
--------------------------------------------------------------
$molecule
0  1
--
0  1
C        +0.20553000        +1.04146000        +0.58269000
C        +0.65000000        -0.38925000        +1.00740000
C        +1.32948000        +1.41743000        -0.40725000
C        +2.62919000        +1.72756000        +0.36622000
C        +3.06783000        +0.29650000        +0.79479000
C        +1.94651000        -0.57906000        +0.17708000
O        +1.63056000        +0.15702000        -1.03120000
H        +3.36767000        +2.18673000        -0.29348000
H        +2.46319000        +2.40269000        +1.20873000
H        +4.03298000        +0.02999000        +0.35944000
H        +3.13919000        +0.17160000        +1.87760000
H        +1.05575000        +2.14422000        -1.17046000
C        +2.32428000        -2.00466000        -0.15206000
H        +3.19961000        -2.02906000        -0.80581000
H        +1.50021000        -2.51513000        -0.65630000
H        +2.56254000        -2.55434000        +0.76296000
H        -0.76025000        +1.02051000        +0.07473000
H        +0.13481000        +1.74083000        +1.41846000
H        +0.82947000        -0.48542000        +2.08050000
H        -0.09122000        -1.13848000        +0.72072000
--
0  1
C        +0.21647000        +1.90176000        +3.45667000
C        +0.66094000        +0.47105000        +3.88138000
C        +1.34042000        +2.27773000        +2.46673000
C        +2.64013000        +2.58786000        +3.24020000
C        +3.07877000        +1.15680000        +3.66877000
C        +1.95745000        +0.28124000        +3.05106000
O        +1.64150000        +1.01732000        +1.84278000
H        +3.37861000        +3.04703000        +2.58050000
H        +2.47413000        +3.26299000        +4.08271000
H        +4.04392000        +0.89029000        +3.23342000
H        +3.15013000        +1.03190000        +4.75158000
H        +1.06669000        +3.00452000        +1.70352000
C        +2.33522000        -1.14436000        +2.72192000
H        +3.21055000        -1.16876000        +2.06817000
H        +1.51115000        -1.65483000        +2.21768000
H        +2.57348000        -1.69404000        +3.63694000
H        -0.74931000        +1.88081000        +2.94871000
H        +0.14575000        +2.60113000        +4.29244000
H        +0.84041000        +0.37488000        +4.95448000
H        -0.08028000        -0.27818000        +3.59470000
$end

$rem
JOBTYPE                   SP
METHOD                    B3LYP
DFT_D                     d3_op
BASIS                     6-311++G(d,p)
SYMMETRY                  False
THRESH                    12
SCF_CONVERGENCE           8
MAX_SUB_FILE_NUM          128
MEM_STATIC                400
MEM_TOTAL                 4000
$end
--------------------------------------------------------------

             Standard Nuclear Orientation (Angstroms)
    I     Atom           X                Y                Z
 ----------------------------------------------------------------
    1      C       0.6057445474     1.2855159327    -1.2627990008
    2      C       0.9575172248    -0.2314281177    -1.2628208947
    3      C       1.3543792532     1.7615393969     0.0011416567
    4      C       0.6080981430     1.2835880590     1.2653843411
    5      C       0.9563217295    -0.2338815287     1.2593508947
    6      C       1.8523333514    -0.3503734496    -0.0012530502
    7      O       2.5290676541     0.9316596842    -0.0005789212
    8      H       1.0049901963     1.7770040207     2.1544351136
    9      H      -0.4645983678     1.4843407126     1.2184782148
   10      H       1.5239268874    -0.5145331002     2.1488062366
   11      H       0.0772036478    -0.8796151319     1.2014780359
   12      H       1.6501192809     2.8094796019     0.0018372075
   13      C       2.8548801385    -1.4809820748     0.0004048808
   14      H       3.4898338720    -1.4302044290     0.8883476822
   15      H       3.4925927256    -1.4319065075    -0.8855088895
   16      H       2.3385700525    -2.4451402677     0.0010408371
   17      H       1.0002654471     1.7824516431    -2.1508313380
   18      H      -0.4670751924     1.4830702806    -1.2112112732
   19      H       0.0794619501    -0.8787781357    -1.2084274328
   20      H       1.5265633573    -0.5086503183    -2.1529177738
   21      C      -2.3174825951     0.6111718956    -1.2627134594
   22      C      -1.9657099177    -0.9057721548    -1.2627353533
   23      C      -1.5688478892     1.0871953598     0.0012271981
   24      C      -2.3151289994     0.6092440219     1.2654698825
   25      C      -1.9669054130    -0.9082255657     1.2594364361
   26      C      -1.0708937911    -1.0247174867    -0.0011675088
   27      O      -0.3941594884     0.2573156472    -0.0004933798
   28      H      -1.9182369461     1.1026599837     2.1545206550
   29      H      -3.3878255103     0.8099966755     1.2185637562
   30      H      -1.3993002550    -1.1888771372     2.1488917779
   31      H      -2.8460234947    -1.5539591690     1.2015635773
   32      H      -1.2731078616     2.1351355649     0.0019227489
   33      C      -0.0683470039    -2.1553261119     0.0004904222
   34      H       0.5666067296    -2.1045484660     0.8884332235
   35      H       0.5693655831    -2.1062505446    -0.8854233481
   36      H      -0.5846570899    -3.1194843048     0.0011263785
   37      H      -1.9229616953     1.1081076060    -2.1507457966
   38      H      -3.3903023349     0.8087262436    -1.2111257318
   39      H      -2.8437651923    -1.5531221728    -1.2083418914
   40      H      -1.3966637851    -1.1829943554    -2.1528322324
 ----------------------------------------------------------------

   14    -698.1508050818      4.64E-09 Convergence criterion met
 Total energy in the final basis set = -698.15080508

                    Orbital Energies (a.u.)
 --------------------------------------------------------------

 Alpha MOs
 -- Occupied --
-19.113 -19.097 -10.247 -10.240 -10.206 -10.195 -10.191 -10.191
-10.189 -10.189 -10.165 -10.148 -10.135 -10.134 -10.132 -10.132
 -1.119  -1.023  -0.848  -0.844  -0.793  -0.774  -0.753  -0.738
 -0.708  -0.674  -0.657  -0.620  -0.599  -0.587  -0.557  -0.553
 -0.543  -0.536  -0.504  -0.472  -0.465  -0.456  -0.442  -0.441
 -0.434  -0.428  -0.417  -0.409  -0.404  -0.399  -0.382  -0.378
 -0.367  -0.361  -0.349  -0.344  -0.334  -0.322  -0.312  -0.304
 -0.303  -0.279  -0.273  -0.272  -0.244  -0.216

          Ground-State Mulliken Net Atomic Charges

     Atom                 Charge (a.u.)
  ----------------------------------------
      1 C                    -0.260548
      2 C                    -0.009421
      3 C                    -0.101585
      4 C                    -0.264226
      5 C                    -0.006363
      6 C                    -0.696705
      7 O                     0.006258
      8 H                     0.186955
      9 H                     0.100642
     10 H                     0.197132
     11 H                     0.001046
     12 H                     0.232258
     13 C                    -0.538374
     14 H                     0.165209
     15 H                     0.165034
     16 H                     0.118899
     17 H                     0.187072
     18 H                     0.100198
     19 H                     0.002511
     20 H                     0.196727
     21 C                    -0.624345
     22 C                    -0.422426
     23 C                     0.363447
     24 C                    -0.626889
     25 C                    -0.420705
     26 C                     0.469305
     27 O                    -0.127763
     28 H                     0.172972
     29 H                     0.165251
     30 H                     0.210503
     31 H                     0.161895
     32 H                     0.319009
     33 C                    -0.785257
     34 H                     0.233000
     35 H                     0.232882
     36 H                     0.185516
     37 H                     0.173474
     38 H                     0.165072
     39 H                     0.161918
     40 H                     0.210421
  ----------------------------------------
  Sum of atomic charges =    -0.000000

                    Cartesian Multipole Moments
 -----------------------------------------------------------------
    Charge (ESU x 10^10)
                -0.0000
    Dipole Moment (Debye)
         X      -5.2792      Y      -1.3948      Z       0.0057
       Tot       5.4604
    Quadrupole Moments (Debye-Ang)
        XX    -106.1341     XY      -4.5008     YY     -99.1586
        XZ      -0.0036     YZ       0.0187     ZZ    -104.0171

 Total job time:  337.24s(wall), 1335.60s(cpu)
        *  Thank you very much for using Q-Chem.  Have a nice day.  *
