 Q-Chem 5.0, Q-Chem, Inc., Pleasanton, CA (2017)
 Q-Chem 5.0.1 for Intel X86 EM64T Linux

User input:
--------------------------------------------------------------
$molecule
0  1
C        +0.22270000        +1.04488000        +0.58595000
C        +0.62626000        -0.41353000        +0.99871000
C        +1.33008000        +1.39974000        -0.43491000
C        +2.63070000        +1.71700000        +0.32855000
C        +3.04336000        +0.29351000        +0.80300000
C        +1.94423000        -0.59299000        +0.15262000
O        +1.62840000        +0.13663000        -1.04376000
H        +3.37234000        +2.13782000        -0.35195000
H        +2.48236000        +2.42488000        +1.14651000
H        +4.02182000        +0.00994000        +0.41161000
H        +3.07359000        +0.18738000        +1.88928000
C        +0.90028000        +2.39077000        -1.49430000
C        +2.35450000        -2.01267000        -0.16812000
H        +3.26311000        -2.00678000        -0.77366000
H        +2.54990000        -2.57059000        +0.75079000
H        +1.57335000        -2.52896000        -0.72872000
H        +1.71845000        +2.58186000        -2.15686000
H        +0.59919000        +3.30478000        -1.02650000
H        +0.07925000        +1.98653000        -2.04874000
H        +0.81693000        -0.48905000        +2.04887000
H        -0.12524000        -1.15356000        +0.81843000
H        -0.74673000        +1.06811000        +0.13365000
H        +0.15552000        +1.72617000        +1.40828000
@C        +3.82545000        +2.97053000        +3.10628000
@C        +4.22901000        +1.51212000        +3.51904000
@C        +4.93283000        +3.32539000        +2.08542000
@C        +6.23345000        +3.64265000        +2.84888000
@C        +6.64611000        +2.21916000        +3.32333000
@C        +5.54698000        +1.33266000        +2.67295000
@O        +5.23115000        +2.06228000        +1.47657000
@H        +6.97509000        +4.06347000        +2.16838000
@H        +6.08511000        +4.35053000        +3.66684000
@H        +7.62457000        +1.93559000        +2.93194000
@H        +6.67634000        +2.11303000        +4.40961000
@C        +4.50303000        +4.31642000        +1.02603000
@C        +5.95725000        -0.08702000        +2.35221000
@H        +6.86586000        -0.08113000        +1.74667000
@H        +6.15265000        -0.64494000        +3.27112000
@H        +5.17610000        -0.60331000        +1.79161000
@H        +5.32120000        +4.50751000        +0.36347000
@H        +4.20194000        +5.23043000        +1.49383000
@H        +3.68200000        +3.91218000        +0.47159000
@H        +4.41968000        +1.43660000        +4.56920000
@H        +3.47751000        +0.77209000        +3.33876000
@H        +2.85602000        +2.99376000        +2.65398000
@H        +3.75827000        +3.65182000        +3.92861000
$end

$rem
JOBTYPE                   SP
METHOD                    B3LYP
DFT_D                     d3_op
BASIS                     6-311++G(d,p)
SYMMETRY                  False
THRESH                    12
SCF_CONVERGENCE           8
MAX_SUB_FILE_NUM          128
MEM_STATIC                400
MEM_TOTAL                 4000
$end
--------------------------------------------------------------

             Standard Nuclear Orientation (Angstroms)
    I     Atom           X                Y                Z
 ----------------------------------------------------------------
    1      C       0.2227000000     1.0448800000     0.5859500000
    2      C       0.6262600000    -0.4135300000     0.9987100000
    3      C       1.3300800000     1.3997400000    -0.4349100000
    4      C       2.6307000000     1.7170000000     0.3285500000
    5      C       3.0433600000     0.2935100000     0.8030000000
    6      C       1.9442300000    -0.5929900000     0.1526200000
    7      O       1.6284000000     0.1366300000    -1.0437600000
    8      H       3.3723400000     2.1378200000    -0.3519500000
    9      H       2.4823600000     2.4248800000     1.1465100000
   10      H       4.0218200000     0.0099400000     0.4116100000
   11      H       3.0735900000     0.1873800000     1.8892800000
   12      C       0.9002800000     2.3907700000    -1.4943000000
   13      C       2.3545000000    -2.0126700000    -0.1681200000
   14      H       3.2631100000    -2.0067800000    -0.7736600000
   15      H       2.5499000000    -2.5705900000     0.7507900000
   16      H       1.5733500000    -2.5289600000    -0.7287200000
   17      H       1.7184500000     2.5818600000    -2.1568600000
   18      H       0.5991900000     3.3047800000    -1.0265000000
   19      H       0.0792500000     1.9865300000    -2.0487400000
   20      H       0.8169300000    -0.4890500000     2.0488700000
   21      H      -0.1252400000    -1.1535600000     0.8184300000
   22      H      -0.7467300000     1.0681100000     0.1336500000
   23      H       0.1555200000     1.7261700000     1.4082800000
   24      GH      3.8254500000     2.9705300000     3.1062800000
   25      GH      4.2290100000     1.5121200000     3.5190400000
   26      GH      4.9328300000     3.3253900000     2.0854200000
   27      GH      6.2334500000     3.6426500000     2.8488800000
   28      GH      6.6461100000     2.2191600000     3.3233300000
   29      GH      5.5469800000     1.3326600000     2.6729500000
   30      GH      5.2311500000     2.0622800000     1.4765700000
   31      GH      6.9750900000     4.0634700000     2.1683800000
   32      GH      6.0851100000     4.3505300000     3.6668400000
   33      GH      7.6245700000     1.9355900000     2.9319400000
   34      GH      6.6763400000     2.1130300000     4.4096100000
   35      GH      4.5030300000     4.3164200000     1.0260300000
   36      GH      5.9572500000    -0.0870200000     2.3522100000
   37      GH      6.8658600000    -0.0811300000     1.7466700000
   38      GH      6.1526500000    -0.6449400000     3.2711200000
   39      GH      5.1761000000    -0.6033100000     1.7916100000
   40      GH      5.3212000000     4.5075100000     0.3634700000
   41      GH      4.2019400000     5.2304300000     1.4938300000
   42      GH      3.6820000000     3.9121800000     0.4715900000
   43      GH      4.4196800000     1.4366000000     4.5692000000
   44      GH      3.4775100000     0.7720900000     3.3387600000
   45      GH      2.8560200000     2.9937600000     2.6539800000
   46      GH      3.7582700000     3.6518200000     3.9286100000
 ----------------------------------------------------------------

   12    -388.6332720035      6.97E-09 Convergence criterion met
 Total energy in the final basis set = -388.63327200

                    Orbital Energies (a.u.)
 --------------------------------------------------------------

 Alpha MOs
 -- Occupied --
-19.115 -10.224 -10.221 -10.166 -10.165 -10.162 -10.161 -10.160
-10.151  -1.049  -0.799  -0.789  -0.748  -0.717  -0.652  -0.616
 -0.562  -0.555  -0.486  -0.474  -0.464  -0.444  -0.420  -0.410
 -0.406  -0.402  -0.384  -0.360  -0.346  -0.343  -0.340  -0.333
 -0.316  -0.299  -0.261

          Ground-State Mulliken Net Atomic Charges

     Atom                 Charge (a.u.)
  ----------------------------------------
      1 C                    -0.412469
      2 C                    -0.445630
      3 C                    -0.126869
      4 C                    -0.254318
      5 C                    -0.179898
      6 C                    -0.156065
      7 O                     0.065065
      8 H                     0.199281
      9 H                     0.034407
     10 H                     0.188307
     11 H                     0.042023
     12 C                    -0.267313
     13 C                    -0.294096
     14 H                     0.149284
     15 H                     0.156157
     16 H                     0.164253
     17 H                     0.139050
     18 H                     0.151878
     19 H                     0.162800
     20 H                     0.132943
     21 H                     0.176139
     22 H                     0.162752
     23 H                     0.142569
     24 GH                    0.054614
     25 GH                    0.044900
     26 GH                   -0.041771
     27 GH                   -0.012093
     28 GH                   -0.011754
     29 GH                   -0.014971
     30 GH                    0.028606
     31 GH                   -0.000623
     32 GH                   -0.000060
     33 GH                   -0.000318
     34 GH                   -0.000159
     35 GH                   -0.014583
     36 GH                   -0.031678
     37 GH                    0.001615
     38 GH                   -0.000822
     39 GH                    0.022691
     40 GH                    0.001344
     41 GH                   -0.001099
     42 GH                    0.031657
     43 GH                    0.000172
     44 GH                    0.007229
     45 GH                    0.006555
     46 GH                    0.000298
  ----------------------------------------
  Sum of atomic charges =     0.000000

                    Cartesian Multipole Moments
 -----------------------------------------------------------------
    Charge (ESU x 10^10)
                 0.0000
    Dipole Moment (Debye)
         X      -0.0287      Y       0.4312      Z       1.5067
       Tot       1.5675
    Quadrupole Moments (Debye-Ang)
        XX     -56.4493     XY       0.1594     YY     -54.7991
        XZ       2.4148     YZ      -0.4798     ZZ     -59.0941

 Total job time:  310.37s(wall), 1228.55s(cpu)
        *  Thank you very much for using Q-Chem.  Have a nice day.  *
