 Q-Chem 5.0, Q-Chem, Inc., Pleasanton, CA (2017)
 Q-Chem 5.0.1 for Intel X86 EM64T Linux

User input:
--------------------------------------------------------------
$molecule
0  1
--
0  1
C        +0.20186000        +1.01419000        +0.57588000
C        +0.65458000        -0.40740000        +1.00877000
C        +1.31047000        +1.40432000        -0.43622000
C        +2.61036000        +1.71622000        +0.34904000
C        +3.06420000        +0.29616000        +0.78527000
C        +1.94960000        -0.59295000        +0.17632000
O        +1.62620000        +0.12693000        -1.03574000
H        +3.34518000        +2.18171000        -0.31153000
H        +2.43386000        +2.39558000        +1.18603000
H        +4.02983000        +0.03650000        +0.34656000
H        +3.14253000        +0.17627000        +1.86830000
C        +0.91819000        +2.41036000        -1.49368000
C        +2.33867000        -2.01935000        -0.13734000
H        +3.21332000        -2.04461000        -0.79203000
H        +2.58239000        -2.55643000        +0.78377000
H        +1.51806000        -2.54232000        -0.63447000
H        +1.73500000        +2.55908000        -2.20400000
H        +0.68341000        +3.37378000        -1.03196000
H        +0.03753000        +2.06800000        -2.04235000
H        +0.83643000        -0.49892000        +2.08202000
H        -0.08220000        -1.16297000        +0.72684000
H        -0.76801000        +0.98583000        +0.07445000
H        +0.13288000        +1.72189000        +1.40479000
--
0  1
C        +0.21299000        +1.89486000        +3.44368000
C        +0.66571000        +0.47327000        +3.87657000
C        +1.32160000        +2.28499000        +2.43158000
C        +2.62149000        +2.59689000        +3.21684000
C        +3.07533000        +1.17683000        +3.65307000
C        +1.96073000        +0.28772000        +3.04412000
O        +1.63733000        +1.00760000        +1.83206000
H        +3.35631000        +3.06238000        +2.55627000
H        +2.44499000        +3.27625000        +4.05383000
H        +4.04096000        +0.91717000        +3.21436000
H        +3.15366000        +1.05694000        +4.73610000
C        +0.92932000        +3.29103000        +1.37412000
C        +2.34980000        -1.13868000        +2.73046000
H        +3.22445000        -1.16394000        +2.07577000
H        +2.59352000        -1.67576000        +3.65157000
H        +1.52919000        -1.66165000        +2.23333000
H        +1.74613000        +3.43975000        +0.66380000
H        +0.69454000        +4.25445000        +1.83584000
H        +0.04866000        +2.94867000        +0.82545000
H        +0.84756000        +0.38175000        +4.94982000
H        -0.07107000        -0.28230000        +3.59464000
H        -0.75688000        +1.86650000        +2.94225000
H        +0.14401000        +2.60256000        +4.27259000
$end

$rem
JOBTYPE                   SP
METHOD                    B3LYP
DFT_D                     d3_op
BASIS                     6-311++G(d,p)
SYMMETRY                  False
THRESH                    12
SCF_CONVERGENCE           8
MAX_SUB_FILE_NUM          128
MEM_STATIC                400
MEM_TOTAL                 4000
$end
--------------------------------------------------------------

             Standard Nuclear Orientation (Angstroms)
    I     Atom           X                Y                Z
 ----------------------------------------------------------------
    1      C       0.7602525036     0.7768076994    -1.2591450320
    2      C       0.7615210824    -0.7766594128    -1.2615115534
    3      C       1.6093939667     1.0915490597     0.0000057179
    4      C       0.7624076699     0.7767182423     1.2598170765
    5      C       0.7600303380    -0.7766106825     1.2586501960
    6      C       1.6070070407    -1.0931187805    -0.0007635341
    7      O       2.5559207155    -0.0015753729    -0.0009760318
    8      H       1.2547539190     1.1716653950     2.1512238383
    9      H      -0.2363262637     1.2158730225     1.2058900098
   10      H       1.2520262687    -1.1743396989     2.1486404826
   11      H      -0.2405340531    -1.2116810352     1.2034426826
   12      C       2.3268567032     2.4217629343    -0.0000296724
   13      C       2.3236567645    -2.4238268456     0.0012954873
   14      H       2.9537504875    -2.5202392641     0.8889644752
   15      H       1.5996027604    -3.2436090205     0.0022863227
   16      H       2.9552941295    -2.5228578317    -0.8848555906
   17      H       2.9593387730     2.5169236195     0.8858380334
   18      H       1.6038285161     3.2425587746     0.0030577975
   19      H       2.9550364646     2.5198727294    -0.8886104676
   20      H      -0.2383929083    -1.2133748665    -1.2089518811
   21      H       1.2553049947    -1.1730490118    -2.1516059597
   22      H       1.2515348965     1.1749866406    -2.1496388796
   23      H      -0.2394622658     1.2126435858    -1.2016404366
   24      C      -2.2397440066     0.7778790325    -1.2587491545
   25      C      -2.2384754278    -0.7755880797    -1.2611156759
   26      C      -1.3906025435     1.0926203928     0.0004015954
   27      C      -2.2375888403     0.7777895755     1.2602129540
   28      C      -2.2399661723    -0.7755393494     1.2590460735
   29      C      -1.3929894695    -1.0920474474    -0.0003676566
   30      O      -0.4440757947    -0.0005040398    -0.0005801543
   31      H      -1.7452425912     1.1727367281     2.1516197158
   32      H      -3.2363227740     1.2169443556     1.2062858873
   33      H      -1.7479702416    -1.1732683658     2.1490363601
   34      H      -3.2405305633    -1.2106097021     1.2038385601
   35      C      -0.6731398070     2.4228342674     0.0003662051
   36      C      -0.6763397457    -2.4227555124     0.0016913648
   37      H      -0.0462460227    -2.5191679310     0.8893603527
   38      H      -1.4003937498    -3.2425376873     0.0026822001
   39      H      -0.0447023807    -2.5217864986    -0.8844597131
   40      H      -0.0406577372     2.5179949526     0.8862339109
   41      H      -1.3961679941     3.2436301077     0.0034536750
   42      H      -0.0449600456     2.5209440626    -0.8882145901
   43      H      -3.2383894185    -1.2123035334    -1.2085560036
   44      H      -1.7446915155    -1.1719776787    -2.1512100822
   45      H      -1.7484616137     1.1760579737    -2.1492430021
   46      H      -3.2394587760     1.2137149189    -1.2012445591
 ----------------------------------------------------------------

   13    -776.7395558553      9.67E-09 Convergence criterion met
 Total energy in the final basis set = -776.73955586

                    Orbital Energies (a.u.)
 --------------------------------------------------------------

 Alpha MOs
 -- Occupied --
-19.110 -19.097 -10.245 -10.245 -10.203 -10.203 -10.189 -10.189
-10.189 -10.189 -10.164 -10.164 -10.146 -10.146 -10.129 -10.129
-10.128 -10.128  -1.118  -1.023  -0.862  -0.846  -0.795  -0.794
 -0.771  -0.738  -0.733  -0.705  -0.679  -0.665  -0.648  -0.604
 -0.593  -0.581  -0.564  -0.547  -0.540  -0.516  -0.500  -0.471
 -0.470  -0.467  -0.452  -0.449  -0.444  -0.438  -0.432  -0.408
 -0.403  -0.395  -0.392  -0.391  -0.388  -0.376  -0.375  -0.371
 -0.364  -0.348  -0.343  -0.339  -0.326  -0.307  -0.298  -0.295
 -0.293  -0.277  -0.270  -0.270  -0.244  -0.209

          Ground-State Mulliken Net Atomic Charges

     Atom                 Charge (a.u.)
  ----------------------------------------
      1 C                    -0.081883
      2 C                    -0.083703
      3 C                    -0.676971
      4 C                    -0.084013
      5 C                    -0.082101
      6 C                    -0.675351
      7 O                     0.142109
      8 H                     0.200268
      9 H                    -0.002833
     10 H                     0.200810
     11 H                    -0.008210
     12 C                    -0.318522
     13 C                    -0.320567
     14 H                     0.162443
     15 H                     0.116712
     16 H                     0.162193
     17 H                     0.162392
     18 H                     0.116952
     19 H                     0.162164
     20 H                    -0.004898
     21 H                     0.200389
     22 H                     0.200489
     23 H                    -0.008379
     24 C                    -0.400477
     25 C                    -0.401689
     26 C                     0.459076
     27 C                    -0.401257
     28 C                    -0.402153
     29 C                     0.461332
     30 O                    -0.102167
     31 H                     0.202882
     32 H                     0.166319
     33 H                     0.203636
     34 H                     0.166273
     35 C                    -0.772273
     36 C                    -0.775335
     37 H                     0.255610
     38 H                     0.177436
     39 H                     0.255337
     40 H                     0.255157
     41 H                     0.177568
     42 H                     0.255665
     43 H                     0.166294
     44 H                     0.203721
     45 H                     0.203376
     46 H                     0.166179
  ----------------------------------------
  Sum of atomic charges =     0.000000

                    Cartesian Multipole Moments
 -----------------------------------------------------------------
    Charge (ESU x 10^10)
                 0.0000
    Dipole Moment (Debye)
         X      -5.2360      Y       0.0041      Z       0.0059
       Tot       5.2360
    Quadrupole Moments (Debye-Ang)
        XX    -119.8743     XY       0.0023     YY    -111.8379
        XZ       0.0010     YZ       0.0165     ZZ    -117.2770

 Total job time:  505.90s(wall), 1996.57s(cpu)
        *  Thank you very much for using Q-Chem.  Have a nice day.  *
