 Q-Chem 5.0, Q-Chem, Inc., Pleasanton, CA (2017)
 Q-Chem 5.0.1 for Intel X86 EM64T Linux

User input:
--------------------------------------------------------------
$molecule
0  1
C        +2.47442000        +2.24841000        +2.16116000
C        +2.87798000        +0.79000000        +2.57392000
C        +3.58180000        +2.60327000        +1.14030000
C        +4.88242000        +2.92053000        +1.90376000
C        +5.29508000        +1.49704000        +2.37821000
C        +4.19595000        +0.61054000        +1.72783000
O        +3.88012000        +1.34016000        +0.53145000
H        +5.62406000        +3.34135000        +1.22326000
H        +4.73408000        +3.62841000        +2.72172000
H        +6.27354000        +1.21347000        +1.98682000
H        +5.32531000        +1.39091000        +3.46449000
C        +3.15200000        +3.59430000        +0.08091000
C        +4.60622000        -0.80914000        +1.40709000
H        +5.51483000        -0.80325000        +0.80155000
H        +4.80162000        -1.36706000        +2.32600000
H        +3.82507000        -1.32543000        +0.84649000
H        +3.97017000        +3.78539000        -0.58165000
H        +2.85091000        +4.50831000        +0.54871000
H        +2.33097000        +3.19006000        -0.47353000
H        +3.06865000        +0.71448000        +3.62408000
H        +2.12648000        +0.04997000        +2.39364000
H        +1.50499000        +2.27164000        +1.70886000
H        +2.40724000        +2.92970000        +2.98349000
@C        +0.22270000        +1.04488000        +0.58595000
@C        +0.62626000        -0.41353000        +0.99871000
@C        +1.33008000        +1.39974000        -0.43491000
@C        +2.63070000        +1.71700000        +0.32855000
@C        +3.04336000        +0.29351000        +0.80300000
@C        +1.94423000        -0.59299000        +0.15262000
@O        +1.62840000        +0.13663000        -1.04376000
@H        +3.37234000        +2.13782000        -0.35195000
@H        +2.48236000        +2.42488000        +1.14651000
@H        +4.02182000        +0.00994000        +0.41161000
@H        +3.07359000        +0.18738000        +1.88928000
@C        +0.90028000        +2.39077000        -1.49430000
@C        +2.35450000        -2.01267000        -0.16812000
@H        +3.26311000        -2.00678000        -0.77366000
@H        +2.54990000        -2.57059000        +0.75079000
@H        +1.57335000        -2.52896000        -0.72872000
@H        +1.71845000        +2.58186000        -2.15686000
@H        +0.59919000        +3.30478000        -1.02650000
@H        +0.07925000        +1.98653000        -2.04874000
@H        +0.81693000        -0.48905000        +2.04887000
@H        -0.12524000        -1.15356000        +0.81843000
@H        -0.74673000        +1.06811000        +0.13365000
@H        +0.15552000        +1.72617000        +1.40828000
$end

$rem
JOBTYPE                   SP
METHOD                    B3LYP
DFT_D                     d3_op
BASIS                     6-311++G(d,p)
SYMMETRY                  False
THRESH                    12
SCF_CONVERGENCE           8
MAX_SUB_FILE_NUM          128
MEM_STATIC                400
MEM_TOTAL                 4000
$end
--------------------------------------------------------------

             Standard Nuclear Orientation (Angstroms)
    I     Atom           X                Y                Z
 ----------------------------------------------------------------
    1      C       2.4744200000     2.2484100000     2.1611600000
    2      C       2.8779800000     0.7900000000     2.5739200000
    3      C       3.5818000000     2.6032700000     1.1403000000
    4      C       4.8824200000     2.9205300000     1.9037600000
    5      C       5.2950800000     1.4970400000     2.3782100000
    6      C       4.1959500000     0.6105400000     1.7278300000
    7      O       3.8801200000     1.3401600000     0.5314500000
    8      H       5.6240600000     3.3413500000     1.2232600000
    9      H       4.7340800000     3.6284100000     2.7217200000
   10      H       6.2735400000     1.2134700000     1.9868200000
   11      H       5.3253100000     1.3909100000     3.4644900000
   12      C       3.1520000000     3.5943000000     0.0809100000
   13      C       4.6062200000    -0.8091400000     1.4070900000
   14      H       5.5148300000    -0.8032500000     0.8015500000
   15      H       4.8016200000    -1.3670600000     2.3260000000
   16      H       3.8250700000    -1.3254300000     0.8464900000
   17      H       3.9701700000     3.7853900000    -0.5816500000
   18      H       2.8509100000     4.5083100000     0.5487100000
   19      H       2.3309700000     3.1900600000    -0.4735300000
   20      H       3.0686500000     0.7144800000     3.6240800000
   21      H       2.1264800000     0.0499700000     2.3936400000
   22      H       1.5049900000     2.2716400000     1.7088600000
   23      H       2.4072400000     2.9297000000     2.9834900000
   24      GH      0.2227000000     1.0448800000     0.5859500000
   25      GH      0.6262600000    -0.4135300000     0.9987100000
   26      GH      1.3300800000     1.3997400000    -0.4349100000
   27      GH      2.6307000000     1.7170000000     0.3285500000
   28      GH      3.0433600000     0.2935100000     0.8030000000
   29      GH      1.9442300000    -0.5929900000     0.1526200000
   30      GH      1.6284000000     0.1366300000    -1.0437600000
   31      GH      3.3723400000     2.1378200000    -0.3519500000
   32      GH      2.4823600000     2.4248800000     1.1465100000
   33      GH      4.0218200000     0.0099400000     0.4116100000
   34      GH      3.0735900000     0.1873800000     1.8892800000
   35      GH      0.9002800000     2.3907700000    -1.4943000000
   36      GH      2.3545000000    -2.0126700000    -0.1681200000
   37      GH      3.2631100000    -2.0067800000    -0.7736600000
   38      GH      2.5499000000    -2.5705900000     0.7507900000
   39      GH      1.5733500000    -2.5289600000    -0.7287200000
   40      GH      1.7184500000     2.5818600000    -2.1568600000
   41      GH      0.5991900000     3.3047800000    -1.0265000000
   42      GH      0.0792500000     1.9865300000    -2.0487400000
   43      GH      0.8169300000    -0.4890500000     2.0488700000
   44      GH     -0.1252400000    -1.1535600000     0.8184300000
   45      GH     -0.7467300000     1.0681100000     0.1336500000
   46      GH      0.1555200000     1.7261700000     1.4082800000
 ----------------------------------------------------------------

   12    -388.6369028929      7.22E-09 Convergence criterion met
 Total energy in the final basis set = -388.63690289

                    Orbital Energies (a.u.)
 --------------------------------------------------------------

 Alpha MOs
 -- Occupied --
-19.115 -10.224 -10.221 -10.166 -10.165 -10.162 -10.161 -10.160
-10.151  -1.048  -0.799  -0.788  -0.748  -0.717  -0.652  -0.616
 -0.562  -0.555  -0.486  -0.474  -0.464  -0.443  -0.420  -0.410
 -0.406  -0.401  -0.383  -0.359  -0.346  -0.343  -0.340  -0.333
 -0.316  -0.299  -0.261

          Ground-State Mulliken Net Atomic Charges

     Atom                 Charge (a.u.)
  ----------------------------------------
      1 C                    -0.357100
      2 C                    -0.412666
      3 C                    -0.216464
      4 C                    -0.123715
      5 C                    -0.138261
      6 C                    -0.242494
      7 O                     0.112086
      8 H                     0.145500
      9 H                     0.139820
     10 H                     0.154222
     11 H                     0.135187
     12 C                    -0.592595
     13 C                    -0.646904
     14 H                     0.156821
     15 H                     0.165729
     16 H                     0.096242
     17 H                     0.161524
     18 H                     0.159171
     19 H                     0.042607
     20 H                     0.203277
     21 H                     0.122321
     22 H                     0.108354
     23 H                     0.205184
     24 GH                   -0.041824
     25 GH                   -0.039419
     26 GH                    0.189818
     27 GH                   -0.024509
     28 GH                   -0.140926
     29 GH                    0.264452
     30 GH                   -0.016313
     31 GH                   -0.082268
     32 GH                    0.187196
     33 GH                   -0.031812
     34 GH                    0.266479
     35 GH                    0.084473
     36 GH                    0.006464
     37 GH                    0.000242
     38 GH                    0.003685
     39 GH                    0.000628
     40 GH                    0.001962
     41 GH                    0.005640
     42 GH                    0.001361
     43 GH                   -0.007187
     44 GH                   -0.002176
     45 GH                   -0.003507
     46 GH                   -0.000304
  ----------------------------------------
  Sum of atomic charges =     0.000000

                    Cartesian Multipole Moments
 -----------------------------------------------------------------
    Charge (ESU x 10^10)
                 0.0000
    Dipole Moment (Debye)
         X      -0.0374      Y       0.4168      Z       1.4621
       Tot       1.5208
    Quadrupole Moments (Debye-Ang)
        XX     -56.6633     XY       1.0518     YY     -53.8741
        XZ       5.5867     YZ       1.9773     ZZ     -54.3867

 Total job time:  420.81s(wall), 1669.26s(cpu)
        *  Thank you very much for using Q-Chem.  Have a nice day.  *
