 Q-Chem 5.0, Q-Chem, Inc., Pleasanton, CA (2017)
 Q-Chem 5.0.1 for Intel X86 EM64T Linux

User input:
--------------------------------------------------------------
$molecule
0  1
C        +0.20186000        +1.01419000        +0.57588000
C        +0.65458000        -0.40740000        +1.00877000
C        +1.31047000        +1.40432000        -0.43622000
C        +2.61036000        +1.71622000        +0.34904000
C        +3.06420000        +0.29616000        +0.78527000
C        +1.94960000        -0.59295000        +0.17632000
O        +1.62620000        +0.12693000        -1.03574000
H        +3.34518000        +2.18171000        -0.31153000
H        +2.43386000        +2.39558000        +1.18603000
H        +4.02983000        +0.03650000        +0.34656000
H        +3.14253000        +0.17627000        +1.86830000
C        +0.91819000        +2.41036000        -1.49368000
C        +2.33867000        -2.01935000        -0.13734000
H        +3.21332000        -2.04461000        -0.79203000
H        +2.58239000        -2.55643000        +0.78377000
H        +1.51806000        -2.54232000        -0.63447000
H        +1.73500000        +2.55908000        -2.20400000
H        +0.68341000        +3.37378000        -1.03196000
H        +0.03753000        +2.06800000        -2.04235000
H        +0.83643000        -0.49892000        +2.08202000
H        -0.08220000        -1.16297000        +0.72684000
H        -0.76801000        +0.98583000        +0.07445000
H        +0.13288000        +1.72189000        +1.40479000
@C        +0.21299000        +1.89486000        +3.44368000
@C        +0.66571000        +0.47327000        +3.87657000
@C        +1.32160000        +2.28499000        +2.43158000
@C        +2.62149000        +2.59689000        +3.21684000
@C        +3.07533000        +1.17683000        +3.65307000
@C        +1.96073000        +0.28772000        +3.04412000
@O        +1.63733000        +1.00760000        +1.83206000
@H        +3.35631000        +3.06238000        +2.55627000
@H        +2.44499000        +3.27625000        +4.05383000
@H        +4.04096000        +0.91717000        +3.21436000
@H        +3.15366000        +1.05694000        +4.73610000
@C        +0.92932000        +3.29103000        +1.37412000
@C        +2.34980000        -1.13868000        +2.73046000
@H        +3.22445000        -1.16394000        +2.07577000
@H        +2.59352000        -1.67576000        +3.65157000
@H        +1.52919000        -1.66165000        +2.23333000
@H        +1.74613000        +3.43975000        +0.66380000
@H        +0.69454000        +4.25445000        +1.83584000
@H        +0.04866000        +2.94867000        +0.82545000
@H        +0.84756000        +0.38175000        +4.94982000
@H        -0.07107000        -0.28230000        +3.59464000
@H        -0.75688000        +1.86650000        +2.94225000
@H        +0.14401000        +2.60256000        +4.27259000
$end

$rem
JOBTYPE                   SP
METHOD                    B3LYP
DFT_D                     d3_op
BASIS                     6-311++G(d,p)
SYMMETRY                  False
THRESH                    12
SCF_CONVERGENCE           8
MAX_SUB_FILE_NUM          128
MEM_STATIC                400
MEM_TOTAL                 4000
$end
--------------------------------------------------------------

             Standard Nuclear Orientation (Angstroms)
    I     Atom           X                Y                Z
 ----------------------------------------------------------------
    1      C       0.2018600000     1.0141900000     0.5758800000
    2      C       0.6545800000    -0.4074000000     1.0087700000
    3      C       1.3104700000     1.4043200000    -0.4362200000
    4      C       2.6103600000     1.7162200000     0.3490400000
    5      C       3.0642000000     0.2961600000     0.7852700000
    6      C       1.9496000000    -0.5929500000     0.1763200000
    7      O       1.6262000000     0.1269300000    -1.0357400000
    8      H       3.3451800000     2.1817100000    -0.3115300000
    9      H       2.4338600000     2.3955800000     1.1860300000
   10      H       4.0298300000     0.0365000000     0.3465600000
   11      H       3.1425300000     0.1762700000     1.8683000000
   12      C       0.9181900000     2.4103600000    -1.4936800000
   13      C       2.3386700000    -2.0193500000    -0.1373400000
   14      H       3.2133200000    -2.0446100000    -0.7920300000
   15      H       2.5823900000    -2.5564300000     0.7837700000
   16      H       1.5180600000    -2.5423200000    -0.6344700000
   17      H       1.7350000000     2.5590800000    -2.2040000000
   18      H       0.6834100000     3.3737800000    -1.0319600000
   19      H       0.0375300000     2.0680000000    -2.0423500000
   20      H       0.8364300000    -0.4989200000     2.0820200000
   21      H      -0.0822000000    -1.1629700000     0.7268400000
   22      H      -0.7680100000     0.9858300000     0.0744500000
   23      H       0.1328800000     1.7218900000     1.4047900000
   24      GH      0.2129900000     1.8948600000     3.4436800000
   25      GH      0.6657100000     0.4732700000     3.8765700000
   26      GH      1.3216000000     2.2849900000     2.4315800000
   27      GH      2.6214900000     2.5968900000     3.2168400000
   28      GH      3.0753300000     1.1768300000     3.6530700000
   29      GH      1.9607300000     0.2877200000     3.0441200000
   30      GH      1.6373300000     1.0076000000     1.8320600000
   31      GH      3.3563100000     3.0623800000     2.5562700000
   32      GH      2.4449900000     3.2762500000     4.0538300000
   33      GH      4.0409600000     0.9171700000     3.2143600000
   34      GH      3.1536600000     1.0569400000     4.7361000000
   35      GH      0.9293200000     3.2910300000     1.3741200000
   36      GH      2.3498000000    -1.1386800000     2.7304600000
   37      GH      3.2244500000    -1.1639400000     2.0757700000
   38      GH      2.5935200000    -1.6757600000     3.6515700000
   39      GH      1.5291900000    -1.6616500000     2.2333300000
   40      GH      1.7461300000     3.4397500000     0.6638000000
   41      GH      0.6945400000     4.2544500000     1.8358400000
   42      GH      0.0486600000     2.9486700000     0.8254500000
   43      GH      0.8475600000     0.3817500000     4.9498200000
   44      GH     -0.0710700000    -0.2823000000     3.5946400000
   45      GH     -0.7568800000     1.8665000000     2.9422500000
   46      GH      0.1440100000     2.6025600000     4.2725900000
 ----------------------------------------------------------------

   12    -388.6396257021      3.35E-09 Convergence criterion met
 Total energy in the final basis set = -388.63962570

                    Orbital Energies (a.u.)
 --------------------------------------------------------------

 Alpha MOs
 -- Occupied --
-19.113 -10.223 -10.223 -10.166 -10.166 -10.166 -10.166 -10.160
-10.160  -1.043  -0.799  -0.788  -0.749  -0.716  -0.650  -0.613
 -0.557  -0.553  -0.484  -0.475  -0.466  -0.440  -0.417  -0.408
 -0.404  -0.402  -0.383  -0.359  -0.344  -0.343  -0.341  -0.335
 -0.317  -0.298  -0.260

          Ground-State Mulliken Net Atomic Charges

     Atom                 Charge (a.u.)
  ----------------------------------------
      1 C                     0.028673
      2 C                     0.028300
      3 C                    -0.813248
      4 C                     0.030431
      5 C                     0.031916
      6 C                    -0.805180
      7 O                     0.155716
      8 H                     0.236480
      9 H                     0.090691
     10 H                     0.236868
     11 H                     0.089861
     12 C                    -0.293371
     13 C                    -0.295769
     14 H                     0.159475
     15 H                     0.126993
     16 H                     0.159497
     17 H                     0.159468
     18 H                     0.127091
     19 H                     0.159322
     20 H                     0.091812
     21 H                     0.236629
     22 H                     0.236157
     23 H                     0.089299
     24 GH                    0.011117
     25 GH                    0.012131
     26 GH                   -0.134559
     27 GH                    0.010337
     28 GH                    0.011692
     29 GH                   -0.140800
     30 GH                   -0.405477
     31 GH                   -0.001864
     32 GH                   -0.000380
     33 GH                   -0.001711
     34 GH                   -0.000289
     35 GH                    0.126765
     36 GH                    0.127527
     37 GH                    0.031180
     38 GH                   -0.001549
     39 GH                    0.031393
     40 GH                    0.031467
     41 GH                   -0.001481
     42 GH                    0.031614
     43 GH                   -0.000351
     44 GH                   -0.001859
     45 GH                   -0.001668
     46 GH                   -0.000347
  ----------------------------------------
  Sum of atomic charges =     0.000000

                    Cartesian Multipole Moments
 -----------------------------------------------------------------
    Charge (ESU x 10^10)
                 0.0000
    Dipole Moment (Debye)
         X       0.0078      Y       0.4520      Z       1.4714
       Tot       1.5392
    Quadrupole Moments (Debye-Ang)
        XX     -56.6153     XY       0.1753     YY     -54.8896
        XZ       2.5573     YZ      -0.6335     ZZ     -59.1100

 Total job time:  445.26s(wall), 1763.02s(cpu)
        *  Thank you very much for using Q-Chem.  Have a nice day.  *
