 Q-Chem 5.0, Q-Chem, Inc., Pleasanton, CA (2017)
 Q-Chem 5.0.1 for Intel X86 EM64T Linux

User input:
--------------------------------------------------------------
$molecule
0  1
C        +0.22270000        +1.04488000        +0.58595000
C        +0.62626000        -0.41353000        +0.99871000
C        +1.33008000        +1.39974000        -0.43491000
C        +2.63070000        +1.71700000        +0.32855000
C        +3.04336000        +0.29351000        +0.80300000
C        +1.94423000        -0.59299000        +0.15262000
O        +1.62840000        +0.13663000        -1.04376000
H        +3.37234000        +2.13782000        -0.35195000
H        +2.48236000        +2.42488000        +1.14651000
H        +4.02182000        +0.00994000        +0.41161000
H        +3.07359000        +0.18738000        +1.88928000
C        +0.90028000        +2.39077000        -1.49430000
C        +2.35450000        -2.01267000        -0.16812000
H        +3.26311000        -2.00678000        -0.77366000
H        +2.54990000        -2.57059000        +0.75079000
H        +1.57335000        -2.52896000        -0.72872000
H        +1.71845000        +2.58186000        -2.15686000
H        +0.59919000        +3.30478000        -1.02650000
H        +0.07925000        +1.98653000        -2.04874000
H        +0.81693000        -0.48905000        +2.04887000
H        -0.12524000        -1.15356000        +0.81843000
H        -0.74673000        +1.06811000        +0.13365000
H        +0.15552000        +1.72617000        +1.40828000
@C        +5.10142000        +3.65254000        +3.99890000
@C        +5.50498000        +2.19413000        +4.41166000
@C        +6.20880000        +4.00740000        +2.97804000
@C        +7.50942000        +4.32466000        +3.74150000
@C        +7.92208000        +2.90117000        +4.21595000
@C        +6.82295000        +2.01467000        +3.56557000
@O        +6.50712000        +2.74429000        +2.36919000
@H        +8.25106000        +4.74548000        +3.06100000
@H        +7.36108000        +5.03254000        +4.55946000
@H        +8.90054000        +2.61760000        +3.82456000
@H        +7.95231000        +2.79504000        +5.30223000
@C        +5.77900000        +4.99843000        +1.91865000
@C        +7.23322000        +0.59499000        +3.24483000
@H        +8.14183000        +0.60088000        +2.63929000
@H        +7.42862000        +0.03707000        +4.16374000
@H        +6.45207000        +0.07870000        +2.68423000
@H        +6.59717000        +5.18952000        +1.25609000
@H        +5.47791000        +5.91244000        +2.38645000
@H        +4.95797000        +4.59419000        +1.36421000
@H        +5.69565000        +2.11861000        +5.46182000
@H        +4.75348000        +1.45410000        +4.23138000
@H        +4.13199000        +3.67577000        +3.54660000
@H        +5.03424000        +4.33383000        +4.82123000
$end

$rem
JOBTYPE                   SP
METHOD                    B3LYP
DFT_D                     d3_op
BASIS                     6-311++G(d,p)
SYMMETRY                  False
THRESH                    12
SCF_CONVERGENCE           8
MAX_SUB_FILE_NUM          128
MEM_STATIC                400
MEM_TOTAL                 4000
$end
--------------------------------------------------------------

             Standard Nuclear Orientation (Angstroms)
    I     Atom           X                Y                Z
 ----------------------------------------------------------------
    1      C       0.2227000000     1.0448800000     0.5859500000
    2      C       0.6262600000    -0.4135300000     0.9987100000
    3      C       1.3300800000     1.3997400000    -0.4349100000
    4      C       2.6307000000     1.7170000000     0.3285500000
    5      C       3.0433600000     0.2935100000     0.8030000000
    6      C       1.9442300000    -0.5929900000     0.1526200000
    7      O       1.6284000000     0.1366300000    -1.0437600000
    8      H       3.3723400000     2.1378200000    -0.3519500000
    9      H       2.4823600000     2.4248800000     1.1465100000
   10      H       4.0218200000     0.0099400000     0.4116100000
   11      H       3.0735900000     0.1873800000     1.8892800000
   12      C       0.9002800000     2.3907700000    -1.4943000000
   13      C       2.3545000000    -2.0126700000    -0.1681200000
   14      H       3.2631100000    -2.0067800000    -0.7736600000
   15      H       2.5499000000    -2.5705900000     0.7507900000
   16      H       1.5733500000    -2.5289600000    -0.7287200000
   17      H       1.7184500000     2.5818600000    -2.1568600000
   18      H       0.5991900000     3.3047800000    -1.0265000000
   19      H       0.0792500000     1.9865300000    -2.0487400000
   20      H       0.8169300000    -0.4890500000     2.0488700000
   21      H      -0.1252400000    -1.1535600000     0.8184300000
   22      H      -0.7467300000     1.0681100000     0.1336500000
   23      H       0.1555200000     1.7261700000     1.4082800000
   24      GH      5.1014200000     3.6525400000     3.9989000000
   25      GH      5.5049800000     2.1941300000     4.4116600000
   26      GH      6.2088000000     4.0074000000     2.9780400000
   27      GH      7.5094200000     4.3246600000     3.7415000000
   28      GH      7.9220800000     2.9011700000     4.2159500000
   29      GH      6.8229500000     2.0146700000     3.5655700000
   30      GH      6.5071200000     2.7442900000     2.3691900000
   31      GH      8.2510600000     4.7454800000     3.0610000000
   32      GH      7.3610800000     5.0325400000     4.5594600000
   33      GH      8.9005400000     2.6176000000     3.8245600000
   34      GH      7.9523100000     2.7950400000     5.3022300000
   35      GH      5.7790000000     4.9984300000     1.9186500000
   36      GH      7.2332200000     0.5949900000     3.2448300000
   37      GH      8.1418300000     0.6008800000     2.6392900000
   38      GH      7.4286200000     0.0370700000     4.1637400000
   39      GH      6.4520700000     0.0787000000     2.6842300000
   40      GH      6.5971700000     5.1895200000     1.2560900000
   41      GH      5.4779100000     5.9124400000     2.3864500000
   42      GH      4.9579700000     4.5941900000     1.3642100000
   43      GH      5.6956500000     2.1186100000     5.4618200000
   44      GH      4.7534800000     1.4541000000     4.2313800000
   45      GH      4.1319900000     3.6757700000     3.5466000000
   46      GH      5.0342400000     4.3338300000     4.8212300000
 ----------------------------------------------------------------

   12    -388.6329680012      6.94E-09 Convergence criterion met
 Total energy in the final basis set = -388.63296800

                    Orbital Energies (a.u.)
 --------------------------------------------------------------

 Alpha MOs
 -- Occupied --
-19.115 -10.224 -10.221 -10.166 -10.165 -10.162 -10.161 -10.160
-10.151  -1.049  -0.799  -0.789  -0.749  -0.717  -0.652  -0.616
 -0.562  -0.556  -0.486  -0.474  -0.464  -0.444  -0.420  -0.410
 -0.407  -0.402  -0.384  -0.360  -0.346  -0.343  -0.340  -0.333
 -0.316  -0.299  -0.261

          Ground-State Mulliken Net Atomic Charges

     Atom                 Charge (a.u.)
  ----------------------------------------
      1 C                    -0.423678
      2 C                    -0.479305
      3 C                     0.039278
      4 C                    -0.307161
      5 C                    -0.282089
      6 C                     0.089301
      7 O                     0.015706
      8 H                     0.160809
      9 H                     0.082841
     10 H                     0.143323
     11 H                     0.087379
     12 C                    -0.310652
     13 C                    -0.336420
     14 H                     0.151514
     15 H                     0.146399
     16 H                     0.153698
     17 H                     0.142406
     18 H                     0.143209
     19 H                     0.151478
     20 H                     0.137738
     21 H                     0.174172
     22 H                     0.163980
     23 H                     0.145046
     24 GH                   -0.000651
     25 GH                   -0.002554
     26 GH                   -0.004081
     27 GH                   -0.000570
     28 GH                   -0.000899
     29 GH                   -0.004959
     30 GH                   -0.000803
     31 GH                   -0.000036
     32 GH                    0.000005
     33 GH                   -0.000031
     34 GH                    0.000031
     35 GH                    0.002254
     36 GH                    0.003541
     37 GH                    0.000198
     38 GH                   -0.000393
     39 GH                    0.004949
     40 GH                    0.000407
     41 GH                   -0.000445
     42 GH                    0.004825
     43 GH                   -0.000845
     44 GH                    0.006990
     45 GH                    0.004500
     46 GH                   -0.000403
  ----------------------------------------
  Sum of atomic charges =     0.000000

                    Cartesian Multipole Moments
 -----------------------------------------------------------------
    Charge (ESU x 10^10)
                 0.0000
    Dipole Moment (Debye)
         X      -0.0324      Y       0.4300      Z       1.5076
       Tot       1.5681
    Quadrupole Moments (Debye-Ang)
        XX     -56.4632     XY       0.1439     YY     -54.7945
        XZ       2.3938     YZ      -0.4957     ZZ     -59.1123

 Total job time:  194.04s(wall), 768.35s(cpu)
        *  Thank you very much for using Q-Chem.  Have a nice day.  *
