 Q-Chem 5.0, Q-Chem, Inc., Pleasanton, CA (2017)
 Q-Chem 5.0.1 for Intel X86 EM64T Linux

User input:
--------------------------------------------------------------
$molecule
0  1
--
0  1
C        +0.22270000        +1.04488000        +0.58595000
C        +0.62626000        -0.41353000        +0.99871000
C        +1.33008000        +1.39974000        -0.43491000
C        +2.63070000        +1.71700000        +0.32855000
C        +3.04336000        +0.29351000        +0.80300000
C        +1.94423000        -0.59299000        +0.15262000
O        +1.62840000        +0.13663000        -1.04376000
H        +3.37234000        +2.13782000        -0.35195000
H        +2.48236000        +2.42488000        +1.14651000
H        +4.02182000        +0.00994000        +0.41161000
H        +3.07359000        +0.18738000        +1.88928000
C        +0.90028000        +2.39077000        -1.49430000
C        +2.35450000        -2.01267000        -0.16812000
H        +3.26311000        -2.00678000        -0.77366000
H        +2.54990000        -2.57059000        +0.75079000
H        +1.57335000        -2.52896000        -0.72872000
H        +1.71845000        +2.58186000        -2.15686000
H        +0.59919000        +3.30478000        -1.02650000
H        +0.07925000        +1.98653000        -2.04874000
H        +0.81693000        -0.48905000        +2.04887000
H        -0.12524000        -1.15356000        +0.81843000
H        -0.74673000        +1.06811000        +0.13365000
H        +0.15552000        +1.72617000        +1.40828000
--
0  1
C        +2.47442000        +2.24841000        +2.16116000
C        +2.87798000        +0.79000000        +2.57392000
C        +3.58180000        +2.60327000        +1.14030000
C        +4.88242000        +2.92053000        +1.90376000
C        +5.29508000        +1.49704000        +2.37821000
C        +4.19595000        +0.61054000        +1.72783000
O        +3.88012000        +1.34016000        +0.53145000
H        +5.62406000        +3.34135000        +1.22326000
H        +4.73408000        +3.62841000        +2.72172000
H        +6.27354000        +1.21347000        +1.98682000
H        +5.32531000        +1.39091000        +3.46449000
C        +3.15200000        +3.59430000        +0.08091000
C        +4.60622000        -0.80914000        +1.40709000
H        +5.51483000        -0.80325000        +0.80155000
H        +4.80162000        -1.36706000        +2.32600000
H        +3.82507000        -1.32543000        +0.84649000
H        +3.97017000        +3.78539000        -0.58165000
H        +2.85091000        +4.50831000        +0.54871000
H        +2.33097000        +3.19006000        -0.47353000
H        +3.06865000        +0.71448000        +3.62408000
H        +2.12648000        +0.04997000        +2.39364000
H        +1.50499000        +2.27164000        +1.70886000
H        +2.40724000        +2.92970000        +2.98349000
$end

$rem
JOBTYPE                   SP
METHOD                    B3LYP
DFT_D                     d3_op
BASIS                     6-311++G(d,p)
SYMMETRY                  False
THRESH                    12
SCF_CONVERGENCE           8
MAX_SUB_FILE_NUM          128
MEM_STATIC                400
MEM_TOTAL                 4000
$end
--------------------------------------------------------------

             Standard Nuclear Orientation (Angstroms)
    I     Atom           X                Y                Z
 ----------------------------------------------------------------
    1      C       2.0458406466    -0.8057048322     1.2714573903
    2      C       2.1118131628     0.7612453745     1.2939495302
    3      C       1.5469598830    -1.0780325224    -0.1677531004
    4      C       0.0380910634    -0.7726774098    -0.2399376126
    5      C       0.0528362818     0.7818295545    -0.1691878081
    6      C       1.5769330244     1.0881191583    -0.1524860431
    7      O       2.1177660901     0.0007950757    -0.9197180627
    8      H      -0.3705800750    -1.1217633831    -1.1893197779
    9      H      -0.5302538530    -1.2418987375     0.5656508762
   10      H      -0.4004722561     1.2264816708    -1.0567563484
   11      H      -0.4611214534     1.1836084374     0.7063707815
   12      C       2.0047504605    -2.4012119864    -0.7411635697
   13      C       1.9820550827     2.4219892939    -0.7384497812
   14      H       1.5725688364     2.5227040277    -1.7456553572
   15      H       1.6022296853     3.2407962211    -0.1227068495
   16      H       3.0681542388     2.5088299240    -0.8006621155
   17      H       1.6195189397    -2.5124200336    -1.7331982144
   18      H       1.6443947846    -3.1998718753    -0.1270035931
   19      H       3.0740818933    -2.4270983209    -0.7688065913
   20      H       1.4790357071     1.1730271294     2.0521861838
   21      H       3.0775477205     1.1651397509     1.5155880333
   22      H       3.0097304235    -1.2391235410     1.4387121922
   23      H       1.4230508109    -1.2252103617     2.0337196658
   24      C      -0.9514648321    -0.8066448692     1.3986302927
   25      C      -0.8854923159     0.7603053374     1.4211224326
   26      C      -1.4503455957    -1.0789725594    -0.0405801980
   27      C      -2.9592144153    -0.7736174468    -0.1127647102
   28      C      -2.9444691969     0.7808895175    -0.0420149057
   29      C      -1.4203724543     1.0871791213    -0.0253131407
   30      O      -0.8795393886    -0.0001449614    -0.7925451603
   31      H      -3.3678855537    -1.1227034201    -1.0621468755
   32      H      -3.5275593317    -1.2428387745     0.6928237786
   33      H      -3.3977777348     1.2255416337    -0.9295834460
   34      H      -3.4584269321     1.1826684004     0.8335436839
   35      C      -0.9925550182    -2.4021520234    -0.6139906673
   36      C      -1.0152503960     2.4210492568    -0.6112768788
   37      H      -1.4247366423     2.5217639907    -1.6184824548
   38      H      -1.3950757934     3.2398561840     0.0044660529
   39      H       0.0708487601     2.5078898870    -0.6734892131
   40      H      -1.3777865390    -2.5133600706    -1.6060253120
   41      H      -1.3529106941    -3.2008119123     0.0001693093
   42      H       0.0767764146    -2.4280383580    -0.6416336889
   43      H      -1.5182697716     1.1720870924     2.1793590862
   44      H       0.0802422418     1.1641997139     1.6427609357
   45      H       0.0124249448    -1.2400635780     1.5658850946
   46      H      -1.5742546678    -1.2261503987     2.1608925682
 ----------------------------------------------------------------

   17    -775.2797386705      6.16E-09 Convergence criterion met
 Total energy in the final basis set = -775.27973867

                    Orbital Energies (a.u.)
 --------------------------------------------------------------

 Alpha MOs
 -- Occupied --
-19.233 -19.108 -10.300 -10.294 -10.230 -10.230 -10.210 -10.205
-10.176 -10.175 -10.173 -10.173 -10.168 -10.161 -10.160 -10.159
-10.154 -10.151  -1.373  -1.085  -1.042  -1.027  -0.867  -0.852
 -0.823  -0.793  -0.789  -0.731  -0.727  -0.721  -0.692  -0.675
 -0.656  -0.625  -0.608  -0.592  -0.576  -0.560  -0.544  -0.527
 -0.509  -0.490  -0.483  -0.479  -0.461  -0.451  -0.448  -0.445
 -0.427  -0.426  -0.423  -0.422  -0.413  -0.405  -0.396  -0.388
 -0.366  -0.359  -0.356  -0.352  -0.348  -0.342  -0.338  -0.336
 -0.275  -0.259  -0.220  -0.181  -0.109  -0.097

          Ground-State Mulliken Net Atomic Charges

     Atom                 Charge (a.u.)
  ----------------------------------------
      1 C                    -0.144813
      2 C                    -0.157043
      3 C                    -0.573547
      4 C                    -0.013707
      5 C                    -0.217295
      6 C                    -0.316318
      7 O                     0.199454
      8 H                    -0.148117
      9 H                     0.408848
     10 H                    -0.022450
     11 H                     0.469250
     12 C                    -0.413157
     13 C                    -0.531215
     14 H                     0.151201
     15 H                     0.155319
     16 H                     0.174264
     17 H                     0.138498
     18 H                     0.149537
     19 H                     0.168994
     20 H                     0.166095
     21 H                     0.194426
     22 H                     0.188107
     23 H                     0.171224
     24 C                    -0.500881
     25 C                    -0.456818
     26 C                    -0.263977
     27 C                    -0.182170
     28 C                    -0.265429
     29 C                    -0.156470
     30 O                     0.955107
     31 H                     0.157512
     32 H                     0.116894
     33 H                     0.165384
     34 H                     0.110499
     35 C                    -0.579775
     36 C                    -0.656456
     37 H                     0.190439
     38 H                     0.064334
     39 H                     0.224128
     40 H                     0.202231
     41 H                     0.042463
     42 H                     0.228196
     43 H                     0.110609
     44 H                     0.108680
     45 H                     0.083946
     46 H                     0.104000
  ----------------------------------------
  Sum of atomic charges =     0.000000

                    Cartesian Multipole Moments
 -----------------------------------------------------------------
    Charge (ESU x 10^10)
                 0.0000
    Dipole Moment (Debye)
         X      -0.4960      Y       0.0814      Z       1.9812
       Tot       2.0440
    Quadrupole Moments (Debye-Ang)
        XX    -126.5125     XY       0.1757     YY    -120.5094
        XZ       7.3053     YZ      -0.1644     ZZ    -119.7128

 Total job time:  649.34s(wall), 2580.71s(cpu)
        *  Thank you very much for using Q-Chem.  Have a nice day.  *
