 Q-Chem 5.0, Q-Chem, Inc., Pleasanton, CA (2017)
 Q-Chem 5.0.1 for Intel X86 EM64T Linux

User input:
--------------------------------------------------------------
$molecule
0  1
--
0  1
C        +0.22270000        +1.04488000        +0.58595000
C        +0.62626000        -0.41353000        +0.99871000
C        +1.33008000        +1.39974000        -0.43491000
C        +2.63070000        +1.71700000        +0.32855000
C        +3.04336000        +0.29351000        +0.80300000
C        +1.94423000        -0.59299000        +0.15262000
O        +1.62840000        +0.13663000        -1.04376000
H        +3.37234000        +2.13782000        -0.35195000
H        +2.48236000        +2.42488000        +1.14651000
H        +4.02182000        +0.00994000        +0.41161000
H        +3.07359000        +0.18738000        +1.88928000
C        +0.90028000        +2.39077000        -1.49430000
C        +2.35450000        -2.01267000        -0.16812000
H        +3.26311000        -2.00678000        -0.77366000
H        +2.54990000        -2.57059000        +0.75079000
H        +1.57335000        -2.52896000        -0.72872000
H        +1.71845000        +2.58186000        -2.15686000
H        +0.59919000        +3.30478000        -1.02650000
H        +0.07925000        +1.98653000        -2.04874000
H        +0.81693000        -0.48905000        +2.04887000
H        -0.12524000        -1.15356000        +0.81843000
H        -0.74673000        +1.06811000        +0.13365000
H        +0.15552000        +1.72617000        +1.40828000
--
0  1
C        +5.10142000        +3.65254000        +3.99890000
C        +5.50498000        +2.19413000        +4.41166000
C        +6.20880000        +4.00740000        +2.97804000
C        +7.50942000        +4.32466000        +3.74150000
C        +7.92208000        +2.90117000        +4.21595000
C        +6.82295000        +2.01467000        +3.56557000
O        +6.50712000        +2.74429000        +2.36919000
H        +8.25106000        +4.74548000        +3.06100000
H        +7.36108000        +5.03254000        +4.55946000
H        +8.90054000        +2.61760000        +3.82456000
H        +7.95231000        +2.79504000        +5.30223000
C        +5.77900000        +4.99843000        +1.91865000
C        +7.23322000        +0.59499000        +3.24483000
H        +8.14183000        +0.60088000        +2.63929000
H        +7.42862000        +0.03707000        +4.16374000
H        +6.45207000        +0.07870000        +2.68423000
H        +6.59717000        +5.18952000        +1.25609000
H        +5.47791000        +5.91244000        +2.38645000
H        +4.95797000        +4.59419000        +1.36421000
H        +5.69565000        +2.11861000        +5.46182000
H        +4.75348000        +1.45410000        +4.23138000
H        +4.13199000        +3.67577000        +3.54660000
H        +5.03424000        +4.33383000        +4.82123000
$end

$rem
JOBTYPE                   SP
METHOD                    B3LYP
DFT_D                     d3_op
BASIS                     6-311++G(d,p)
SYMMETRY                  False
THRESH                    12
SCF_CONVERGENCE           8
MAX_SUB_FILE_NUM          128
MEM_STATIC                400
MEM_TOTAL                 4000
$end
--------------------------------------------------------------

             Standard Nuclear Orientation (Angstroms)
    I     Atom           X                Y                Z
 ----------------------------------------------------------------
    1      C       3.7521332028    -0.8062444360     1.3227469506
    2      C       3.8177692199     0.7606866544     1.3474469649
    3      C       3.3013005017    -1.0784183330    -0.1322590525
    4      C       1.7957531303    -0.7726308732    -0.2545644311
    5      C       1.8085821733     0.7818712662    -0.1833368211
    6      C       3.3313684951     1.0877245644    -0.1159667295
    7      O       3.8971003161     0.0002516217    -0.8648119359
    8      H       1.4187727075    -1.1215926145    -1.2170149888
    9      H       1.2008046064    -1.2416956972     0.5316746269
   10      H       1.3851607101     1.2266598834    -1.0854783838
   11      H       1.2659133370     1.1837905172     0.6746568374
   12      C       3.7775242785    -2.4017243655    -0.6901548600
   13      C       3.7561295334     2.4214831913    -0.6881143577
   14      H       3.3803854717     2.5223228145    -1.7083757390
   15      H       3.3562762518     3.2403940717    -0.0853260054
   16      H       4.8437214134     2.5080134746    -0.7141807992
   17      H       3.4254565770    -2.5128145719    -1.6944509270
   18      H       3.3967203643    -3.2002857947    -0.0883290289
   19      H       4.8471761511    -2.4279165082    -0.6822305188
   20      H       3.1602498694     1.1726436785     2.0842332697
   21      H       4.7757163406     1.1643029449     1.6010780617
   22      H       4.7098054049    -1.2399402523     1.5219487077
   23      H       3.1042245541    -1.2255775513     2.0638744475
   24      C      -2.7475967829    -0.8064388182     1.3822220919
   25      C      -2.6819607657     0.7604922721     1.4069221062
   26      C      -3.1984294840    -1.0786127153    -0.0727839112
   27      C      -4.7039768553    -0.7728252555    -0.1950892898
   28      C      -4.6911478124     0.7816768839    -0.1238616798
   29      C      -3.1683614905     1.0875301821    -0.0564915882
   30      O      -2.6026296696     0.0000572394    -0.8053367946
   31      H      -5.0809572781    -1.1217869967    -1.1575398475
   32      H      -5.2989253793    -1.2418900795     0.5911497682
   33      H      -5.1145692755     1.2264655011    -1.0260032425
   34      H      -5.2338166487     1.1835961349     0.7341319787
   35      C      -2.7222057072    -2.4019187477    -0.6306797187
   36      C      -2.7436004522     2.4212888090    -0.6286392164
   37      H      -3.1193445139     2.5221284322    -1.6489005977
   38      H      -3.1434537339     3.2401996894    -0.0258508641
   39      H      -1.6560085723     2.5078190923    -0.6547056579
   40      H      -3.0742734087    -2.5130089542    -1.6349757857
   41      H      -3.1030096213    -3.2004801769    -0.0288538876
   42      H      -1.6525538346    -2.4281108905    -0.6227553775
   43      H      -3.3394801163     1.1724492962     2.1437084110
   44      H      -1.7240136450     1.1641085626     1.6605532030
   45      H      -1.7899245808    -1.2401346346     1.5814238490
   46      H      -3.3955054315    -1.2257719335     2.1233495888
 ----------------------------------------------------------------

   13    -777.2677749980      3.76E-09 Convergence criterion met
 Total energy in the final basis set = -777.26777500

                    Orbital Energies (a.u.)
 --------------------------------------------------------------

 Alpha MOs
 -- Occupied --
-19.116 -19.112 -10.226 -10.222 -10.221 -10.218 -10.168 -10.167
-10.164 -10.163 -10.162 -10.161 -10.161 -10.160 -10.159 -10.157
-10.153 -10.149  -1.051  -1.046  -0.801  -0.796  -0.790  -0.786
 -0.751  -0.745  -0.719  -0.715  -0.654  -0.649  -0.618  -0.613
 -0.564  -0.559  -0.557  -0.552  -0.488  -0.483  -0.476  -0.471
 -0.466  -0.461  -0.446  -0.441  -0.422  -0.417  -0.412  -0.408
 -0.407  -0.404  -0.404  -0.398  -0.386  -0.381  -0.362  -0.357
 -0.348  -0.345  -0.344  -0.342  -0.340  -0.337  -0.335  -0.330
 -0.318  -0.313  -0.301  -0.296  -0.263  -0.258

          Ground-State Mulliken Net Atomic Charges

     Atom                 Charge (a.u.)
  ----------------------------------------
      1 C                    -0.425913
      2 C                    -0.480031
      3 C                     0.047047
      4 C                    -0.316535
      5 C                    -0.296657
      6 C                     0.091859
      7 O                     0.014245
      8 H                     0.166154
      9 H                     0.071697
     10 H                     0.146406
     11 H                     0.076747
     12 C                    -0.304156
     13 C                    -0.326325
     14 H                     0.152955
     15 H                     0.145129
     16 H                     0.152569
     17 H                     0.143899
     18 H                     0.142168
     19 H                     0.150272
     20 H                     0.136674
     21 H                     0.173237
     22 H                     0.163498
     23 H                     0.144055
     24 C                    -0.296151
     25 C                    -0.389030
     26 C                     0.197713
     27 C                    -0.626346
     28 C                    -0.505461
     29 C                     0.187030
     30 O                     0.004588
     31 H                     0.156827
     32 H                     0.139021
     33 H                     0.158937
     34 H                     0.139649
     35 C                    -0.258804
     36 C                    -0.360062
     37 H                     0.152963
     38 H                     0.145738
     39 H                     0.149217
     40 H                     0.149190
     41 H                     0.142326
     42 H                     0.143703
     43 H                     0.145917
     44 H                     0.159057
     45 H                     0.132984
     46 H                     0.162001
  ----------------------------------------
  Sum of atomic charges =     0.000000

                    Cartesian Multipole Moments
 -----------------------------------------------------------------
    Charge (ESU x 10^10)
                 0.0000
    Dipole Moment (Debye)
         X      -2.0209      Y       0.0159      Z       2.3925
       Tot       3.1318
    Quadrupole Moments (Debye-Ang)
        XX    -115.8249     XY       0.2070     YY    -109.5743
        XZ       2.6792     YZ      -0.2252     ZZ    -116.2338

 Total job time:  211.54s(wall), 838.27s(cpu)
        *  Thank you very much for using Q-Chem.  Have a nice day.  *
