 Q-Chem 5.0, Q-Chem, Inc., Pleasanton, CA (2017)
 Q-Chem 5.0.1 for Intel X86 EM64T Linux

User input:
--------------------------------------------------------------
$molecule
0  1
--
0  1
C        +0.22270000        +1.04488000        +0.58595000
C        +0.62626000        -0.41353000        +0.99871000
C        +1.33008000        +1.39974000        -0.43491000
C        +2.63070000        +1.71700000        +0.32855000
C        +3.04336000        +0.29351000        +0.80300000
C        +1.94423000        -0.59299000        +0.15262000
O        +1.62840000        +0.13663000        -1.04376000
H        +3.37234000        +2.13782000        -0.35195000
H        +2.48236000        +2.42488000        +1.14651000
H        +4.02182000        +0.00994000        +0.41161000
H        +3.07359000        +0.18738000        +1.88928000
C        +0.90028000        +2.39077000        -1.49430000
C        +2.35450000        -2.01267000        -0.16812000
H        +3.26311000        -2.00678000        -0.77366000
H        +2.54990000        -2.57059000        +0.75079000
H        +1.57335000        -2.52896000        -0.72872000
H        +1.71845000        +2.58186000        -2.15686000
H        +0.59919000        +3.30478000        -1.02650000
H        +0.07925000        +1.98653000        -2.04874000
H        +0.81693000        -0.48905000        +2.04887000
H        -0.12524000        -1.15356000        +0.81843000
H        -0.74673000        +1.06811000        +0.13365000
H        +0.15552000        +1.72617000        +1.40828000
--
0  1
C        +3.82545000        +2.97053000        +3.10628000
C        +4.22901000        +1.51212000        +3.51904000
C        +4.93283000        +3.32539000        +2.08542000
C        +6.23345000        +3.64265000        +2.84888000
C        +6.64611000        +2.21916000        +3.32333000
C        +5.54698000        +1.33266000        +2.67295000
O        +5.23115000        +2.06228000        +1.47657000
H        +6.97509000        +4.06347000        +2.16838000
H        +6.08511000        +4.35053000        +3.66684000
H        +7.62457000        +1.93559000        +2.93194000
H        +6.67634000        +2.11303000        +4.40961000
C        +4.50303000        +4.31642000        +1.02603000
C        +5.95725000        -0.08702000        +2.35221000
H        +6.86586000        -0.08113000        +1.74667000
H        +6.15265000        -0.64494000        +3.27112000
H        +5.17610000        -0.60331000        +1.79161000
H        +5.32120000        +4.50751000        +0.36347000
H        +4.20194000        +5.23043000        +1.49383000
H        +3.68200000        +3.91218000        +0.47159000
H        +4.41968000        +1.43660000        +4.56920000
H        +3.47751000        +0.77209000        +3.33876000
H        +2.85602000        +2.99376000        +2.65398000
H        +3.75827000        +3.65182000        +3.92861000
$end

$rem
JOBTYPE                   SP
METHOD                    B3LYP
DFT_D                     d3_op
BASIS                     6-311++G(d,p)
SYMMETRY                  False
THRESH                    12
SCF_CONVERGENCE           8
MAX_SUB_FILE_NUM          128
MEM_STATIC                400
MEM_TOTAL                 4000
$end
--------------------------------------------------------------

             Standard Nuclear Orientation (Angstroms)
    I     Atom           X                Y                Z
 ----------------------------------------------------------------
    1      C       2.9122041361    -0.8061704240     1.3084763546
    2      C       2.9779716946     0.7607629742     1.3326749738
    3      C       2.4503573952    -1.0783628349    -0.1430676864
    4      C       0.9439151129    -0.7726274161    -0.2539503612
    5      C       0.9572305609     0.7818753108    -0.1828249158
    6      C       2.4804735594     1.0877811292    -0.1270078110
    7      O       3.0405464578     0.0003261001    -0.8801206484
    8      H       0.5596572538    -1.1216041131    -1.2135131651
    9      H       0.3549635534    -1.2417110806     0.5367796735
   10      H       0.5269631324     1.2266474989    -1.0817296323
   11      H       0.4210714782     1.1837776674     0.6792595359
   12      C       2.9223813116    -2.4016536379    -0.7045572641
   13      C       2.9008366789     2.4215531842    -0.7023632454
   14      H       2.5173611651     2.5223777745    -1.7197453998
   15      H       2.5055389330     3.2404515553    -0.0965607821
   16      H       3.9881965766     2.5081208248    -0.7366785937
   17      H       2.5627098686    -2.5127580298    -1.7061537686
   18      H       2.5461807464    -3.2002269222    -0.0998588662
   19      H       3.9920634209    -2.4278089702    -0.7047465272
   20      H       2.3260456856     1.1726989028     2.0744266939
   21      H       3.9378011865     1.1644127401     1.5790319146
   22      H       3.8713746792    -1.2398328864     1.5004091183
   23      H       2.2699500880    -1.2255242948     2.0544977445
   24      C      -1.8871236390    -0.8064726863     1.3887982682
   25      C      -1.8213560805     0.7604607119     1.4129968874
   26      C      -2.3489703799    -1.0786650972    -0.0627457728
   27      C      -3.8554126622    -0.7729296784    -0.1736284476
   28      C      -3.8420972142     0.7815730485    -0.1025030023
   29      C      -2.3188542157     1.0874788669    -0.0466858975
   30      O      -1.7587813173     0.0000238378    -0.7997987349
   31      H      -4.2396705213    -1.1219063754    -1.1331912515
   32      H      -4.4443642217    -1.2420133429     0.6171015871
   33      H      -4.2723646427     1.2263452366    -1.0014077187
   34      H      -4.3782562969     1.1834754051     0.7595814495
   35      C      -1.8769464635    -2.4019559002    -0.6242353506
   36      C      -1.8984910962     2.4212509219    -0.6220413318
   37      H      -2.2819666100     2.5220755123    -1.6394234862
   38      H      -2.2937888421     3.2401492930    -0.0162388686
   39      H      -0.8111311985     2.5078185625    -0.6563566802
   40      H      -2.2366179065    -2.5130602921    -1.6258318551
   41      H      -2.2531470287    -3.2005291845    -0.0195369526
   42      H      -0.8072643542    -2.4281112325    -0.6244246137
   43      H      -2.4732820895     1.1723966405     2.1547486075
   44      H      -0.8615265886     1.1641104778     1.6593538281
   45      H      -0.9279530958    -1.2401351487     1.5807310318
   46      H      -2.5293776871    -1.2258265571     2.1348196580
 ----------------------------------------------------------------

   13    -777.2498590206      6.13E-09 Convergence criterion met
 Total energy in the final basis set = -777.24985902

                    Orbital Energies (a.u.)
 --------------------------------------------------------------

 Alpha MOs
 -- Occupied --
-19.117 -19.107 -10.229 -10.225 -10.216 -10.212 -10.169 -10.169
-10.166 -10.165 -10.161 -10.157 -10.156 -10.155 -10.153 -10.152
-10.152 -10.146  -1.054  -1.041  -0.804  -0.793  -0.792  -0.782
 -0.755  -0.740  -0.721  -0.712  -0.656  -0.647  -0.624  -0.608
 -0.567  -0.565  -0.557  -0.546  -0.496  -0.487  -0.474  -0.469
 -0.468  -0.454  -0.451  -0.438  -0.424  -0.419  -0.415  -0.412
 -0.408  -0.403  -0.398  -0.395  -0.388  -0.375  -0.364  -0.355
 -0.352  -0.350  -0.346  -0.341  -0.339  -0.332  -0.330  -0.323
 -0.317  -0.308  -0.298  -0.290  -0.267  -0.250

          Ground-State Mulliken Net Atomic Charges

     Atom                 Charge (a.u.)
  ----------------------------------------
      1 C                    -0.420214
      2 C                    -0.447991
      3 C                    -0.169807
      4 C                    -0.130184
      5 C                    -0.127317
      6 C                    -0.232896
      7 O                     0.060855
      8 H                     0.214425
      9 H                    -0.077592
     10 H                     0.191735
     11 H                    -0.031923
     12 C                    -0.265226
     13 C                    -0.284930
     14 H                     0.151898
     15 H                     0.153253
     16 H                     0.162622
     17 H                     0.141168
     18 H                     0.149275
     19 H                     0.161229
     20 H                     0.124043
     21 H                     0.172854
     22 H                     0.159205
     23 H                     0.137221
     24 C                    -0.337633
     25 C                    -0.359579
     26 C                     0.066548
     27 C                    -0.545092
     28 C                    -0.516072
     29 C                     0.135192
     30 O                     0.126018
     31 H                     0.157175
     32 H                     0.138110
     33 H                     0.160845
     34 H                     0.134882
     35 C                    -0.224456
     36 C                    -0.304181
     37 H                     0.158254
     38 H                     0.150641
     39 H                     0.131335
     40 H                     0.156146
     41 H                     0.147722
     42 H                     0.123542
     43 H                     0.175313
     44 H                     0.182650
     45 H                     0.163375
     46 H                     0.187562
  ----------------------------------------
  Sum of atomic charges =     0.000000

                    Cartesian Multipole Moments
 -----------------------------------------------------------------
    Charge (ESU x 10^10)
                 0.0000
    Dipole Moment (Debye)
         X      -2.3045      Y       0.0266      Z       2.2881
       Tot       3.2476
    Quadrupole Moments (Debye-Ang)
        XX    -116.8531     XY       0.1777     YY    -110.1584
        XZ       2.5856     YZ      -0.2197     ZZ    -116.3150

 Total job time:  285.07s(wall), 1129.80s(cpu)
        *  Thank you very much for using Q-Chem.  Have a nice day.  *
