 Q-Chem 5.0, Q-Chem, Inc., Pleasanton, CA (2017)
 Q-Chem 5.0.1 for Intel X86 EM64T Linux

User input:
--------------------------------------------------------------
$molecule
0  1
C        -0.54444000        -0.68370000        -0.06689000
C        -0.55709000        +0.71878000        +0.05493000
C        -1.74320000        -1.41616000        -0.12552000
C        -2.93952000        -0.70056000        -0.05285000
C        -2.95313000        +0.68255000        +0.06934000
C        -1.77161000        +1.42404000        +0.12810000
H        -3.90354000        +1.20325000        +0.11710000
H        -3.87892000        -1.24211000        -0.08988000
C        -1.83960000        +2.92746000        +0.24839000
H        -1.24214000        +3.42352000        -0.52065000
H        -1.45503000        +3.26427000        +1.21284000
H        -2.87211000        +3.26623000        +0.14638000
H        -1.73878000        -2.44393000        -0.21875000
H        +0.35825000        -1.18166000        -0.11386000
H        +0.33551000        +1.23549000        +0.09097000
@C        -0.76659000        -1.14844000        +6.41267000
@C        -0.77924000        +0.25404000        +6.53449000
@C        -1.96535000        -1.88090000        +6.35404000
@C        -3.16167000        -1.16530000        +6.42671000
@C        -3.17528000        +0.21781000        +6.54890000
@C        -1.99376000        +0.95930000        +6.60766000
@H        -4.12569000        +0.73851000        +6.59666000
@H        -4.10107000        -1.70685000        +6.38968000
@C        -2.06175000        +2.46272000        +6.72795000
@H        -1.46429000        +2.95878000        +5.95891000
@H        -1.67718000        +2.79953000        +7.69240000
@H        -3.09426000        +2.80149000        +6.62594000
@H        -1.96093000        -2.90867000        +6.26081000
@H        +0.13610000        -1.64640000        +6.36570000
@H        +0.11336000        +0.77075000        +6.57053000
$end

$rem
JOBTYPE                   SP
METHOD                    B3LYP
DFT_D                     d3_op
BASIS                     6-311++G(d,p)
SYMMETRY                  False
THRESH                    12
SCF_CONVERGENCE           8
MAX_SUB_FILE_NUM          128
MEM_STATIC                400
MEM_TOTAL                 4000
$end
--------------------------------------------------------------

             Standard Nuclear Orientation (Angstroms)
    I     Atom           X                Y                Z
 ----------------------------------------------------------------
    1      C      -0.5444400000    -0.6837000000    -0.0668900000
    2      C      -0.5570900000     0.7187800000     0.0549300000
    3      C      -1.7432000000    -1.4161600000    -0.1255200000
    4      C      -2.9395200000    -0.7005600000    -0.0528500000
    5      C      -2.9531300000     0.6825500000     0.0693400000
    6      C      -1.7716100000     1.4240400000     0.1281000000
    7      H      -3.9035400000     1.2032500000     0.1171000000
    8      H      -3.8789200000    -1.2421100000    -0.0898800000
    9      C      -1.8396000000     2.9274600000     0.2483900000
   10      H      -1.2421400000     3.4235200000    -0.5206500000
   11      H      -1.4550300000     3.2642700000     1.2128400000
   12      H      -2.8721100000     3.2662300000     0.1463800000
   13      H      -1.7387800000    -2.4439300000    -0.2187500000
   14      H       0.3582500000    -1.1816600000    -0.1138600000
   15      H       0.3355100000     1.2354900000     0.0909700000
   16      GH     -0.7665900000    -1.1484400000     6.4126700000
   17      GH     -0.7792400000     0.2540400000     6.5344900000
   18      GH     -1.9653500000    -1.8809000000     6.3540400000
   19      GH     -3.1616700000    -1.1653000000     6.4267100000
   20      GH     -3.1752800000     0.2178100000     6.5489000000
   21      GH     -1.9937600000     0.9593000000     6.6076600000
   22      GH     -4.1256900000     0.7385100000     6.5966600000
   23      GH     -4.1010700000    -1.7068500000     6.3896800000
   24      GH     -2.0617500000     2.4627200000     6.7279500000
   25      GH     -1.4642900000     2.9587800000     5.9589100000
   26      GH     -1.6771800000     2.7995300000     7.6924000000
   27      GH     -3.0942600000     2.8014900000     6.6259400000
   28      GH     -1.9609300000    -2.9086700000     6.2608100000
   29      GH      0.1361000000    -1.6464000000     6.3657000000
   30      GH      0.1133600000     0.7707500000     6.5705300000
 ----------------------------------------------------------------

   12    -271.6435685498      9.54E-09 Convergence criterion met
 Total energy in the final basis set = -271.64356855

                    Orbital Energies (a.u.)
 --------------------------------------------------------------

 Alpha MOs
 -- Occupied --
-10.185 -10.174 -10.172 -10.171 -10.170 -10.169 -10.169  -0.858
 -0.776  -0.748  -0.691  -0.611  -0.591  -0.521  -0.465  -0.463
 -0.424  -0.423  -0.418  -0.390  -0.358  -0.350  -0.342  -0.255
 -0.247

          Ground-State Mulliken Net Atomic Charges

     Atom                 Charge (a.u.)
  ----------------------------------------
      1 C                    -0.003489
      2 C                    -0.424840
      3 C                    -0.347141
      4 C                    -0.025376
      5 C                    -0.824069
      6 C                     1.008112
      7 H                     0.127224
      8 H                     0.171410
      9 C                    -0.592731
     10 H                     0.147307
     11 H                     0.154917
     12 H                     0.148888
     13 H                     0.145855
     14 H                     0.159631
     15 H                     0.155009
     16 GH                    0.000844
     17 GH                   -0.000794
     18 GH                    0.000896
     19 GH                    0.000030
     20 GH                   -0.003562
     21 GH                    0.001971
     22 GH                   -0.000416
     23 GH                   -0.000159
     24 GH                    0.000803
     25 GH                    0.000236
     26 GH                    0.000015
     27 GH                    0.000041
     28 GH                   -0.000002
     29 GH                   -0.000198
     30 GH                   -0.000412
  ----------------------------------------
  Sum of atomic charges =     0.000000

                    Cartesian Multipole Moments
 -----------------------------------------------------------------
    Charge (ESU x 10^10)
                 0.0000
    Dipole Moment (Debye)
         X       0.0622      Y       0.3881      Z       0.0347
       Tot       0.3946
    Quadrupole Moments (Debye-Ang)
        XX     -39.3505     XY      -0.6317     YY     -38.0675
        XZ      -0.0911     YZ       0.7300     ZZ     -46.4228

 Total job time:  53.23s(wall), 211.68s(cpu)
        *  Thank you very much for using Q-Chem.  Have a nice day.  *
