 Q-Chem 5.0, Q-Chem, Inc., Pleasanton, CA (2017)
 Q-Chem 5.0.1 for Intel X86 EM64T Linux

User input:
--------------------------------------------------------------
$molecule
0  1
C        -0.54444000        -0.68370000        -0.06689000
C        -0.55709000        +0.71878000        +0.05493000
C        -1.74320000        -1.41616000        -0.12552000
C        -2.93952000        -0.70056000        -0.05285000
C        -2.95313000        +0.68255000        +0.06934000
C        -1.77161000        +1.42404000        +0.12810000
H        -3.90354000        +1.20325000        +0.11710000
H        -3.87892000        -1.24211000        -0.08988000
C        -1.83960000        +2.92746000        +0.24839000
H        -1.24214000        +3.42352000        -0.52065000
H        -1.45503000        +3.26427000        +1.21284000
H        -2.87211000        +3.26623000        +0.14638000
H        -1.73878000        -2.44393000        -0.21875000
H        +0.35825000        -1.18166000        -0.11386000
H        +0.33551000        +1.23549000        +0.09097000
@C        -0.51141000        -1.10222000        +4.71472000
@C        -0.52406000        +0.30026000        +4.83654000
@C        -1.71017000        -1.83468000        +4.65609000
@C        -2.90649000        -1.11908000        +4.72876000
@C        -2.92010000        +0.26403000        +4.85095000
@C        -1.73858000        +1.00552000        +4.90971000
@H        -3.87051000        +0.78473000        +4.89871000
@H        -3.84589000        -1.66063000        +4.69173000
@C        -1.80657000        +2.50894000        +5.03000000
@H        -1.20911000        +3.00500000        +4.26096000
@H        -1.42200000        +2.84575000        +5.99445000
@H        -2.83908000        +2.84771000        +4.92799000
@H        -1.70575000        -2.86245000        +4.56286000
@H        +0.39128000        -1.60018000        +4.66775000
@H        +0.36854000        +0.81697000        +4.87258000
$end

$rem
JOBTYPE                   SP
METHOD                    B3LYP
DFT_D                     d3_op
BASIS                     6-311++G(d,p)
SYMMETRY                  False
THRESH                    12
SCF_CONVERGENCE           8
MAX_SUB_FILE_NUM          128
MEM_STATIC                400
MEM_TOTAL                 4000
$end
--------------------------------------------------------------

             Standard Nuclear Orientation (Angstroms)
    I     Atom           X                Y                Z
 ----------------------------------------------------------------
    1      C      -0.5444400000    -0.6837000000    -0.0668900000
    2      C      -0.5570900000     0.7187800000     0.0549300000
    3      C      -1.7432000000    -1.4161600000    -0.1255200000
    4      C      -2.9395200000    -0.7005600000    -0.0528500000
    5      C      -2.9531300000     0.6825500000     0.0693400000
    6      C      -1.7716100000     1.4240400000     0.1281000000
    7      H      -3.9035400000     1.2032500000     0.1171000000
    8      H      -3.8789200000    -1.2421100000    -0.0898800000
    9      C      -1.8396000000     2.9274600000     0.2483900000
   10      H      -1.2421400000     3.4235200000    -0.5206500000
   11      H      -1.4550300000     3.2642700000     1.2128400000
   12      H      -2.8721100000     3.2662300000     0.1463800000
   13      H      -1.7387800000    -2.4439300000    -0.2187500000
   14      H       0.3582500000    -1.1816600000    -0.1138600000
   15      H       0.3355100000     1.2354900000     0.0909700000
   16      GH     -0.5114100000    -1.1022200000     4.7147200000
   17      GH     -0.5240600000     0.3002600000     4.8365400000
   18      GH     -1.7101700000    -1.8346800000     4.6560900000
   19      GH     -2.9064900000    -1.1190800000     4.7287600000
   20      GH     -2.9201000000     0.2640300000     4.8509500000
   21      GH     -1.7385800000     1.0055200000     4.9097100000
   22      GH     -3.8705100000     0.7847300000     4.8987100000
   23      GH     -3.8458900000    -1.6606300000     4.6917300000
   24      GH     -1.8065700000     2.5089400000     5.0300000000
   25      GH     -1.2091100000     3.0050000000     4.2609600000
   26      GH     -1.4220000000     2.8457500000     5.9944500000
   27      GH     -2.8390800000     2.8477100000     4.9279900000
   28      GH     -1.7057500000    -2.8624500000     4.5628600000
   29      GH      0.3912800000    -1.6001800000     4.6677500000
   30      GH      0.3685400000     0.8169700000     4.8725800000
 ----------------------------------------------------------------

   12    -271.6436930188      9.82E-09 Convergence criterion met
 Total energy in the final basis set = -271.64369302

                    Orbital Energies (a.u.)
 --------------------------------------------------------------

 Alpha MOs
 -- Occupied --
-10.185 -10.174 -10.172 -10.171 -10.170 -10.169 -10.169  -0.858
 -0.776  -0.747  -0.691  -0.611  -0.591  -0.521  -0.465  -0.462
 -0.424  -0.423  -0.418  -0.390  -0.358  -0.350  -0.342  -0.255
 -0.247

          Ground-State Mulliken Net Atomic Charges

     Atom                 Charge (a.u.)
  ----------------------------------------
      1 C                    -0.071976
      2 C                    -0.427897
      3 C                    -0.333852
      4 C                    -0.125334
      5 C                    -0.538946
      6 C                     0.918530
      7 H                     0.151903
      8 H                     0.168868
      9 C                    -0.661105
     10 H                     0.147198
     11 H                     0.162703
     12 H                     0.143035
     13 H                     0.150793
     14 H                     0.159981
     15 H                     0.168792
     16 GH                   -0.026644
     17 GH                    0.032409
     18 GH                    0.028154
     19 GH                   -0.026373
     20 GH                   -0.003179
     21 GH                   -0.021913
     22 GH                   -0.000205
     23 GH                    0.000049
     24 GH                    0.002833
     25 GH                   -0.001848
     26 GH                   -0.000584
     27 GH                    0.001524
     28 GH                    0.002322
     29 GH                   -0.000447
     30 GH                    0.001209
  ----------------------------------------
  Sum of atomic charges =     0.000000

                    Cartesian Multipole Moments
 -----------------------------------------------------------------
    Charge (ESU x 10^10)
                 0.0000
    Dipole Moment (Debye)
         X       0.0619      Y       0.3865      Z       0.0420
       Tot       0.3937
    Quadrupole Moments (Debye-Ang)
        XX     -39.3644     XY      -0.6290     YY     -38.0831
        XZ      -0.1057     YZ       0.7260     ZZ     -46.3977

 Total job time:  80.35s(wall), 320.16s(cpu)
        *  Thank you very much for using Q-Chem.  Have a nice day.  *
