 Q-Chem 5.0, Q-Chem, Inc., Pleasanton, CA (2017)
 Q-Chem 5.0.1 for Intel X86 EM64T Linux

User input:
--------------------------------------------------------------
$molecule
0  1
C        -0.54444000        -0.68370000        -0.06689000
C        -0.55709000        +0.71878000        +0.05493000
C        -1.74320000        -1.41616000        -0.12552000
C        -2.93952000        -0.70056000        -0.05285000
C        -2.95313000        +0.68255000        +0.06934000
C        -1.77161000        +1.42404000        +0.12810000
H        -3.90354000        +1.20325000        +0.11710000
H        -3.87892000        -1.24211000        -0.08988000
C        -1.83960000        +2.92746000        +0.24839000
H        -1.24214000        +3.42352000        -0.52065000
H        -1.45503000        +3.26427000        +1.21284000
H        -2.87211000        +3.26623000        +0.14638000
H        -1.73878000        -2.44393000        -0.21875000
H        +0.35825000        -1.18166000        -0.11386000
H        +0.33551000        +1.23549000        +0.09097000
@C        -0.70849000        -1.02689000        +4.71801000
@C        -0.72114000        +0.37559000        +4.83983000
@C        -1.90725000        -1.75935000        +4.65938000
@C        -3.10357000        -1.04375000        +4.73205000
@C        -3.11718000        +0.33936000        +4.85424000
@C        -1.93566000        +1.08085000        +4.91300000
@H        -4.06759000        +0.86006000        +4.90200000
@H        -4.04297000        -1.58530000        +4.69502000
@C        -2.00365000        +2.58427000        +5.03329000
@H        -1.40619000        +3.08033000        +4.26425000
@H        -1.61908000        +2.92108000        +5.99774000
@H        -3.03616000        +2.92304000        +4.93128000
@H        -1.90283000        -2.78712000        +4.56615000
@H        +0.19420000        -1.52485000        +4.67104000
@H        +0.17146000        +0.89230000        +4.87587000
$end

$rem
JOBTYPE                   SP
METHOD                    B3LYP
DFT_D                     d3_op
BASIS                     6-311++G(d,p)
SYMMETRY                  False
THRESH                    12
SCF_CONVERGENCE           8
MAX_SUB_FILE_NUM          128
MEM_STATIC                400
MEM_TOTAL                 4000
$end
--------------------------------------------------------------

             Standard Nuclear Orientation (Angstroms)
    I     Atom           X                Y                Z
 ----------------------------------------------------------------
    1      C      -0.5444400000    -0.6837000000    -0.0668900000
    2      C      -0.5570900000     0.7187800000     0.0549300000
    3      C      -1.7432000000    -1.4161600000    -0.1255200000
    4      C      -2.9395200000    -0.7005600000    -0.0528500000
    5      C      -2.9531300000     0.6825500000     0.0693400000
    6      C      -1.7716100000     1.4240400000     0.1281000000
    7      H      -3.9035400000     1.2032500000     0.1171000000
    8      H      -3.8789200000    -1.2421100000    -0.0898800000
    9      C      -1.8396000000     2.9274600000     0.2483900000
   10      H      -1.2421400000     3.4235200000    -0.5206500000
   11      H      -1.4550300000     3.2642700000     1.2128400000
   12      H      -2.8721100000     3.2662300000     0.1463800000
   13      H      -1.7387800000    -2.4439300000    -0.2187500000
   14      H       0.3582500000    -1.1816600000    -0.1138600000
   15      H       0.3355100000     1.2354900000     0.0909700000
   16      GH     -0.7084900000    -1.0268900000     4.7180100000
   17      GH     -0.7211400000     0.3755900000     4.8398300000
   18      GH     -1.9072500000    -1.7593500000     4.6593800000
   19      GH     -3.1035700000    -1.0437500000     4.7320500000
   20      GH     -3.1171800000     0.3393600000     4.8542400000
   21      GH     -1.9356600000     1.0808500000     4.9130000000
   22      GH     -4.0675900000     0.8600600000     4.9020000000
   23      GH     -4.0429700000    -1.5853000000     4.6950200000
   24      GH     -2.0036500000     2.5842700000     5.0332900000
   25      GH     -1.4061900000     3.0803300000     4.2642500000
   26      GH     -1.6190800000     2.9210800000     5.9977400000
   27      GH     -3.0361600000     2.9230400000     4.9312800000
   28      GH     -1.9028300000    -2.7871200000     4.5661500000
   29      GH      0.1942000000    -1.5248500000     4.6710400000
   30      GH      0.1714600000     0.8923000000     4.8758700000
 ----------------------------------------------------------------

   12    -271.6436778481      9.82E-09 Convergence criterion met
 Total energy in the final basis set = -271.64367785

                    Orbital Energies (a.u.)
 --------------------------------------------------------------

 Alpha MOs
 -- Occupied --
-10.185 -10.174 -10.172 -10.171 -10.170 -10.169 -10.169  -0.858
 -0.776  -0.747  -0.691  -0.611  -0.591  -0.521  -0.465  -0.462
 -0.424  -0.423  -0.418  -0.390  -0.358  -0.350  -0.342  -0.255
 -0.247

          Ground-State Mulliken Net Atomic Charges

     Atom                 Charge (a.u.)
  ----------------------------------------
      1 C                    -0.064174
      2 C                    -0.428703
      3 C                    -0.343173
      4 C                    -0.117086
      5 C                    -0.546236
      6 C                     0.929288
      7 H                     0.150982
      8 H                     0.169020
      9 C                    -0.670679
     10 H                     0.146928
     11 H                     0.162613
     12 H                     0.143398
     13 H                     0.150671
     14 H                     0.160744
     15 H                     0.168544
     16 GH                   -0.022183
     17 GH                    0.022765
     18 GH                    0.030073
     19 GH                   -0.031268
     20 GH                   -0.000979
     21 GH                   -0.019245
     22 GH                   -0.000320
     23 GH                   -0.000346
     24 GH                    0.006447
     25 GH                   -0.001376
     26 GH                   -0.000561
     27 GH                    0.001263
     28 GH                    0.002451
     29 GH                   -0.000089
     30 GH                    0.001230
  ----------------------------------------
  Sum of atomic charges =     0.000000

                    Cartesian Multipole Moments
 -----------------------------------------------------------------
    Charge (ESU x 10^10)
                 0.0000
    Dipole Moment (Debye)
         X       0.0606      Y       0.3873      Z       0.0429
       Tot       0.3943
    Quadrupole Moments (Debye-Ang)
        XX     -39.3606     XY      -0.6292     YY     -38.0823
        XZ      -0.1080     YZ       0.7261     ZZ     -46.3962

 Total job time:  80.92s(wall), 321.92s(cpu)
        *  Thank you very much for using Q-Chem.  Have a nice day.  *
