 Q-Chem 5.0, Q-Chem, Inc., Pleasanton, CA (2017)
 Q-Chem 5.0.1 for Intel X86 EM64T Linux

User input:
--------------------------------------------------------------
$molecule
0  1
C        -0.49971000        -1.25045000        +6.40820000
C        -0.51236000        +0.15203000        +6.53002000
C        -1.69847000        -1.98291000        +6.34957000
C        -2.89479000        -1.26731000        +6.42224000
C        -2.90840000        +0.11580000        +6.54443000
C        -1.72688000        +0.85729000        +6.60319000
H        -3.85881000        +0.63650000        +6.59219000
H        -3.83419000        -1.80886000        +6.38521000
C        -1.79487000        +2.36071000        +6.72348000
H        -1.19741000        +2.85677000        +5.95444000
H        -1.41030000        +2.69752000        +7.68793000
H        -2.82738000        +2.69948000        +6.62147000
H        -1.69405000        -3.01068000        +6.25634000
H        +0.40298000        -1.74841000        +6.36123000
H        +0.38024000        +0.66874000        +6.56606000
@C        -0.54444000        -0.68370000        -0.06689000
@C        -0.55709000        +0.71878000        +0.05493000
@C        -1.74320000        -1.41616000        -0.12552000
@C        -2.93952000        -0.70056000        -0.05285000
@C        -2.95313000        +0.68255000        +0.06934000
@C        -1.77161000        +1.42404000        +0.12810000
@H        -3.90354000        +1.20325000        +0.11710000
@H        -3.87892000        -1.24211000        -0.08988000
@C        -1.83960000        +2.92746000        +0.24839000
@H        -1.24214000        +3.42352000        -0.52065000
@H        -1.45503000        +3.26427000        +1.21284000
@H        -2.87211000        +3.26623000        +0.14638000
@H        -1.73878000        -2.44393000        -0.21875000
@H        +0.35825000        -1.18166000        -0.11386000
@H        +0.33551000        +1.23549000        +0.09097000
$end

$rem
JOBTYPE                   SP
METHOD                    B3LYP
DFT_D                     d3_op
BASIS                     6-311++G(d,p)
SYMMETRY                  False
THRESH                    12
SCF_CONVERGENCE           8
MAX_SUB_FILE_NUM          128
MEM_STATIC                400
MEM_TOTAL                 4000
$end
--------------------------------------------------------------

             Standard Nuclear Orientation (Angstroms)
    I     Atom           X                Y                Z
 ----------------------------------------------------------------
    1      C      -0.4997100000    -1.2504500000     6.4082000000
    2      C      -0.5123600000     0.1520300000     6.5300200000
    3      C      -1.6984700000    -1.9829100000     6.3495700000
    4      C      -2.8947900000    -1.2673100000     6.4222400000
    5      C      -2.9084000000     0.1158000000     6.5444300000
    6      C      -1.7268800000     0.8572900000     6.6031900000
    7      H      -3.8588100000     0.6365000000     6.5921900000
    8      H      -3.8341900000    -1.8088600000     6.3852100000
    9      C      -1.7948700000     2.3607100000     6.7234800000
   10      H      -1.1974100000     2.8567700000     5.9544400000
   11      H      -1.4103000000     2.6975200000     7.6879300000
   12      H      -2.8273800000     2.6994800000     6.6214700000
   13      H      -1.6940500000    -3.0106800000     6.2563400000
   14      H       0.4029800000    -1.7484100000     6.3612300000
   15      H       0.3802400000     0.6687400000     6.5660600000
   16      GH     -0.5444400000    -0.6837000000    -0.0668900000
   17      GH     -0.5570900000     0.7187800000     0.0549300000
   18      GH     -1.7432000000    -1.4161600000    -0.1255200000
   19      GH     -2.9395200000    -0.7005600000    -0.0528500000
   20      GH     -2.9531300000     0.6825500000     0.0693400000
   21      GH     -1.7716100000     1.4240400000     0.1281000000
   22      GH     -3.9035400000     1.2032500000     0.1171000000
   23      GH     -3.8789200000    -1.2421100000    -0.0898800000
   24      GH     -1.8396000000     2.9274600000     0.2483900000
   25      GH     -1.2421400000     3.4235200000    -0.5206500000
   26      GH     -1.4550300000     3.2642700000     1.2128400000
   27      GH     -2.8721100000     3.2662300000     0.1463800000
   28      GH     -1.7387800000    -2.4439300000    -0.2187500000
   29      GH      0.3582500000    -1.1816600000    -0.1138600000
   30      GH      0.3355100000     1.2354900000     0.0909700000
 ----------------------------------------------------------------

   12    -271.6435637073      9.51E-09 Convergence criterion met
 Total energy in the final basis set = -271.64356371

                    Orbital Energies (a.u.)
 --------------------------------------------------------------

 Alpha MOs
 -- Occupied --
-10.185 -10.174 -10.172 -10.171 -10.170 -10.169 -10.169  -0.858
 -0.776  -0.747  -0.691  -0.611  -0.591  -0.521  -0.465  -0.462
 -0.424  -0.423  -0.418  -0.390  -0.358  -0.350  -0.342  -0.255
 -0.247

          Ground-State Mulliken Net Atomic Charges

     Atom                 Charge (a.u.)
  ----------------------------------------
      1 C                    -0.048455
      2 C                    -0.390567
      3 C                    -0.317787
      4 C                    -0.089266
      5 C                    -0.731892
      6 C                     0.955593
      7 H                     0.129843
      8 H                     0.171018
      9 C                    -0.591904
     10 H                     0.147280
     11 H                     0.158234
     12 H                     0.148299
     13 H                     0.146103
     14 H                     0.159997
     15 H                     0.154578
     16 GH                    0.000382
     17 GH                    0.000518
     18 GH                    0.000611
     19 GH                    0.000363
     20 GH                   -0.004312
     21 GH                    0.001596
     22 GH                   -0.000588
     23 GH                   -0.000092
     24 GH                    0.001122
     25 GH                    0.000009
     26 GH                   -0.000196
     27 GH                    0.000091
     28 GH                    0.000001
     29 GH                   -0.000243
     30 GH                   -0.000337
  ----------------------------------------
  Sum of atomic charges =     0.000000

                    Cartesian Multipole Moments
 -----------------------------------------------------------------
    Charge (ESU x 10^10)
                -0.0000
    Dipole Moment (Debye)
         X       0.0621      Y       0.3876      Z       0.0337
       Tot       0.3940
    Quadrupole Moments (Debye-Ang)
        XX     -39.3443     XY      -0.6487     YY     -38.5062
        XZ       0.3154     YZ       3.2210     ZZ     -45.9858

 Total job time:  52.05s(wall), 207.52s(cpu)
        *  Thank you very much for using Q-Chem.  Have a nice day.  *
