 Q-Chem 5.0, Q-Chem, Inc., Pleasanton, CA (2017)
 Q-Chem 5.0.1 for Intel X86 EM64T Linux

User input:
--------------------------------------------------------------
$molecule
0  1
--
0  1
C        -0.54444000        -0.68370000        -0.06689000
C        -0.55709000        +0.71878000        +0.05493000
C        -1.74320000        -1.41616000        -0.12552000
C        -2.93952000        -0.70056000        -0.05285000
C        -2.95313000        +0.68255000        +0.06934000
C        -1.77161000        +1.42404000        +0.12810000
H        -3.90354000        +1.20325000        +0.11710000
H        -3.87892000        -1.24211000        -0.08988000
C        -1.83960000        +2.92746000        +0.24839000
H        -1.24214000        +3.42352000        -0.52065000
H        -1.45503000        +3.26427000        +1.21284000
H        -2.87211000        +3.26623000        +0.14638000
H        -1.73878000        -2.44393000        -0.21875000
H        +0.35825000        -1.18166000        -0.11386000
H        +0.33551000        +1.23549000        +0.09097000
--
0  1
C        -0.76659000        -1.14844000        +6.41267000
C        -0.77924000        +0.25404000        +6.53449000
C        -1.96535000        -1.88090000        +6.35404000
C        -3.16167000        -1.16530000        +6.42671000
C        -3.17528000        +0.21781000        +6.54890000
C        -1.99376000        +0.95930000        +6.60766000
H        -4.12569000        +0.73851000        +6.59666000
H        -4.10107000        -1.70685000        +6.38968000
C        -2.06175000        +2.46272000        +6.72795000
H        -1.46429000        +2.95878000        +5.95891000
H        -1.67718000        +2.79953000        +7.69240000
H        -3.09426000        +2.80149000        +6.62594000
H        -1.96093000        -2.90867000        +6.26081000
H        +0.13610000        -1.64640000        +6.36570000
H        +0.11336000        +0.77075000        +6.57053000
$end

$rem
JOBTYPE                   SP
METHOD                    B3LYP
DFT_D                     d3_op
BASIS                     6-311++G(d,p)
SYMMETRY                  False
THRESH                    12
SCF_CONVERGENCE           8
MAX_SUB_FILE_NUM          128
MEM_STATIC                400
MEM_TOTAL                 4000
$end
--------------------------------------------------------------

             Standard Nuclear Orientation (Angstroms)
    I     Atom           X                Y                Z
 ----------------------------------------------------------------
    1      C       3.3272417507    -1.2124563474     1.1750714554
    2      C       3.2995461424     0.1948171976     1.2027193871
    3      C       3.2900324205    -1.9135193814    -0.0431595384
    4      C       3.2193236449    -1.1616396042    -1.2171369237
    5      C       3.1899202855     0.2263651055    -1.1909211130
    6      C       3.2269389363     0.9369235964     0.0103223755
    7      H       3.1404758300     0.7753510202    -2.1251900181
    8      H       3.1834564747    -1.6780795356    -2.1706165127
    9      C       3.2054080240     2.4463168761    -0.0148245449
   10      H       4.0286125728     2.8735877900     0.5633020275
   11      H       2.2813962185     2.8353437879     0.4168687590
   12      H       3.2898759041     2.8062215861    -1.0417528920
   13      H       3.3140860496    -2.9449288980    -0.0684256041
   14      H       3.3755780141    -1.7373796165     2.0622798558
   15      H       3.3329179969     0.6877191137     2.1087860988
   16      C      -3.1726329008    -1.2412035435     1.2039643233
   17      C      -3.2003285090     0.1660700015     1.2316122550
   18      C      -3.2098422310    -1.9422665775    -0.0142666705
   19      C      -3.2805510066    -1.1903868003    -1.1882440557
   20      C      -3.3099543659     0.1976179093    -1.1620282451
   21      C      -3.2729357151     0.9081764003     0.0392152434
   22      H      -3.3593988214     0.7466038240    -2.0962971501
   23      H      -3.3164181767    -1.7068267318    -2.1417236448
   24      C      -3.2944666275     2.4175696800     0.0140683230
   25      H      -2.4712620787     2.8448405939     0.5921948955
   26      H      -4.2184784330     2.8065965918     0.4457616269
   27      H      -3.2099987474     2.7774743899    -1.0128600241
   28      H      -3.1857886018    -2.9736760942    -0.0395327362
   29      H      -3.1242966373    -1.7661268127     2.0911727237
   30      H      -3.1669566546     0.6589719176     2.1376789668
 ----------------------------------------------------------------

   13    -543.2871070105      4.31E-09 Convergence criterion met
 Total energy in the final basis set = -543.28710701

                    Orbital Energies (a.u.)
 --------------------------------------------------------------

 Alpha MOs
 -- Occupied --
-10.183 -10.183 -10.172 -10.172 -10.170 -10.170 -10.169 -10.169
-10.168 -10.168 -10.167 -10.167 -10.167 -10.167  -0.856  -0.856
 -0.774  -0.774  -0.745  -0.745  -0.690  -0.690  -0.609  -0.609
 -0.589  -0.589  -0.519  -0.519  -0.463  -0.463  -0.461  -0.461
 -0.423  -0.423  -0.421  -0.421  -0.416  -0.416  -0.389  -0.389
 -0.356  -0.355  -0.349  -0.349  -0.341  -0.340  -0.253  -0.252
 -0.246  -0.245

          Ground-State Mulliken Net Atomic Charges

     Atom                 Charge (a.u.)
  ----------------------------------------
      1 C                     0.000712
      2 C                    -0.430402
      3 C                    -0.346527
      4 C                    -0.022328
      5 C                    -0.830960
      6 C                     1.023398
      7 H                     0.125479
      8 H                     0.170303
      9 C                    -0.595502
     10 H                     0.146840
     11 H                     0.153310
     12 H                     0.148631
     13 H                     0.144935
     14 H                     0.158327
     15 H                     0.153397
     16 C                    -0.043855
     17 C                    -0.389574
     18 C                    -0.318117
     19 C                    -0.085736
     20 C                    -0.743368
     21 C                     0.969183
     22 H                     0.128242
     23 H                     0.170066
     24 C                    -0.595422
     25 H                     0.146271
     26 H                     0.157826
     27 H                     0.148290
     28 H                     0.145175
     29 H                     0.158582
     30 H                     0.152823
  ----------------------------------------
  Sum of atomic charges =     0.000000

                    Cartesian Multipole Moments
 -----------------------------------------------------------------
    Charge (ESU x 10^10)
                -0.0000
    Dipole Moment (Debye)
         X      -0.0138      Y       0.7127      Z       0.1380
       Tot       0.7260
    Quadrupole Moments (Debye-Ang)
        XX     -93.6014     XY      -0.3086     YY     -76.9665
        XZ       0.6064     YZ       0.0849     ZZ     -78.3454

 Total job time:  59.16s(wall), 235.22s(cpu)
        *  Thank you very much for using Q-Chem.  Have a nice day.  *
