 Q-Chem 5.0, Q-Chem, Inc., Pleasanton, CA (2017)
 Q-Chem 5.0.1 for Intel X86 EM64T Linux

User input:
--------------------------------------------------------------
$molecule
0  1
C        -0.52380000        -0.94527000        +2.92161000
C        -0.53645000        +0.45721000        +3.04343000
C        -1.72256000        -1.67773000        +2.86298000
C        -2.91888000        -0.96213000        +2.93565000
C        -2.93249000        +0.42098000        +3.05784000
C        -1.75097000        +1.16247000        +3.11660000
H        -3.88290000        +0.94168000        +3.10560000
H        -3.85828000        -1.50368000        +2.89862000
C        -1.81896000        +2.66589000        +3.23689000
H        -1.22150000        +3.16195000        +2.46785000
H        -1.43439000        +3.00270000        +4.20134000
H        -2.85147000        +3.00466000        +3.13488000
H        -1.71814000        -2.70550000        +2.76975000
H        +0.37889000        -1.44323000        +2.87464000
H        +0.35615000        +0.97392000        +3.07947000
@C        -0.54444000        -0.68370000        -0.06689000
@C        -0.55709000        +0.71878000        +0.05493000
@C        -1.74320000        -1.41616000        -0.12552000
@C        -2.93952000        -0.70056000        -0.05285000
@C        -2.95313000        +0.68255000        +0.06934000
@C        -1.77161000        +1.42404000        +0.12810000
@H        -3.90354000        +1.20325000        +0.11710000
@H        -3.87892000        -1.24211000        -0.08988000
@C        -1.83960000        +2.92746000        +0.24839000
@H        -1.24214000        +3.42352000        -0.52065000
@H        -1.45503000        +3.26427000        +1.21284000
@H        -2.87211000        +3.26623000        +0.14638000
@H        -1.73878000        -2.44393000        -0.21875000
@H        +0.35825000        -1.18166000        -0.11386000
@H        +0.33551000        +1.23549000        +0.09097000
$end

$rem
JOBTYPE                   SP
METHOD                    B3LYP
DFT_D                     d3_op
BASIS                     6-311++G(d,p)
SYMMETRY                  False
THRESH                    12
SCF_CONVERGENCE           8
MAX_SUB_FILE_NUM          128
MEM_STATIC                400
MEM_TOTAL                 4000
$end
--------------------------------------------------------------

             Standard Nuclear Orientation (Angstroms)
    I     Atom           X                Y                Z
 ----------------------------------------------------------------
    1      C      -0.5238000000    -0.9452700000     2.9216100000
    2      C      -0.5364500000     0.4572100000     3.0434300000
    3      C      -1.7225600000    -1.6777300000     2.8629800000
    4      C      -2.9188800000    -0.9621300000     2.9356500000
    5      C      -2.9324900000     0.4209800000     3.0578400000
    6      C      -1.7509700000     1.1624700000     3.1166000000
    7      H      -3.8829000000     0.9416800000     3.1056000000
    8      H      -3.8582800000    -1.5036800000     2.8986200000
    9      C      -1.8189600000     2.6658900000     3.2368900000
   10      H      -1.2215000000     3.1619500000     2.4678500000
   11      H      -1.4343900000     3.0027000000     4.2013400000
   12      H      -2.8514700000     3.0046600000     3.1348800000
   13      H      -1.7181400000    -2.7055000000     2.7697500000
   14      H       0.3788900000    -1.4432300000     2.8746400000
   15      H       0.3561500000     0.9739200000     3.0794700000
   16      GH     -0.5444400000    -0.6837000000    -0.0668900000
   17      GH     -0.5570900000     0.7187800000     0.0549300000
   18      GH     -1.7432000000    -1.4161600000    -0.1255200000
   19      GH     -2.9395200000    -0.7005600000    -0.0528500000
   20      GH     -2.9531300000     0.6825500000     0.0693400000
   21      GH     -1.7716100000     1.4240400000     0.1281000000
   22      GH     -3.9035400000     1.2032500000     0.1171000000
   23      GH     -3.8789200000    -1.2421100000    -0.0898800000
   24      GH     -1.8396000000     2.9274600000     0.2483900000
   25      GH     -1.2421400000     3.4235200000    -0.5206500000
   26      GH     -1.4550300000     3.2642700000     1.2128400000
   27      GH     -2.8721100000     3.2662300000     0.1463800000
   28      GH     -1.7387800000    -2.4439300000    -0.2187500000
   29      GH      0.3582500000    -1.1816600000    -0.1138600000
   30      GH      0.3355100000     1.2354900000     0.0909700000
 ----------------------------------------------------------------

   13    -271.6448776977      1.38E-09 Convergence criterion met
 Total energy in the final basis set = -271.64487770

                    Orbital Energies (a.u.)
 --------------------------------------------------------------

 Alpha MOs
 -- Occupied --
-10.185 -10.174 -10.172 -10.171 -10.170 -10.169 -10.169  -0.858
 -0.776  -0.747  -0.691  -0.611  -0.591  -0.521  -0.465  -0.462
 -0.424  -0.423  -0.418  -0.390  -0.358  -0.350  -0.342  -0.255
 -0.248

          Ground-State Mulliken Net Atomic Charges

     Atom                 Charge (a.u.)
  ----------------------------------------
      1 C                    -0.284034
      2 C                     0.010538
      3 C                    -0.403361
      4 C                    -0.221858
      5 C                    -0.384187
      6 C                     0.475796
      7 H                     0.158684
      8 H                     0.173984
      9 C                    -0.723255
     10 H                     0.168579
     11 H                     0.175925
     12 H                     0.144351
     13 H                     0.146647
     14 H                     0.163488
     15 H                     0.175986
     16 GH                    0.111439
     17 GH                    0.062977
     18 GH                   -0.035200
     19 GH                    0.061899
     20 GH                    0.054719
     21 GH                   -0.056241
     22 GH                    0.017935
     23 GH                    0.003474
     24 GH                   -0.013178
     25 GH                    0.006097
     26 GH                   -0.004420
     27 GH                   -0.006967
     28 GH                    0.003616
     29 GH                    0.004973
     30 GH                    0.011592
  ----------------------------------------
  Sum of atomic charges =    -0.000000

                    Cartesian Multipole Moments
 -----------------------------------------------------------------
    Charge (ESU x 10^10)
                -0.0000
    Dipole Moment (Debye)
         X       0.0607      Y       0.3959      Z       0.0305
       Tot       0.4017
    Quadrupole Moments (Debye-Ang)
        XX     -39.5141     XY      -0.6510     YY     -38.4450
        XZ       0.1035     YZ       1.8766     ZZ     -46.0787

 Total job time:  116.34s(wall), 463.42s(cpu)
        *  Thank you very much for using Q-Chem.  Have a nice day.  *
