 Q-Chem 5.0, Q-Chem, Inc., Pleasanton, CA (2017)
 Q-Chem 5.0.1 for Intel X86 EM64T Linux

User input:
--------------------------------------------------------------
$molecule
0  1
--
0  1
C        -0.55335000        -0.66344000        -0.04955000
C        -0.58369000        +0.72363000        +0.07143000
C        -1.74416000        -1.38805000        -0.12104000
C        -2.96100000        -0.71253000        -0.06974000
C        -2.98560000        +0.67733000        +0.05133000
C        -1.80096000        +1.41593000        +0.12202000
H        -3.93869000        +1.19496000        +0.09042000
H        -3.89285000        -1.26490000        -0.12448000
C        -1.82561000        +2.92062000        +0.24749000
H        -1.30124000        +3.39464000        -0.58804000
H        -1.33421000        +3.24931000        +1.16844000
H        -2.84892000        +3.30103000        +0.25949000
H        -1.72216000        -2.46788000        -0.21620000
H        +0.39889000        -1.18111000        -0.08841000
H        +0.34820000        +1.27792000        +0.12648000
--
0  1
C        -0.57321000        -0.92433000        +2.93902000
C        -0.60355000        +0.46274000        +3.06000000
C        -1.76402000        -1.64894000        +2.86753000
C        -2.98086000        -0.97342000        +2.91883000
C        -3.00546000        +0.41644000        +3.03990000
C        -1.82082000        +1.15504000        +3.11059000
H        -3.95855000        +0.93407000        +3.07899000
H        -3.91271000        -1.52579000        +2.86409000
C        -1.84547000        +2.65973000        +3.23606000
H        -1.32110000        +3.13375000        +2.40053000
H        -1.35407000        +2.98842000        +4.15701000
H        -2.86878000        +3.04014000        +3.24806000
H        -1.74202000        -2.72877000        +2.77237000
H        +0.37903000        -1.44200000        +2.90016000
H        +0.32834000        +1.01703000        +3.11505000
$end

$rem
JOBTYPE                   SP
METHOD                    B3LYP
DFT_D                     d3_op
BASIS                     6-311++G(d,p)
SYMMETRY                  False
THRESH                    12
SCF_CONVERGENCE           8
MAX_SUB_FILE_NUM          128
MEM_STATIC                400
MEM_TOTAL                 4000
$end
--------------------------------------------------------------

             Standard Nuclear Orientation (Angstroms)
    I     Atom           X                Y                Z
 ----------------------------------------------------------------
    1      C       1.1455959660    -1.5366513197    -1.2062504673
    2      C      -0.2463075326    -1.4909331188    -1.2003889369
    3      C       1.8522422364    -1.5601678282    -0.0027983699
    4      C       1.1539229084    -1.5368986937     1.2019701596
    5      C      -0.2406713502    -1.4912832032     1.2020447165
    6      C      -0.9613487187    -1.4692807478     0.0045310471
    7      H      -0.7761184199    -1.4735240318     2.1458828596
    8      H       1.6921942262    -1.5548955363     2.1434549492
    9      C      -2.4708263060    -1.4255050922     0.0026750141
   10      H      -2.8897327894    -2.2892703457    -0.5228686883
   11      H      -2.8403313377    -0.5272999996    -0.5016598169
   12      H      -2.8690268223    -1.4268432086     1.0192642539
   13      H       2.9358599297    -1.5967236658    -0.0057343259
   14      H       1.6810557664    -1.5541725757    -2.1492399443
   15      H      -0.7865118373    -1.4727312558    -2.1419487492
   16      C       1.2438746886     1.4617399059    -1.2061644480
   17      C      -0.1480288100     1.5074581068    -1.2003029176
   18      C       1.9505209589     1.4382233974    -0.0027123506
   19      C       1.2522016310     1.4614925320     1.2020561789
   20      C      -0.1423926276     1.5071080224     1.2021307358
   21      C      -0.8630699961     1.5291104779     0.0046170665
   22      H      -0.6778396973     1.5248671938     2.1459688789
   23      H       1.7904729488     1.4434956894     2.1435409685
   24      C      -2.3725475834     1.5728861334     0.0027610334
   25      H      -2.7914540669     0.7091208799    -0.5227826690
   26      H      -2.7420526151     2.4710912260    -0.5015737976
   27      H      -2.7707480997     1.5715480170     1.0193502732
   28      H       3.0341386523     1.4016675599    -0.0056483066
   29      H       1.7793344890     1.4442186499    -2.1491539250
   30      H      -0.6882331147     1.5256599698    -2.1418627299
 ----------------------------------------------------------------

   13    -543.2657593894      7.23E-09 Convergence criterion met
 Total energy in the final basis set = -543.26575939

                    Orbital Energies (a.u.)
 --------------------------------------------------------------

 Alpha MOs
 -- Occupied --
-10.177 -10.177 -10.168 -10.168 -10.167 -10.167 -10.165 -10.165
-10.165 -10.165 -10.165 -10.165 -10.163 -10.163  -0.860  -0.847
 -0.779  -0.763  -0.747  -0.736  -0.697  -0.676  -0.608  -0.598
 -0.589  -0.576  -0.516  -0.505  -0.475  -0.460  -0.455  -0.455
 -0.448  -0.422  -0.414  -0.412  -0.404  -0.395  -0.388  -0.383
 -0.367  -0.344  -0.341  -0.337  -0.334  -0.317  -0.278  -0.270
 -0.220  -0.210

          Ground-State Mulliken Net Atomic Charges

     Atom                 Charge (a.u.)
  ----------------------------------------
      1 C                    -0.141211
      2 C                     0.024000
      3 C                    -0.433230
      4 C                    -0.228005
      5 C                    -0.181683
      6 C                     0.373591
      7 H                     0.171415
      8 H                     0.173552
      9 C                    -0.718516
     10 H                     0.171933
     11 H                     0.135244
     12 H                     0.145066
     13 H                     0.152036
     14 H                     0.170036
     15 H                     0.184399
     16 C                    -0.168654
     17 C                     0.100430
     18 C                    -0.435887
     19 C                    -0.194643
     20 C                    -0.265401
     21 C                     0.390191
     22 H                     0.169045
     23 H                     0.174415
     24 C                    -0.722917
     25 H                     0.127185
     26 H                     0.172651
     27 H                     0.146593
     28 H                     0.152088
     29 H                     0.169482
     30 H                     0.186796
  ----------------------------------------
  Sum of atomic charges =     0.000000

                    Cartesian Multipole Moments
 -----------------------------------------------------------------
    Charge (ESU x 10^10)
                -0.0000
    Dipole Moment (Debye)
         X      -0.5529      Y       0.0205      Z      -0.0578
       Tot       0.5563
    Quadrupole Moments (Debye-Ang)
        XX     -78.5526     XY      -0.5976     YY     -96.1839
        XZ       0.1126     YZ      -0.0064     ZZ     -78.8846

 Total job time:  127.77s(wall), 508.63s(cpu)
        *  Thank you very much for using Q-Chem.  Have a nice day.  *
