 Q-Chem 5.0, Q-Chem, Inc., Pleasanton, CA (2017)
 Q-Chem 5.0.1 for Intel X86 EM64T Linux

User input:
--------------------------------------------------------------
$molecule
0  1
C        -0.55335000        -0.66344000        -0.04955000
C        -0.58369000        +0.72363000        +0.07143000
C        -1.74416000        -1.38805000        -0.12104000
C        -2.96100000        -0.71253000        -0.06974000
C        -2.98560000        +0.67733000        +0.05133000
C        -1.80096000        +1.41593000        +0.12202000
H        -3.93869000        +1.19496000        +0.09042000
H        -3.89285000        -1.26490000        -0.12448000
C        -1.82561000        +2.92062000        +0.24749000
H        -1.30124000        +3.39464000        -0.58804000
H        -1.33421000        +3.24931000        +1.16844000
H        -2.84892000        +3.30103000        +0.25949000
H        -1.72216000        -2.46788000        -0.21620000
H        +0.39889000        -1.18111000        -0.08841000
H        +0.34820000        +1.27792000        +0.12648000
@C        -0.57321000        -0.92433000        +2.93902000
@C        -0.60355000        +0.46274000        +3.06000000
@C        -1.76402000        -1.64894000        +2.86753000
@C        -2.98086000        -0.97342000        +2.91883000
@C        -3.00546000        +0.41644000        +3.03990000
@C        -1.82082000        +1.15504000        +3.11059000
@H        -3.95855000        +0.93407000        +3.07899000
@H        -3.91271000        -1.52579000        +2.86409000
@C        -1.84547000        +2.65973000        +3.23606000
@H        -1.32110000        +3.13375000        +2.40053000
@H        -1.35407000        +2.98842000        +4.15701000
@H        -2.86878000        +3.04014000        +3.24806000
@H        -1.74202000        -2.72877000        +2.77237000
@H        +0.37903000        -1.44200000        +2.90016000
@H        +0.32834000        +1.01703000        +3.11505000
$end

$rem
JOBTYPE                   SP
METHOD                    B3LYP
DFT_D                     d3_op
BASIS                     6-311++G(d,p)
SYMMETRY                  False
THRESH                    12
SCF_CONVERGENCE           8
MAX_SUB_FILE_NUM          128
MEM_STATIC                400
MEM_TOTAL                 4000
$end
--------------------------------------------------------------

             Standard Nuclear Orientation (Angstroms)
    I     Atom           X                Y                Z
 ----------------------------------------------------------------
    1      C      -0.5533500000    -0.6634400000    -0.0495500000
    2      C      -0.5836900000     0.7236300000     0.0714300000
    3      C      -1.7441600000    -1.3880500000    -0.1210400000
    4      C      -2.9610000000    -0.7125300000    -0.0697400000
    5      C      -2.9856000000     0.6773300000     0.0513300000
    6      C      -1.8009600000     1.4159300000     0.1220200000
    7      H      -3.9386900000     1.1949600000     0.0904200000
    8      H      -3.8928500000    -1.2649000000    -0.1244800000
    9      C      -1.8256100000     2.9206200000     0.2474900000
   10      H      -1.3012400000     3.3946400000    -0.5880400000
   11      H      -1.3342100000     3.2493100000     1.1684400000
   12      H      -2.8489200000     3.3010300000     0.2594900000
   13      H      -1.7221600000    -2.4678800000    -0.2162000000
   14      H       0.3988900000    -1.1811100000    -0.0884100000
   15      H       0.3482000000     1.2779200000     0.1264800000
   16      GH     -0.5732100000    -0.9243300000     2.9390200000
   17      GH     -0.6035500000     0.4627400000     3.0600000000
   18      GH     -1.7640200000    -1.6489400000     2.8675300000
   19      GH     -2.9808600000    -0.9734200000     2.9188300000
   20      GH     -3.0054600000     0.4164400000     3.0399000000
   21      GH     -1.8208200000     1.1550400000     3.1105900000
   22      GH     -3.9585500000     0.9340700000     3.0789900000
   23      GH     -3.9127100000    -1.5257900000     2.8640900000
   24      GH     -1.8454700000     2.6597300000     3.2360600000
   25      GH     -1.3211000000     3.1337500000     2.4005300000
   26      GH     -1.3540700000     2.9884200000     4.1570100000
   27      GH     -2.8687800000     3.0401400000     3.2480600000
   28      GH     -1.7420200000    -2.7287700000     2.7723700000
   29      GH      0.3790300000    -1.4420000000     2.9001600000
   30      GH      0.3283400000     1.0170300000     3.1150500000
 ----------------------------------------------------------------

   13    -271.6516138380      8.42E-10 Convergence criterion met
 Total energy in the final basis set = -271.65161384

                    Orbital Energies (a.u.)
 --------------------------------------------------------------

 Alpha MOs
 -- Occupied --
-10.186 -10.176 -10.175 -10.173 -10.173 -10.173 -10.170  -0.860
 -0.775  -0.748  -0.689  -0.608  -0.587  -0.515  -0.464  -0.457
 -0.424  -0.423  -0.412  -0.389  -0.360  -0.346  -0.343  -0.257
 -0.248

          Ground-State Mulliken Net Atomic Charges

     Atom                 Charge (a.u.)
  ----------------------------------------
      1 C                    -0.207354
      2 C                    -0.136254
      3 C                    -0.399961
      4 C                    -0.292315
      5 C                    -0.195732
      6 C                     0.428726
      7 H                     0.164681
      8 H                     0.174346
      9 C                    -0.784688
     10 H                     0.171099
     11 H                     0.196360
     12 H                     0.145125
     13 H                     0.154470
     14 H                     0.170418
     15 H                     0.181534
     16 GH                    0.065031
     17 GH                    0.141231
     18 GH                   -0.034225
     19 GH                    0.072265
     20 GH                   -0.010232
     21 GH                   -0.040936
     22 GH                    0.015187
     23 GH                    0.005301
     24 GH                    0.036572
     25 GH                   -0.044333
     26 GH                    0.007281
     27 GH                   -0.005351
     28 GH                    0.002007
     29 GH                    0.005434
     30 GH                    0.014310
  ----------------------------------------
  Sum of atomic charges =    -0.000000

                    Cartesian Multipole Moments
 -----------------------------------------------------------------
    Charge (ESU x 10^10)
                -0.0000
    Dipole Moment (Debye)
         X       0.0335      Y       0.4090      Z       0.0378
       Tot       0.4121
    Quadrupole Moments (Debye-Ang)
        XX     -39.3886     XY      -0.6545     YY     -38.5455
        XZ      -0.0161     YZ       0.6822     ZZ     -46.3552

 Total job time:  126.00s(wall), 497.89s(cpu)
        *  Thank you very much for using Q-Chem.  Have a nice day.  *
