 Q-Chem 5.0, Q-Chem, Inc., Pleasanton, CA (2017)
 Q-Chem 5.0.1 for Intel X86 EM64T Linux

User input:
--------------------------------------------------------------
$molecule
0  1
--
0  1
C        -0.54444000        -0.68370000        -0.06689000
C        -0.55709000        +0.71878000        +0.05493000
C        -1.74320000        -1.41616000        -0.12552000
C        -2.93952000        -0.70056000        -0.05285000
C        -2.95313000        +0.68255000        +0.06934000
C        -1.77161000        +1.42404000        +0.12810000
H        -3.90354000        +1.20325000        +0.11710000
H        -3.87892000        -1.24211000        -0.08988000
C        -1.83960000        +2.92746000        +0.24839000
H        -1.24214000        +3.42352000        -0.52065000
H        -1.45503000        +3.26427000        +1.21284000
H        -2.87211000        +3.26623000        +0.14638000
H        -1.73878000        -2.44393000        -0.21875000
H        +0.35825000        -1.18166000        -0.11386000
H        +0.33551000        +1.23549000        +0.09097000
--
0  1
C        -0.49971000        -1.25045000        +6.40820000
C        -0.51236000        +0.15203000        +6.53002000
C        -1.69847000        -1.98291000        +6.34957000
C        -2.89479000        -1.26731000        +6.42224000
C        -2.90840000        +0.11580000        +6.54443000
C        -1.72688000        +0.85729000        +6.60319000
H        -3.85881000        +0.63650000        +6.59219000
H        -3.83419000        -1.80886000        +6.38521000
C        -1.79487000        +2.36071000        +6.72348000
H        -1.19741000        +2.85677000        +5.95444000
H        -1.41030000        +2.69752000        +7.68793000
H        -2.82738000        +2.69948000        +6.62147000
H        -1.69405000        -3.01068000        +6.25634000
H        +0.40298000        -1.74841000        +6.36123000
H        +0.38024000        +0.66874000        +6.56606000
$end

$rem
JOBTYPE                   SP
METHOD                    B3LYP
DFT_D                     d3_op
BASIS                     6-311++G(d,p)
SYMMETRY                  False
THRESH                    12
SCF_CONVERGENCE           8
MAX_SUB_FILE_NUM          128
MEM_STATIC                400
MEM_TOTAL                 4000
$end
--------------------------------------------------------------

             Standard Nuclear Orientation (Angstroms)
    I     Atom           X                Y                Z
 ----------------------------------------------------------------
    1      C       3.2469423043    -1.2302833947     1.1901243474
    2      C       3.2486248273     0.1772471284     1.2185018194
    3      C       3.2494324955    -1.9298288509    -0.0295438943
    4      C       3.2480531046    -1.1760663271    -1.2044421819
    5      C       3.2476757067     0.2122377611    -1.1775997430
    6      C       3.2459669036     0.9212881159     0.0251031889
    7      H       3.2523229118     0.7625850337    -2.1123643973
    8      H       3.2439675511    -1.6911792609    -2.1593044531
    9      C       3.2584049848     2.4308033234     0.0011625739
   10      H       4.0638166500     2.8397879115     0.6163862349
   11      H       2.3245548439     2.8396699817     0.3913559024
   12      H       3.3968619705     2.7892389671    -1.0204056351
   13      H       3.2521752053    -2.9615062713    -0.0551704436
   14      H       3.2438318062    -1.7565287028     2.0778606704
   15      H       3.2518429058     0.6689030266     2.1258534532
   16      C      -3.2530567279    -1.2272176836     1.1899624277
   17      C      -3.2513742049     0.1803128395     1.2183398996
   18      C      -3.2505665367    -1.9267631398    -0.0297058140
   19      C      -3.2519459276    -1.1730006160    -1.2046041016
   20      C      -3.2523233255     0.2153034722    -1.1777616628
   21      C      -3.2540321286     0.9243538270     0.0249412691
   22      H      -3.2476761204     0.7656507447    -2.1125263170
   23      H      -3.2560314811    -1.6881135499    -2.1594663729
   24      C      -3.2415940474     2.4338690345     0.0010006541
   25      H      -2.4361823822     2.8428536226     0.6162243151
   26      H      -4.1754441883     2.8427356928     0.3911939826
   27      H      -3.1031370618     2.7923046782    -1.0205675548
   28      H      -3.2478238269    -2.9584405602    -0.0553323633
   29      H      -3.2561672260    -1.7534629917     2.0776987506
   30      H      -3.2481561264     0.6719687377     2.1256915334
 ----------------------------------------------------------------

   13    -543.2871144627      4.22E-09 Convergence criterion met
 Total energy in the final basis set = -543.28711446

                    Orbital Energies (a.u.)
 --------------------------------------------------------------

 Alpha MOs
 -- Occupied --
-10.183 -10.183 -10.172 -10.172 -10.170 -10.170 -10.169 -10.169
-10.168 -10.168 -10.167 -10.167 -10.167 -10.167  -0.856  -0.856
 -0.774  -0.774  -0.745  -0.745  -0.690  -0.690  -0.609  -0.609
 -0.589  -0.589  -0.519  -0.519  -0.463  -0.463  -0.461  -0.461
 -0.423  -0.423  -0.421  -0.421  -0.416  -0.416  -0.389  -0.389
 -0.356  -0.355  -0.349  -0.349  -0.341  -0.340  -0.253  -0.252
 -0.246  -0.245

          Ground-State Mulliken Net Atomic Charges

     Atom                 Charge (a.u.)
  ----------------------------------------
      1 C                     0.003610
      2 C                    -0.430031
      3 C                    -0.347356
      4 C                    -0.023049
      5 C                    -0.831408
      6 C                     1.020313
      7 H                     0.125799
      8 H                     0.170278
      9 C                    -0.593915
     10 H                     0.147087
     11 H                     0.153653
     12 H                     0.148603
     13 H                     0.144791
     14 H                     0.158408
     15 H                     0.152890
     16 C                    -0.043838
     17 C                    -0.396042
     18 C                    -0.316664
     19 C                    -0.086947
     20 C                    -0.737344
     21 C                     0.968208
     22 H                     0.128399
     23 H                     0.169680
     24 C                    -0.593798
     25 H                     0.146270
     26 H                     0.157725
     27 H                     0.147899
     28 H                     0.145208
     29 H                     0.158755
     30 H                     0.152818
  ----------------------------------------
  Sum of atomic charges =     0.000000

                    Cartesian Multipole Moments
 -----------------------------------------------------------------
    Charge (ESU x 10^10)
                 0.0000
    Dipole Moment (Debye)
         X      -0.0034      Y       0.7126      Z       0.1385
       Tot       0.7259
    Quadrupole Moments (Debye-Ang)
        XX     -93.6350     XY       0.0340     YY     -76.9608
        XZ      -0.0307     YZ       0.0734     ZZ     -78.3175

 Total job time:  58.30s(wall), 232.38s(cpu)
        *  Thank you very much for using Q-Chem.  Have a nice day.  *
