 Q-Chem 5.0, Q-Chem, Inc., Pleasanton, CA (2017)
 Q-Chem 5.0.1 for Intel X86 EM64T Linux

User input:
--------------------------------------------------------------
$molecule
0  1
--
0  1
C        -0.54444000        -0.68370000        -0.06689000
C        -0.55709000        +0.71878000        +0.05493000
C        -1.74320000        -1.41616000        -0.12552000
C        -2.93952000        -0.70056000        -0.05285000
C        -2.95313000        +0.68255000        +0.06934000
C        -1.77161000        +1.42404000        +0.12810000
H        -3.90354000        +1.20325000        +0.11710000
H        -3.87892000        -1.24211000        -0.08988000
C        -1.83960000        +2.92746000        +0.24839000
H        -1.24214000        +3.42352000        -0.52065000
H        -1.45503000        +3.26427000        +1.21284000
H        -2.87211000        +3.26623000        +0.14638000
H        -1.73878000        -2.44393000        -0.21875000
H        +0.35825000        -1.18166000        -0.11386000
H        +0.33551000        +1.23549000        +0.09097000
--
0  1
C        -0.64697000        -0.89819000        +2.92368000
C        -0.65962000        +0.50429000        +3.04550000
C        -1.84573000        -1.63065000        +2.86505000
C        -3.04205000        -0.91505000        +2.93772000
C        -3.05566000        +0.46806000        +3.05991000
C        -1.87414000        +1.20955000        +3.11867000
H        -4.00607000        +0.98876000        +3.10767000
H        -3.98145000        -1.45660000        +2.90069000
C        -1.94213000        +2.71297000        +3.23896000
H        -1.34467000        +3.20903000        +2.46992000
H        -1.55756000        +3.04978000        +4.20341000
H        -2.97464000        +3.05174000        +3.13695000
H        -1.84131000        -2.65842000        +2.77182000
H        +0.25572000        -1.39615000        +2.87671000
H        +0.23298000        +1.02100000        +3.08154000
$end

$rem
JOBTYPE                   SP
METHOD                    B3LYP
DFT_D                     d3_op
BASIS                     6-311++G(d,p)
SYMMETRY                  False
THRESH                    12
SCF_CONVERGENCE           8
MAX_SUB_FILE_NUM          128
MEM_STATIC                400
MEM_TOTAL                 4000
$end
--------------------------------------------------------------

             Standard Nuclear Orientation (Angstroms)
    I     Atom           X                Y                Z
 ----------------------------------------------------------------
    1      C       1.6066333795    -1.2271539112    -1.1351848041
    2      C       0.2435962004    -1.5783582287    -1.1623041894
    3      C       2.2632411099    -0.9672342968     0.0806559539
    4      C       1.5113784332    -1.0656603734     1.2526459940
    5      C       0.1664377707    -1.4100148334     1.2268871006
    6      C      -0.4994928153    -1.6717894473     0.0280292382
    7      H      -0.3825112569    -1.4816896079     2.1597356240
    8      H       1.9923976056    -0.8643777714     2.2040795719
    9      C      -1.9596487151    -2.0547202101     0.0539676219
   10      H      -2.1466124232    -2.9791311039    -0.4982692550
   11      H      -2.5787950020    -1.2819950791    -0.4054370046
   12      H      -2.2912371899    -2.2019317046     1.0833489469
   13      H       3.2631985912    -0.7132992421     0.1056472662
   14      H       2.1317605925    -1.1594586924    -2.0210055230
   15      H      -0.2157585965    -1.7695204495    -2.0664463472
   16      C       0.8160207995     1.6648857470    -1.2403781948
   17      C      -0.5470163796     1.3136814295    -1.2674975802
   18      C       1.4726285298     1.9248053614    -0.0245374369
   19      C       0.7207658531     1.8263792848     1.1474526032
   20      C      -0.6241748093     1.4820248248     1.1216937099
   21      C      -1.2901053953     1.2202502110    -0.0771641526
   22      H      -1.1731238370     1.4103500504     2.0545422332
   23      H       1.2017850256     2.0276618869     2.0988861812
   24      C      -2.7502612951     0.8373194481    -0.0512257689
   25      H      -2.9372250032    -0.0870914456    -0.6034626458
   26      H      -3.3694075821     1.6100445791    -0.5106303953
   27      H      -3.0818497699     0.6901079536     0.9781555561
   28      H       2.4725860112     2.1787404161     0.0004538754
   29      H       1.3411480125     1.7325809658    -2.1261989138
   30      H      -1.0063711766     1.1225192088    -2.1716397380
 ----------------------------------------------------------------

   14    -543.2528483065      6.04E-09 Convergence criterion met
 Total energy in the final basis set = -543.25284831

                    Orbital Energies (a.u.)
 --------------------------------------------------------------

 Alpha MOs
 -- Occupied --
-10.178 -10.177 -10.166 -10.165 -10.165 -10.165 -10.163 -10.163
-10.163 -10.162 -10.162 -10.161 -10.160 -10.160  -0.858  -0.845
 -0.780  -0.763  -0.747  -0.735  -0.700  -0.678  -0.610  -0.600
 -0.592  -0.579  -0.522  -0.511  -0.475  -0.464  -0.456  -0.456
 -0.452  -0.421  -0.417  -0.414  -0.409  -0.396  -0.387  -0.381
 -0.369  -0.348  -0.341  -0.340  -0.333  -0.316  -0.276  -0.270
 -0.218  -0.210

          Ground-State Mulliken Net Atomic Charges

     Atom                 Charge (a.u.)
  ----------------------------------------
      1 C                    -0.119991
      2 C                    -0.065935
      3 C                    -0.425068
      4 C                    -0.186221
      5 C                    -0.114549
      6 C                     0.356578
      7 H                     0.171919
      8 H                     0.170231
      9 C                    -0.729147
     10 H                     0.166884
     11 H                     0.134919
     12 H                     0.141982
     13 H                     0.143501
     14 H                     0.162193
     15 H                     0.170240
     16 C                    -0.179451
     17 C                     0.095343
     18 C                    -0.407322
     19 C                    -0.230825
     20 C                    -0.400799
     21 C                     0.531443
     22 H                     0.158584
     23 H                     0.173689
     24 C                    -0.680555
     25 H                     0.141798
     26 H                     0.176082
     27 H                     0.150016
     28 H                     0.145930
     29 H                     0.165915
     30 H                     0.182615
  ----------------------------------------
  Sum of atomic charges =    -0.000000

                    Cartesian Multipole Moments
 -----------------------------------------------------------------
    Charge (ESU x 10^10)
                -0.0000
    Dipole Moment (Debye)
         X      -0.5396      Y      -0.0324      Z      -0.1269
       Tot       0.5552
    Quadrupole Moments (Debye-Ang)
        XX     -78.9943     XY       4.3376     YY     -94.9308
        XZ      -0.1736     YZ       0.9767     ZZ     -79.0043

 Total job time:  131.75s(wall), 524.06s(cpu)
        *  Thank you very much for using Q-Chem.  Have a nice day.  *
