 Q-Chem 5.0, Q-Chem, Inc., Pleasanton, CA (2017)
 Q-Chem 5.0.1 for Intel X86 EM64T Linux

User input:
--------------------------------------------------------------
$molecule
0  1
C        -0.64697000        -0.89819000        +2.92368000
C        -0.65962000        +0.50429000        +3.04550000
C        -1.84573000        -1.63065000        +2.86505000
C        -3.04205000        -0.91505000        +2.93772000
C        -3.05566000        +0.46806000        +3.05991000
C        -1.87414000        +1.20955000        +3.11867000
H        -4.00607000        +0.98876000        +3.10767000
H        -3.98145000        -1.45660000        +2.90069000
C        -1.94213000        +2.71297000        +3.23896000
H        -1.34467000        +3.20903000        +2.46992000
H        -1.55756000        +3.04978000        +4.20341000
H        -2.97464000        +3.05174000        +3.13695000
H        -1.84131000        -2.65842000        +2.77182000
H        +0.25572000        -1.39615000        +2.87671000
H        +0.23298000        +1.02100000        +3.08154000
@C        -0.54444000        -0.68370000        -0.06689000
@C        -0.55709000        +0.71878000        +0.05493000
@C        -1.74320000        -1.41616000        -0.12552000
@C        -2.93952000        -0.70056000        -0.05285000
@C        -2.95313000        +0.68255000        +0.06934000
@C        -1.77161000        +1.42404000        +0.12810000
@H        -3.90354000        +1.20325000        +0.11710000
@H        -3.87892000        -1.24211000        -0.08988000
@C        -1.83960000        +2.92746000        +0.24839000
@H        -1.24214000        +3.42352000        -0.52065000
@H        -1.45503000        +3.26427000        +1.21284000
@H        -2.87211000        +3.26623000        +0.14638000
@H        -1.73878000        -2.44393000        -0.21875000
@H        +0.35825000        -1.18166000        -0.11386000
@H        +0.33551000        +1.23549000        +0.09097000
$end

$rem
JOBTYPE                   SP
METHOD                    B3LYP
DFT_D                     d3_op
BASIS                     6-311++G(d,p)
SYMMETRY                  False
THRESH                    12
SCF_CONVERGENCE           8
MAX_SUB_FILE_NUM          128
MEM_STATIC                400
MEM_TOTAL                 4000
$end
--------------------------------------------------------------

             Standard Nuclear Orientation (Angstroms)
    I     Atom           X                Y                Z
 ----------------------------------------------------------------
    1      C      -0.6469700000    -0.8981900000     2.9236800000
    2      C      -0.6596200000     0.5042900000     3.0455000000
    3      C      -1.8457300000    -1.6306500000     2.8650500000
    4      C      -3.0420500000    -0.9150500000     2.9377200000
    5      C      -3.0556600000     0.4680600000     3.0599100000
    6      C      -1.8741400000     1.2095500000     3.1186700000
    7      H      -4.0060700000     0.9887600000     3.1076700000
    8      H      -3.9814500000    -1.4566000000     2.9006900000
    9      C      -1.9421300000     2.7129700000     3.2389600000
   10      H      -1.3446700000     3.2090300000     2.4699200000
   11      H      -1.5575600000     3.0497800000     4.2034100000
   12      H      -2.9746400000     3.0517400000     3.1369500000
   13      H      -1.8413100000    -2.6584200000     2.7718200000
   14      H       0.2557200000    -1.3961500000     2.8767100000
   15      H       0.2329800000     1.0210000000     3.0815400000
   16      GH     -0.5444400000    -0.6837000000    -0.0668900000
   17      GH     -0.5570900000     0.7187800000     0.0549300000
   18      GH     -1.7432000000    -1.4161600000    -0.1255200000
   19      GH     -2.9395200000    -0.7005600000    -0.0528500000
   20      GH     -2.9531300000     0.6825500000     0.0693400000
   21      GH     -1.7716100000     1.4240400000     0.1281000000
   22      GH     -3.9035400000     1.2032500000     0.1171000000
   23      GH     -3.8789200000    -1.2421100000    -0.0898800000
   24      GH     -1.8396000000     2.9274600000     0.2483900000
   25      GH     -1.2421400000     3.4235200000    -0.5206500000
   26      GH     -1.4550300000     3.2642700000     1.2128400000
   27      GH     -2.8721100000     3.2662300000     0.1463800000
   28      GH     -1.7387800000    -2.4439300000    -0.2187500000
   29      GH      0.3582500000    -1.1816600000    -0.1138600000
   30      GH      0.3355100000     1.2354900000     0.0909700000
 ----------------------------------------------------------------

   13    -271.6448372305      1.39E-09 Convergence criterion met
 Total energy in the final basis set = -271.64483723

                    Orbital Energies (a.u.)
 --------------------------------------------------------------

 Alpha MOs
 -- Occupied --
-10.185 -10.174 -10.172 -10.171 -10.170 -10.169 -10.169  -0.858
 -0.776  -0.747  -0.691  -0.611  -0.591  -0.521  -0.465  -0.462
 -0.424  -0.423  -0.418  -0.390  -0.358  -0.350  -0.342  -0.255
 -0.248

          Ground-State Mulliken Net Atomic Charges

     Atom                 Charge (a.u.)
  ----------------------------------------
      1 C                    -0.250961
      2 C                    -0.057396
      3 C                    -0.366236
      4 C                    -0.287123
      5 C                    -0.357466
      6 C                     0.513233
      7 H                     0.158331
      8 H                     0.172649
      9 C                    -0.725247
     10 H                     0.179987
     11 H                     0.176299
     12 H                     0.144288
     13 H                     0.147441
     14 H                     0.163792
     15 H                     0.174790
     16 GH                    0.062561
     17 GH                    0.149254
     18 GH                   -0.050762
     19 GH                    0.103438
     20 GH                    0.015092
     21 GH                   -0.055241
     22 GH                    0.018268
     23 GH                    0.005954
     24 GH                   -0.026593
     25 GH                    0.007304
     26 GH                   -0.027801
     27 GH                   -0.005608
     28 GH                    0.003330
     29 GH                    0.002571
     30 GH                    0.011850
  ----------------------------------------
  Sum of atomic charges =    -0.000000

                    Cartesian Multipole Moments
 -----------------------------------------------------------------
    Charge (ESU x 10^10)
                -0.0000
    Dipole Moment (Debye)
         X       0.0650      Y       0.3941      Z       0.0300
       Tot       0.4005
    Quadrupole Moments (Debye-Ang)
        XX     -39.5435     XY      -0.6954     YY     -38.4088
        XZ       0.1133     YZ       1.8735     ZZ     -46.0821

 Total job time:  116.31s(wall), 462.40s(cpu)
        *  Thank you very much for using Q-Chem.  Have a nice day.  *
