 Q-Chem 5.0, Q-Chem, Inc., Pleasanton, CA (2017)
 Q-Chem 5.0.1 for Intel X86 EM64T Linux

User input:
--------------------------------------------------------------
$molecule
0  1
--
0  1
C        -0.54444000        -0.68370000        -0.06689000
C        -0.55709000        +0.71878000        +0.05493000
C        -1.74320000        -1.41616000        -0.12552000
C        -2.93952000        -0.70056000        -0.05285000
C        -2.95313000        +0.68255000        +0.06934000
C        -1.77161000        +1.42404000        +0.12810000
H        -3.90354000        +1.20325000        +0.11710000
H        -3.87892000        -1.24211000        -0.08988000
C        -1.83960000        +2.92746000        +0.24839000
H        -1.24214000        +3.42352000        -0.52065000
H        -1.45503000        +3.26427000        +1.21284000
H        -2.87211000        +3.26623000        +0.14638000
H        -1.73878000        -2.44393000        -0.21875000
H        +0.35825000        -1.18166000        -0.11386000
H        +0.33551000        +1.23549000        +0.09097000
--
0  1
C        -0.52380000        -0.94527000        +2.92161000
C        -0.53645000        +0.45721000        +3.04343000
C        -1.72256000        -1.67773000        +2.86298000
C        -2.91888000        -0.96213000        +2.93565000
C        -2.93249000        +0.42098000        +3.05784000
C        -1.75097000        +1.16247000        +3.11660000
H        -3.88290000        +0.94168000        +3.10560000
H        -3.85828000        -1.50368000        +2.89862000
C        -1.81896000        +2.66589000        +3.23689000
H        -1.22150000        +3.16195000        +2.46785000
H        -1.43439000        +3.00270000        +4.20134000
H        -2.85147000        +3.00466000        +3.13488000
H        -1.71814000        -2.70550000        +2.76975000
H        +0.37889000        -1.44323000        +2.87464000
H        +0.35615000        +0.97392000        +3.07947000
$end

$rem
JOBTYPE                   SP
METHOD                    B3LYP
DFT_D                     d3_op
BASIS                     6-311++G(d,p)
SYMMETRY                  False
THRESH                    12
SCF_CONVERGENCE           8
MAX_SUB_FILE_NUM          128
MEM_STATIC                400
MEM_TOTAL                 4000
$end
--------------------------------------------------------------

             Standard Nuclear Orientation (Angstroms)
    I     Atom           X                Y                Z
 ----------------------------------------------------------------
    1      C       1.1827396516    -1.5339255532    -1.1903375786
    2      C      -0.2241737444    -1.4922154834    -1.2187145298
    3      C       1.8818702439    -1.5581848041     0.0293298227
    4      C       1.1285029562    -1.5337706535     1.2042287589
    5      C      -0.2591296517    -1.4905945548     1.1773871792
    6      C      -0.9677847911    -1.4668262102    -0.0253150397
    7      H      -0.8093630020    -1.4784336689     2.1121513466
    8      H       1.6434925983    -1.5457272663     2.1590914146
    9      C      -2.4769661910    -1.4327317921    -0.0013756710
   10      H      -2.9105802945    -2.2250494792    -0.6167357190
   11      H      -2.8568509062    -0.4866559905    -0.3914103416
   12      H      -2.8395041856    -1.5602474742     1.0201692406
   13      H       2.9129727481    -1.5927319048     0.0549553158
   14      H       1.7088349029    -1.5468874503    -2.0780736623
   15      H      -0.7156909792    -1.4801229253    -2.1260664151
   16      C       1.2737931827     1.4646884655    -1.1897495317
   17      C      -0.1331202134     1.5063985353    -1.2181264830
   18      C       1.9729237750     1.4404292146     0.0299178695
   19      C       1.2195564873     1.4648433652     1.2048168057
   20      C      -0.1680761206     1.5080194639     1.1779752260
   21      C      -0.8767312600     1.5317878085    -0.0247269929
   22      H      -0.7183094709     1.5201803498     2.1127393934
   23      H       1.7345461294     1.4528867524     2.1596794614
   24      C      -2.3859126599     1.5658822266    -0.0007876242
   25      H      -2.8195267634     0.7735645395    -0.6161476722
   26      H      -2.7657973751     2.5119580282    -0.3908222948
   27      H      -2.7484506545     1.4383665445     1.0207572874
   28      H       3.0040262792     1.4058821139     0.0555433627
   29      H       1.7998884340     1.4517265684    -2.0774856155
   30      H      -0.6246374481     1.5184910935    -2.1254783683
 ----------------------------------------------------------------

   14    -543.2536693355      6.78E-09 Convergence criterion met
 Total energy in the final basis set = -543.25366934

                    Orbital Energies (a.u.)
 --------------------------------------------------------------

 Alpha MOs
 -- Occupied --
-10.178 -10.176 -10.166 -10.166 -10.165 -10.164 -10.164 -10.163
-10.162 -10.162 -10.162 -10.161 -10.161 -10.160  -0.858  -0.845
 -0.780  -0.763  -0.747  -0.735  -0.699  -0.678  -0.610  -0.600
 -0.592  -0.579  -0.522  -0.511  -0.474  -0.464  -0.456  -0.455
 -0.452  -0.421  -0.417  -0.414  -0.409  -0.395  -0.387  -0.381
 -0.369  -0.348  -0.341  -0.340  -0.333  -0.316  -0.276  -0.270
 -0.217  -0.210

          Ground-State Mulliken Net Atomic Charges

     Atom                 Charge (a.u.)
  ----------------------------------------
      1 C                    -0.059586
      2 C                    -0.183205
      3 C                    -0.377856
      4 C                    -0.277899
      5 C                    -0.061029
      6 C                     0.374878
      7 H                     0.173040
      8 H                     0.165862
      9 C                    -0.698843
     10 H                     0.164556
     11 H                     0.141110
     12 H                     0.139228
     13 H                     0.144575
     14 H                     0.164877
     15 H                     0.169055
     16 C                    -0.235218
     17 C                     0.160862
     18 C                    -0.458407
     19 C                    -0.140068
     20 C                    -0.398879
     21 C                     0.481226
     22 H                     0.161067
     23 H                     0.175907
     24 C                    -0.683918
     25 H                     0.141498
     26 H                     0.175894
     27 H                     0.150369
     28 H                     0.144233
     29 H                     0.164053
     30 H                     0.182617
  ----------------------------------------
  Sum of atomic charges =     0.000000

                    Cartesian Multipole Moments
 -----------------------------------------------------------------
    Charge (ESU x 10^10)
                 0.0000
    Dipole Moment (Debye)
         X      -0.5226      Y       0.1500      Z      -0.1250
       Tot       0.5579
    Quadrupole Moments (Debye-Ang)
        XX     -77.9342     XY      -0.7467     YY     -96.0512
        XZ       0.0756     YZ      -0.0250     ZZ     -78.9319

 Total job time:  130.28s(wall), 519.18s(cpu)
        *  Thank you very much for using Q-Chem.  Have a nice day.  *
