 Q-Chem 5.0, Q-Chem, Inc., Pleasanton, CA (2017)
 Q-Chem 5.0.1 for Intel X86 EM64T Linux

User input:
--------------------------------------------------------------
$molecule
0  1
--
0  1
C        -0.54444000        -0.68370000        -0.06689000
C        -0.55709000        +0.71878000        +0.05493000
C        -1.74320000        -1.41616000        -0.12552000
C        -2.93952000        -0.70056000        -0.05285000
C        -2.95313000        +0.68255000        +0.06934000
C        -1.77161000        +1.42404000        +0.12810000
H        -3.90354000        +1.20325000        +0.11710000
H        -3.87892000        -1.24211000        -0.08988000
C        -1.83960000        +2.92746000        +0.24839000
H        -1.24214000        +3.42352000        -0.52065000
H        -1.45503000        +3.26427000        +1.21284000
H        -2.87211000        +3.26623000        +0.14638000
H        -1.73878000        -2.44393000        -0.21875000
H        +0.35825000        -1.18166000        -0.11386000
H        +0.33551000        +1.23549000        +0.09097000
--
0  1
C        -0.51141000        -1.10222000        +4.71472000
C        -0.52406000        +0.30026000        +4.83654000
C        -1.71017000        -1.83468000        +4.65609000
C        -2.90649000        -1.11908000        +4.72876000
C        -2.92010000        +0.26403000        +4.85095000
C        -1.73858000        +1.00552000        +4.90971000
H        -3.87051000        +0.78473000        +4.89871000
H        -3.84589000        -1.66063000        +4.69173000
C        -1.80657000        +2.50894000        +5.03000000
H        -1.20911000        +3.00500000        +4.26096000
H        -1.42200000        +2.84575000        +5.99445000
H        -2.83908000        +2.84771000        +4.92799000
H        -1.70575000        -2.86245000        +4.56286000
H        +0.39128000        -1.60018000        +4.66775000
H        +0.36854000        +0.81697000        +4.87258000
$end

$rem
JOBTYPE                   SP
METHOD                    B3LYP
DFT_D                     d3_op
BASIS                     6-311++G(d,p)
SYMMETRY                  False
THRESH                    12
SCF_CONVERGENCE           8
MAX_SUB_FILE_NUM          128
MEM_STATIC                400
MEM_TOTAL                 4000
$end
--------------------------------------------------------------

             Standard Nuclear Orientation (Angstroms)
    I     Atom           X                Y                Z
 ----------------------------------------------------------------
    1      C       2.3960925846    -1.2314856461     1.1901639977
    2      C       2.3987149866     0.1760434413     1.2185413929
    3      C       2.3981458628    -1.9310327337    -0.0295041220
    4      C       2.3972996193    -1.1772695753    -1.2044025076
    5      C       2.3978492911     0.2110344578    -1.1775601955
    6      C       2.3965841777     0.9200859180     0.0251426333
    7      H       2.4028876914     0.7613784073    -2.1123247795
    8      H       2.3928937667    -1.6923797607    -2.1592648374
    9      C       2.4100315983     2.4295924742     0.0012022024
   10      H       3.2157009733     2.8380388122     0.6164460110
   11      H       1.4764451161     2.8390831314     0.3913720955
   12      H       2.5487536784     2.7879354097    -1.0203625670
   13      H       2.4001997898    -2.9627117591    -0.0551305154
   14      H       2.3926081756    -1.7577286682     2.0779002869
   15      H       2.4022388797     0.6676971710     2.1258930655
   16      C      -2.4039088871    -1.2260105565     1.1899228311
   17      C      -2.4012864852     0.1815185308     1.2183002262
   18      C      -2.4018556089    -1.9255576441    -0.0297452887
   19      C      -2.4027018524    -1.1717944857    -1.2046436743
   20      C      -2.4021521807     0.2165095474    -1.1778013622
   21      C      -2.4034172940     0.9255610076     0.0249014666
   22      H      -2.3971137803     0.7668534969    -2.1125659462
   23      H      -2.4071077050    -1.6869046711    -2.1595060040
   24      C      -2.3899698735     2.4350675638     0.0009610358
   25      H      -1.5843004985     2.8435139018     0.6162048443
   26      H      -3.3235563556     2.8445582210     0.3911309289
   27      H      -2.2512477933     2.7934104993    -1.0206037337
   28      H      -2.3998016820    -2.9572366695    -0.0553716821
   29      H      -2.4073932961    -1.7522535786     2.0776591203
   30      H      -2.3977625921     0.6731722606     2.1256518989
 ----------------------------------------------------------------

   13    -543.2883756658      5.50E-09 Convergence criterion met
 Total energy in the final basis set = -543.28837567

                    Orbital Energies (a.u.)
 --------------------------------------------------------------

 Alpha MOs
 -- Occupied --
-10.182 -10.182 -10.170 -10.170 -10.169 -10.168 -10.168 -10.168
-10.167 -10.167 -10.166 -10.166 -10.166 -10.166  -0.855  -0.854
 -0.773  -0.773  -0.744  -0.744  -0.689  -0.688  -0.608  -0.608
 -0.587  -0.587  -0.518  -0.518  -0.462  -0.462  -0.459  -0.459
 -0.424  -0.420  -0.420  -0.420  -0.415  -0.415  -0.388  -0.388
 -0.356  -0.352  -0.347  -0.347  -0.339  -0.339  -0.253  -0.248
 -0.246  -0.242

          Ground-State Mulliken Net Atomic Charges

     Atom                 Charge (a.u.)
  ----------------------------------------
      1 C                    -0.089584
      2 C                    -0.435186
      3 C                    -0.299387
      4 C                    -0.154962
      5 C                    -0.528480
      6 C                     0.931353
      7 H                     0.149081
      8 H                     0.164191
      9 C                    -0.652938
     10 H                     0.146159
     11 H                     0.154834
     12 H                     0.143202
     13 H                     0.150406
     14 H                     0.155736
     15 H                     0.164831
     16 C                    -0.155662
     17 C                    -0.363838
     18 C                    -0.293062
     19 C                    -0.194823
     20 C                    -0.422001
     21 C                     0.853299
     22 H                     0.149170
     23 H                     0.167469
     24 C                    -0.658454
     25 H                     0.146075
     26 H                     0.157132
     27 H                     0.141532
     28 H                     0.149943
     29 H                     0.157376
     30 H                     0.166589
  ----------------------------------------
  Sum of atomic charges =     0.000000

                    Cartesian Multipole Moments
 -----------------------------------------------------------------
    Charge (ESU x 10^10)
                 0.0000
    Dipole Moment (Debye)
         X      -0.0072      Y       0.6372      Z       0.1271
       Tot       0.6498
    Quadrupole Moments (Debye-Ang)
        XX     -94.0473     XY       0.0452     YY     -77.2608
        XZ      -0.0309     YZ       0.0472     ZZ     -78.4622

 Total job time:  75.05s(wall), 299.18s(cpu)
        *  Thank you very much for using Q-Chem.  Have a nice day.  *
