 Q-Chem 5.0, Q-Chem, Inc., Pleasanton, CA (2017)
 Q-Chem 5.0.1 for Intel X86 EM64T Linux

User input:
--------------------------------------------------------------
$molecule
0  1
--
0  1
C        -0.54444000        -0.68370000        -0.06689000
C        -0.55709000        +0.71878000        +0.05493000
C        -1.74320000        -1.41616000        -0.12552000
C        -2.93952000        -0.70056000        -0.05285000
C        -2.95313000        +0.68255000        +0.06934000
C        -1.77161000        +1.42404000        +0.12810000
H        -3.90354000        +1.20325000        +0.11710000
H        -3.87892000        -1.24211000        -0.08988000
C        -1.83960000        +2.92746000        +0.24839000
H        -1.24214000        +3.42352000        -0.52065000
H        -1.45503000        +3.26427000        +1.21284000
H        -2.87211000        +3.26623000        +0.14638000
H        -1.73878000        -2.44393000        -0.21875000
H        +0.35825000        -1.18166000        -0.11386000
H        +0.33551000        +1.23549000        +0.09097000
--
0  1
C        -0.70849000        -1.02689000        +4.71801000
C        -0.72114000        +0.37559000        +4.83983000
C        -1.90725000        -1.75935000        +4.65938000
C        -3.10357000        -1.04375000        +4.73205000
C        -3.11718000        +0.33936000        +4.85424000
C        -1.93566000        +1.08085000        +4.91300000
H        -4.06759000        +0.86006000        +4.90200000
H        -4.04297000        -1.58530000        +4.69502000
C        -2.00365000        +2.58427000        +5.03329000
H        -1.40619000        +3.08033000        +4.26425000
H        -1.61908000        +2.92108000        +5.99774000
H        -3.03616000        +2.92304000        +4.93128000
H        -1.90283000        -2.78712000        +4.56615000
H        +0.19420000        -1.52485000        +4.67104000
H        +0.17146000        +0.89230000        +4.87587000
$end

$rem
JOBTYPE                   SP
METHOD                    B3LYP
DFT_D                     d3_op
BASIS                     6-311++G(d,p)
SYMMETRY                  False
THRESH                    12
SCF_CONVERGENCE           8
MAX_SUB_FILE_NUM          128
MEM_STATIC                400
MEM_TOTAL                 4000
$end
--------------------------------------------------------------

             Standard Nuclear Orientation (Angstroms)
    I     Atom           X                Y                Z
 ----------------------------------------------------------------
    1      C       2.4901442162    -1.2004562332     1.1677973591
    2      C       2.4537490126     0.2066207014     1.1953686259
    3      C       2.4518186125    -1.9019480464    -0.0501521679
    4      C       2.3710828933    -1.1507280993    -1.2239051939
    5      C       2.3330943499     0.2370694243    -1.1977555393
    6      C       2.3710928404     0.9480523942     0.0032061584
    7      H       2.2759797244     0.7855740155    -2.1318697233
    8      H       2.3341398987    -1.6675465521    -2.1771385784
    9      C       2.3399827521     2.4572766428    -0.0220594357
   10      H       3.1630998460     2.8898005019     0.5522730969
   11      H       1.4155127978     2.8405758666     0.4137568927
   12      H       2.4175428590     2.8175275556    -1.0494112560
   13      H       2.4822255359    -2.9331907765    -0.0753789940
   14      H       2.5457867685    -1.7249136845     2.0548530883
   15      H       2.4881297793     0.6998778110     2.1012042911
   16      C      -2.3093839946    -1.2517772508     1.2108658528
   17      C      -2.3457791983     0.1552996837     1.2384371196
   18      C      -2.3477095984    -1.9532690640    -0.0070836742
   19      C      -2.4284453176    -1.2020491169    -1.1808367001
   20      C      -2.4664338609     0.1857484067    -1.1546870456
   21      C      -2.4284353705     0.8967313766     0.0462746521
   22      H      -2.5235484864     0.7342529979    -2.0888012296
   23      H      -2.4653883121    -1.7188675698    -2.1340700846
   24      C      -2.4595454587     2.4059556252     0.0210090581
   25      H      -1.6364283648     2.8384794843     0.5953415906
   26      H      -3.3840154131     2.7892548490     0.4568253864
   27      H      -2.3819853518     2.7662065380    -1.0063427623
   28      H      -2.3173026750    -2.9845117941    -0.0323105003
   29      H      -2.2537414424    -1.7762347021     2.0979215820
   30      H      -2.3113984316     0.6485567934     2.1442727849
 ----------------------------------------------------------------

   13    -543.2883578459      7.12E-09 Convergence criterion met
 Total energy in the final basis set = -543.28835785

                    Orbital Energies (a.u.)
 --------------------------------------------------------------

 Alpha MOs
 -- Occupied --
-10.182 -10.182 -10.170 -10.170 -10.168 -10.168 -10.168 -10.168
-10.167 -10.167 -10.166 -10.166 -10.166 -10.166  -0.855  -0.854
 -0.773  -0.773  -0.744  -0.744  -0.689  -0.688  -0.608  -0.608
 -0.587  -0.587  -0.518  -0.518  -0.462  -0.462  -0.459  -0.459
 -0.424  -0.420  -0.420  -0.420  -0.415  -0.415  -0.388  -0.388
 -0.356  -0.352  -0.347  -0.347  -0.339  -0.339  -0.253  -0.249
 -0.246  -0.242

          Ground-State Mulliken Net Atomic Charges

     Atom                 Charge (a.u.)
  ----------------------------------------
      1 C                    -0.088851
      2 C                    -0.435116
      3 C                    -0.312169
      4 C                    -0.140209
      5 C                    -0.532882
      6 C                     0.944048
      7 H                     0.148146
      8 H                     0.164667
      9 C                    -0.663285
     10 H                     0.145767
     11 H                     0.153771
     12 H                     0.143586
     13 H                     0.150170
     14 H                     0.156184
     15 H                     0.164562
     16 C                    -0.150060
     17 C                    -0.356536
     18 C                    -0.287724
     19 C                    -0.205517
     20 C                    -0.432559
     21 C                     0.851869
     22 H                     0.148752
     23 H                     0.167845
     24 C                    -0.655258
     25 H                     0.147522
     26 H                     0.157280
     27 H                     0.142288
     28 H                     0.149969
     29 H                     0.157057
     30 H                     0.166684
  ----------------------------------------
  Sum of atomic charges =     0.000000

                    Cartesian Multipole Moments
 -----------------------------------------------------------------
    Charge (ESU x 10^10)
                 0.0000
    Dipole Moment (Debye)
         X      -0.0203      Y       0.6377      Z       0.1262
       Tot       0.6504
    Quadrupole Moments (Debye-Ang)
        XX     -94.0065     XY      -0.4059     YY     -77.2703
        XZ       0.6630     YZ       0.0630     ZZ     -78.4973

 Total job time:  75.05s(wall), 298.68s(cpu)
        *  Thank you very much for using Q-Chem.  Have a nice day.  *
