 Q-Chem 5.0, Q-Chem, Inc., Pleasanton, CA (2017)
 Q-Chem 5.0.1 for Intel X86 EM64T Linux

User input:
--------------------------------------------------------------
$molecule
0  1
--
0  1
C        -0.54444000        -0.68370000        -0.06689000
C        -0.55709000        +0.71878000        +0.05493000
C        -1.74320000        -1.41616000        -0.12552000
C        -2.93952000        -0.70056000        -0.05285000
C        -2.95313000        +0.68255000        +0.06934000
C        -1.77161000        +1.42404000        +0.12810000
H        -3.90354000        +1.20325000        +0.11710000
H        -3.87892000        -1.24211000        -0.08988000
C        -1.83960000        +2.92746000        +0.24839000
C        -1.78103000        -2.92226000        -0.24590000
H        -1.39752000        -3.25223000        -1.21323000
H        -2.80572000        -3.28175000        -0.13627000
H        -1.16958000        -3.40777000        +0.51926000
H        -1.24214000        +3.42352000        -0.52065000
H        -1.45503000        +3.26427000        +1.21284000
H        -2.87211000        +3.26623000        +0.14638000
H        +0.35825000        -1.18166000        -0.11386000
H        +0.33551000        +1.23549000        +0.09097000
--
0  1
C        -2.00728000        +0.10922000        +4.43548000
C        -2.01993000        +1.51170000        +4.55730000
C        -3.20604000        -0.62324000        +4.37685000
C        -4.40236000        +0.09236000        +4.44952000
C        -4.41597000        +1.47547000        +4.57171000
C        -3.23445000        +2.21696000        +4.63047000
H        -5.36638000        +1.99617000        +4.61947000
H        -5.34176000        -0.44919000        +4.41249000
C        -3.30244000        +3.72038000        +4.75076000
C        -3.24387000        -2.12934000        +4.25647000
H        -2.86036000        -2.45931000        +3.28914000
H        -4.26856000        -2.48883000        +4.36610000
H        -2.63242000        -2.61485000        +5.02163000
H        -2.70498000        +4.21644000        +3.98172000
H        -2.91787000        +4.05719000        +5.71521000
H        -4.33495000        +4.05915000        +4.64875000
H        -1.10459000        -0.38874000        +4.38851000
H        -1.12733000        +2.02841000        +4.59334000
$end

$rem
JOBTYPE                   SP
METHOD                    B3LYP
DFT_D                     d3_op
BASIS                     6-311++G(d,p)
SYMMETRY                  False
THRESH                    12
SCF_CONVERGENCE           8
MAX_SUB_FILE_NUM          128
MEM_STATIC                400
MEM_TOTAL                 4000
$end
--------------------------------------------------------------

             Standard Nuclear Orientation (Angstroms)
    I     Atom           X                Y                Z
 ----------------------------------------------------------------
    1      C       3.0455322005     0.3083987043     1.0114464650
    2      C       2.3354632094     1.5234019226     0.9724657925
    3      C       3.0325394613    -0.5732101148    -0.0837967704
    4      C       2.2866111553    -0.1992867207    -1.2028669600
    5      C       1.5842550546     0.9979202915    -1.2415990905
    6      C       1.5878258201     1.8841124244    -0.1627569235
    7      H       1.0206482593     1.2557048424    -2.1318704993
    8      H       2.2549394895    -0.8643239177    -2.0595129870
    9      C       0.8182229962     3.1794294212    -0.2588266478
   10      C       3.7700444896    -1.8924304458    -0.0857241126
   11      H       4.8511944445    -1.7420227664    -0.0723168374
   12      H       3.5091390339    -2.4667826584    -0.9763919924
   13      H       3.5239272556    -2.4982327167     0.7903414123
   14      H       1.4438131525     4.0420972853    -0.0161383511
   15      H      -0.0215370572     3.1925032422     0.4384042978
   16      H       0.4337089134     3.3137907700    -1.2714193602
   17      H       3.5836646718     0.0611037502     1.8565962905
   18      H       2.3639138487     2.1569092748     1.7866413642
   19      C      -1.5657222249    -0.9957654337     1.2861228839
   20      C      -2.2757912159     0.2192377846     1.2471422113
   21      C      -1.5787149640    -1.8773742528     0.1908796484
   22      C      -2.3246432700    -1.5034508587    -0.9281905411
   23      C      -3.0269993708    -0.3062438465    -0.9669226717
   24      C      -3.0234286052     0.5799482864     0.1119194953
   25      H      -3.5906061660    -0.0484592956    -1.8571940805
   26      H      -2.3563149358    -2.1684880557    -1.7848365681
   27      C      -3.7930314291     1.8752652832     0.0158497710
   28      C      -0.8412099357    -3.1965945838     0.1889523062
   29      H       0.2399400192    -3.0461869044     0.2023595814
   30      H      -1.1021153914    -3.7709467964    -0.7017155736
   31      H      -1.0873271697    -3.8023968547     1.0650178311
   32      H      -3.1674412728     2.7379331473     0.2585380677
   33      H      -4.6327914825     1.8883391042     0.7130807166
   34      H      -4.1775455119     2.0096266320    -0.9967429414
   35      H      -1.0275897535    -1.2430603878     2.1312727094
   36      H      -2.2473405766     0.8527451368     2.0613177830
 ----------------------------------------------------------------

   13    -621.9549656298      7.30E-09 Convergence criterion met
 Total energy in the final basis set = -621.95496563

                    Orbital Energies (a.u.)
 --------------------------------------------------------------

 Alpha MOs
 -- Occupied --
-10.178 -10.177 -10.177 -10.177 -10.166 -10.166 -10.165 -10.165
-10.165 -10.165 -10.165 -10.165 -10.164 -10.164 -10.164 -10.164
 -0.856  -0.855  -0.785  -0.785  -0.743  -0.742  -0.719  -0.718
 -0.656  -0.655  -0.610  -0.609  -0.574  -0.574  -0.493  -0.493
 -0.470  -0.469  -0.457  -0.457  -0.425  -0.420  -0.418  -0.418
 -0.416  -0.413  -0.402  -0.402  -0.395  -0.395  -0.374  -0.373
 -0.344  -0.341  -0.340  -0.340  -0.336  -0.336  -0.250  -0.248
 -0.234  -0.233

          Ground-State Mulliken Net Atomic Charges

     Atom                 Charge (a.u.)
  ----------------------------------------
      1 C                    -0.213026
      2 C                    -0.383042
      3 C                     0.496079
      4 C                    -0.415112
      5 C                    -0.354135
      6 C                     0.679249
      7 H                     0.147523
      8 H                     0.146314
      9 C                    -0.681313
     10 C                    -0.652835
     11 H                     0.156105
     12 H                     0.139531
     13 H                     0.150759
     14 H                     0.143520
     15 H                     0.166018
     16 H                     0.137409
     17 H                     0.163317
     18 H                     0.166707
     19 C                    -0.393369
     20 C                    -0.230923
     21 C                     0.676810
     22 C                    -0.431210
     23 C                    -0.487098
     24 C                     0.604766
     25 H                     0.148187
     26 H                     0.157006
     27 C                    -0.621742
     28 C                    -0.662065
     29 H                     0.193694
     30 H                     0.134725
     31 H                     0.146362
     32 H                     0.151781
     33 H                     0.160043
     34 H                     0.140796
     35 H                     0.154031
     36 H                     0.165135
  ----------------------------------------
  Sum of atomic charges =    -0.000000

                    Cartesian Multipole Moments
 -----------------------------------------------------------------
    Charge (ESU x 10^10)
                -0.0000
    Dipole Moment (Debye)
         X       0.0753      Y       0.0444      Z       0.1409
       Tot       0.1658
    Quadrupole Moments (Debye-Ang)
        XX    -101.3371     XY      -6.0523     YY     -93.5102
        XZ       4.0274     YZ       2.1950     ZZ     -94.0658

 Total job time:  125.96s(wall), 501.57s(cpu)
        *  Thank you very much for using Q-Chem.  Have a nice day.  *
