 Q-Chem 5.0, Q-Chem, Inc., Pleasanton, CA (2017)
 Q-Chem 5.0.1 for Intel X86 EM64T Linux

User input:
--------------------------------------------------------------
$molecule
0  1
--
0  1
C        -0.54444000        -0.68370000        -0.06689000
C        -0.55709000        +0.71878000        +0.05493000
C        -1.74320000        -1.41616000        -0.12552000
C        -2.93952000        -0.70056000        -0.05285000
C        -2.95313000        +0.68255000        +0.06934000
C        -1.77161000        +1.42404000        +0.12810000
H        -3.90354000        +1.20325000        +0.11710000
H        -3.87892000        -1.24211000        -0.08988000
C        -1.83960000        +2.92746000        +0.24839000
C        -1.78103000        -2.92226000        -0.24590000
H        -1.39752000        -3.25223000        -1.21323000
H        -2.80572000        -3.28175000        -0.13627000
H        -1.16958000        -3.40777000        +0.51926000
H        -1.24214000        +3.42352000        -0.52065000
H        -1.45503000        +3.26427000        +1.21284000
H        -2.87211000        +3.26623000        +0.14638000
H        +0.35825000        -1.18166000        -0.11386000
H        +0.33551000        +1.23549000        +0.09097000
--
0  1
C        -1.45872000        -0.18813000        +2.74709000
C        -1.47137000        +1.21435000        +2.86891000
C        -2.65748000        -0.92059000        +2.68846000
C        -3.85380000        -0.20499000        +2.76113000
C        -3.86741000        +1.17812000        +2.88332000
C        -2.68589000        +1.91961000        +2.94208000
H        -4.81782000        +1.69882000        +2.93108000
H        -4.79320000        -0.74654000        +2.72410000
C        -2.75388000        +3.42303000        +3.06237000
C        -2.69531000        -2.42669000        +2.56808000
H        -2.31180000        -2.75666000        +1.60075000
H        -3.72000000        -2.78618000        +2.67771000
H        -2.08386000        -2.91220000        +3.33324000
H        -2.15642000        +3.91909000        +2.29333000
H        -2.36931000        +3.75984000        +4.02682000
H        -3.78639000        +3.76180000        +2.96036000
H        -0.55603000        -0.68609000        +2.70012000
H        -0.57877000        +1.73106000        +2.90495000
$end

$rem
JOBTYPE                   SP
METHOD                    B3LYP
DFT_D                     d3_op
BASIS                     6-311++G(d,p)
SYMMETRY                  False
THRESH                    12
SCF_CONVERGENCE           8
MAX_SUB_FILE_NUM          128
MEM_STATIC                400
MEM_TOTAL                 4000
$end
--------------------------------------------------------------

             Standard Nuclear Orientation (Angstroms)
    I     Atom           X                Y                Z
 ----------------------------------------------------------------
    1      C       1.6147395731    -1.6226799584    -0.8061555119
    2      C       0.2738801573    -2.0489500737    -0.7577809205
    3      C       2.1566166057    -0.8204117741     0.2134991885
    4      C       1.3140788520    -0.4612898098     1.2669256831
    5      C      -0.0091495642    -0.8795020194     1.3146122293
    6      C      -0.5616529833    -1.6768390844     0.3104990660
    7      H      -0.6307511813    -0.5840819680     2.1530793418
    8      H       1.7055430972     0.1622417477     2.0638473386
    9      C      -2.0023735072    -2.1159645747     0.4146969368
   10      C       3.5860966985    -0.3298072417     0.2011088546
   11      H       4.2896724086    -1.1560911123     0.3191073095
   12      H       3.7454242672     0.3821654250     1.0128668487
   13      H       3.8378653859     0.1684380730    -0.7387980677
   14      H      -2.1054254770    -3.1986432951     0.3067915300
   15      H      -2.6114390843    -1.6613808766    -0.3688154420
   16      H      -2.4125835772    -1.8315569732     1.3853091497
   17      H       2.2088548436    -1.9032589557    -1.6019708487
   18      H      -0.1003660616    -2.6415465681    -1.5152715331
   19      C       0.0230082071     0.8599538940    -1.3565202975
   20      C      -1.3178512087     0.4336837787    -1.3081457061
   21      C       0.5648852398     1.6622220784    -0.3368655971
   22      C      -0.2776525139     2.0213440426     0.7165608975
   23      C      -1.6008809301     1.6031318330     0.7642474437
   24      C      -2.1533843492     0.8057947681    -0.2398657196
   25      H      -2.2224825472     1.8985518844     1.6027145562
   26      H       0.1138117312     2.6448756001     1.5134825530
   27      C      -3.5941048731     0.3666692777    -0.1356678488
   28      C       1.9943653326     2.1528266108    -0.3492559310
   29      H       2.6979410426     1.3265427402    -0.2312574761
   30      H       2.1536929013     2.8647992774     0.4625020631
   31      H       2.2461340199     2.6510719254    -1.2891628533
   32      H      -3.6971568429    -0.7160094427    -0.2435732556
   33      H      -4.2031704502     0.8212529758    -0.9191802276
   34      H      -4.0043149431     0.6510768792     0.8349443641
   35      H       0.6171234776     0.5793748967    -2.1523356343
   36      H      -1.6920974276    -0.1589127157    -2.0656363187
 ----------------------------------------------------------------

   14    -621.9095046495      7.03E-09 Convergence criterion met
 Total energy in the final basis set = -621.90950465

                    Orbital Energies (a.u.)
 --------------------------------------------------------------

 Alpha MOs
 -- Occupied --
-10.176 -10.174 -10.173 -10.171 -10.169 -10.164 -10.162 -10.162
-10.161 -10.161 -10.161 -10.160 -10.160 -10.160 -10.160 -10.154
 -0.864  -0.846  -0.795  -0.776  -0.746  -0.736  -0.731  -0.709
 -0.665  -0.648  -0.612  -0.605  -0.577  -0.570  -0.498  -0.490
 -0.473  -0.471  -0.460  -0.455  -0.453  -0.451  -0.418  -0.415
 -0.408  -0.400  -0.399  -0.394  -0.387  -0.380  -0.375  -0.366
 -0.359  -0.341  -0.336  -0.334  -0.332  -0.311  -0.268  -0.245
 -0.226  -0.210

          Ground-State Mulliken Net Atomic Charges

     Atom                 Charge (a.u.)
  ----------------------------------------
      1 C                    -0.280672
      2 C                    -0.095483
      3 C                     0.236101
      4 C                    -0.330221
      5 C                    -0.269018
      6 C                     0.364765
      7 H                     0.179679
      8 H                     0.183985
      9 C                    -0.620128
     10 C                    -0.627996
     11 H                     0.186235
     12 H                     0.142610
     13 H                     0.176065
     14 H                     0.177248
     15 H                     0.139846
     16 H                     0.140361
     17 H                     0.161901
     18 H                     0.157470
     19 C                    -0.087009
     20 C                    -0.219647
     21 C                     0.242539
     22 C                    -0.146608
     23 C                    -0.339666
     24 C                     0.224095
     25 H                     0.152137
     26 H                     0.158457
     27 C                    -0.556661
     28 C                    -0.715190
     29 H                     0.158573
     30 H                     0.131626
     31 H                     0.166435
     32 H                     0.147224
     33 H                     0.168306
     34 H                     0.134680
     35 H                     0.180849
     36 H                     0.177110
  ----------------------------------------
  Sum of atomic charges =     0.000000

                    Cartesian Multipole Moments
 -----------------------------------------------------------------
    Charge (ESU x 10^10)
                 0.0000
    Dipole Moment (Debye)
         X       0.1539      Y      -0.2378      Z      -0.0682
       Tot       0.2914
    Quadrupole Moments (Debye-Ang)
        XX     -92.9480     XY       4.7604     YY    -103.8352
        XZ      -1.9585     YZ       5.5418     ZZ     -95.6304

 Total job time:  223.86s(wall), 890.86s(cpu)
        *  Thank you very much for using Q-Chem.  Have a nice day.  *
