 Q-Chem 5.0, Q-Chem, Inc., Pleasanton, CA (2017)
 Q-Chem 5.0.1 for Intel X86 EM64T Linux

User input:
--------------------------------------------------------------
$molecule
0  1
C        -0.54444000        -0.68370000        -0.06689000
C        -0.55709000        +0.71878000        +0.05493000
C        -1.74320000        -1.41616000        -0.12552000
C        -2.93952000        -0.70056000        -0.05285000
C        -2.95313000        +0.68255000        +0.06934000
C        -1.77161000        +1.42404000        +0.12810000
H        -3.90354000        +1.20325000        +0.11710000
H        -3.87892000        -1.24211000        -0.08988000
C        -1.83960000        +2.92746000        +0.24839000
C        -1.78103000        -2.92226000        -0.24590000
H        -1.39752000        -3.25223000        -1.21323000
H        -2.80572000        -3.28175000        -0.13627000
H        -1.16958000        -3.40777000        +0.51926000
H        -1.24214000        +3.42352000        -0.52065000
H        -1.45503000        +3.26427000        +1.21284000
H        -2.87211000        +3.26623000        +0.14638000
H        +0.35825000        -1.18166000        -0.11386000
H        +0.33551000        +1.23549000        +0.09097000
@C        -1.45872000        -0.18813000        +2.74709000
@C        -1.47137000        +1.21435000        +2.86891000
@C        -2.65748000        -0.92059000        +2.68846000
@C        -3.85380000        -0.20499000        +2.76113000
@C        -3.86741000        +1.17812000        +2.88332000
@C        -2.68589000        +1.91961000        +2.94208000
@H        -4.81782000        +1.69882000        +2.93108000
@H        -4.79320000        -0.74654000        +2.72410000
@C        -2.75388000        +3.42303000        +3.06237000
@C        -2.69531000        -2.42669000        +2.56808000
@H        -2.31180000        -2.75666000        +1.60075000
@H        -3.72000000        -2.78618000        +2.67771000
@H        -2.08386000        -2.91220000        +3.33324000
@H        -2.15642000        +3.91909000        +2.29333000
@H        -2.36931000        +3.75984000        +4.02682000
@H        -3.78639000        +3.76180000        +2.96036000
@H        -0.55603000        -0.68609000        +2.70012000
@H        -0.57877000        +1.73106000        +2.90495000
$end

$rem
JOBTYPE                   SP
METHOD                    B3LYP
DFT_D                     d3_op
BASIS                     6-311++G(d,p)
SYMMETRY                  False
THRESH                    12
SCF_CONVERGENCE           8
MAX_SUB_FILE_NUM          128
MEM_STATIC                400
MEM_TOTAL                 4000
$end
--------------------------------------------------------------

             Standard Nuclear Orientation (Angstroms)
    I     Atom           X                Y                Z
 ----------------------------------------------------------------
    1      C      -0.5444400000    -0.6837000000    -0.0668900000
    2      C      -0.5570900000     0.7187800000     0.0549300000
    3      C      -1.7432000000    -1.4161600000    -0.1255200000
    4      C      -2.9395200000    -0.7005600000    -0.0528500000
    5      C      -2.9531300000     0.6825500000     0.0693400000
    6      C      -1.7716100000     1.4240400000     0.1281000000
    7      H      -3.9035400000     1.2032500000     0.1171000000
    8      H      -3.8789200000    -1.2421100000    -0.0898800000
    9      C      -1.8396000000     2.9274600000     0.2483900000
   10      C      -1.7810300000    -2.9222600000    -0.2459000000
   11      H      -1.3975200000    -3.2522300000    -1.2132300000
   12      H      -2.8057200000    -3.2817500000    -0.1362700000
   13      H      -1.1695800000    -3.4077700000     0.5192600000
   14      H      -1.2421400000     3.4235200000    -0.5206500000
   15      H      -1.4550300000     3.2642700000     1.2128400000
   16      H      -2.8721100000     3.2662300000     0.1463800000
   17      H       0.3582500000    -1.1816600000    -0.1138600000
   18      H       0.3355100000     1.2354900000     0.0909700000
   19      GH     -1.4587200000    -0.1881300000     2.7470900000
   20      GH     -1.4713700000     1.2143500000     2.8689100000
   21      GH     -2.6574800000    -0.9205900000     2.6884600000
   22      GH     -3.8538000000    -0.2049900000     2.7611300000
   23      GH     -3.8674100000     1.1781200000     2.8833200000
   24      GH     -2.6858900000     1.9196100000     2.9420800000
   25      GH     -4.8178200000     1.6988200000     2.9310800000
   26      GH     -4.7932000000    -0.7465400000     2.7241000000
   27      GH     -2.7538800000     3.4230300000     3.0623700000
   28      GH     -2.6953100000    -2.4266900000     2.5680800000
   29      GH     -2.3118000000    -2.7566600000     1.6007500000
   30      GH     -3.7200000000    -2.7861800000     2.6777100000
   31      GH     -2.0838600000    -2.9122000000     3.3332400000
   32      GH     -2.1564200000     3.9190900000     2.2933300000
   33      GH     -2.3693100000     3.7598400000     4.0268200000
   34      GH     -3.7863900000     3.7618000000     2.9603600000
   35      GH     -0.5560300000    -0.6860900000     2.7001200000
   36      GH     -0.5787700000     1.7310600000     2.9049500000
 ----------------------------------------------------------------

   13    -310.9772211406      9.44E-10 Convergence criterion met
 Total energy in the final basis set = -310.97722114

                    Orbital Energies (a.u.)
 --------------------------------------------------------------

 Alpha MOs
 -- Occupied --
-10.180 -10.180 -10.168 -10.168 -10.168 -10.167 -10.167 -10.167
 -0.859  -0.787  -0.745  -0.721  -0.658  -0.612  -0.577  -0.496
 -0.472  -0.460  -0.425  -0.421  -0.417  -0.404  -0.397  -0.376
 -0.346  -0.342  -0.339  -0.252  -0.237

          Ground-State Mulliken Net Atomic Charges

     Atom                 Charge (a.u.)
  ----------------------------------------
      1 C                    -0.280706
      2 C                    -0.187962
      3 C                     0.369495
      4 C                    -0.452936
      5 C                    -0.361146
      6 C                     0.384909
      7 H                     0.157360
      8 H                     0.161993
      9 C                    -0.710194
     10 C                    -0.623173
     11 H                     0.189152
     12 H                     0.136421
     13 H                     0.166764
     14 H                     0.174431
     15 H                     0.188225
     16 H                     0.140690
     17 H                     0.166090
     18 H                     0.161896
     19 GH                    0.022147
     20 GH                    0.057956
     21 GH                    0.115794
     22 GH                    0.140698
     23 GH                   -0.081835
     24 GH                   -0.044646
     25 GH                   -0.000273
     26 GH                    0.008971
     27 GH                    0.037169
     28 GH                   -0.149412
     29 GH                    0.096154
     30 GH                   -0.011431
     31 GH                    0.003076
     32 GH                   -0.001137
     33 GH                    0.000759
     34 GH                   -0.003612
     35 GH                    0.009203
     36 GH                    0.019109
  ----------------------------------------
  Sum of atomic charges =     0.000000

                    Cartesian Multipole Moments
 -----------------------------------------------------------------
    Charge (ESU x 10^10)
                -0.0000
    Dipole Moment (Debye)
         X       0.0841      Y       0.0037      Z       0.0155
       Tot       0.0856
    Quadrupole Moments (Debye-Ang)
        XX     -46.3834     XY      -0.0002     YY     -44.8322
        XZ      -0.0858     YZ       0.6502     ZZ     -52.5787

 Total job time:  195.29s(wall), 777.44s(cpu)
        *  Thank you very much for using Q-Chem.  Have a nice day.  *
