 Q-Chem 5.0, Q-Chem, Inc., Pleasanton, CA (2017)
 Q-Chem 5.0.1 for Intel X86 EM64T Linux

User input:
--------------------------------------------------------------
$molecule
0  1
C        -0.55740000        -0.96257000        +2.91068000
C        -0.57137000        +0.42219000        +3.04420000
C        -1.74919000        -1.69691000        +2.85360000
C        -2.95114000        -0.99089000        +2.93001000
C        -2.96530000        +0.39776000        +3.06331000
C        -1.77799000        +1.12986000        +3.12064000
H        -3.91664000        +0.91740000        +3.12206000
H        -3.89150000        -1.53175000        +2.88590000
C        -1.78832000        +2.63509000        +3.23561000
C        -1.73018000        -3.20290000        +2.73972000
H        -1.00446000        -3.53886000        +1.99377000
H        -2.70998000        -3.59301000        +2.45507000
H        -1.45499000        -3.66641000        +3.69337000
H        -1.51292000        +3.10363000        +2.28465000
H        -1.07505000        +2.98290000        +3.98820000
H        -2.77751000        +3.00644000        +3.51224000
H        +0.39315000        -1.48409000        +2.85097000
H        +0.36890000        +0.96334000        +3.08844000
@C        -0.58454000        -0.67556000        -0.07544000
@C        -0.59851000        +0.70920000        +0.05808000
@C        -1.77633000        -1.40990000        -0.13252000
@C        -2.97828000        -0.70388000        -0.05611000
@C        -2.99244000        +0.68477000        +0.07719000
@C        -1.80513000        +1.41687000        +0.13452000
@H        -3.94378000        +1.20441000        +0.13594000
@H        -3.91864000        -1.24474000        -0.10022000
@C        -1.81546000        +2.92210000        +0.24949000
@C        -1.75732000        -2.91589000        -0.24640000
@H        -1.03160000        -3.25185000        -0.99235000
@H        -2.73712000        -3.30600000        -0.53105000
@H        -1.48213000        -3.37940000        +0.70725000
@H        -1.54006000        +3.39064000        -0.70147000
@H        -1.10219000        +3.26991000        +1.00208000
@H        -2.80465000        +3.29345000        +0.52612000
@H        +0.36601000        -1.19708000        -0.13515000
@H        +0.34176000        +1.25035000        +0.10232000
$end

$rem
JOBTYPE                   SP
METHOD                    B3LYP
DFT_D                     d3_op
BASIS                     6-311++G(d,p)
SYMMETRY                  False
THRESH                    12
SCF_CONVERGENCE           8
MAX_SUB_FILE_NUM          128
MEM_STATIC                400
MEM_TOTAL                 4000
$end
--------------------------------------------------------------

             Standard Nuclear Orientation (Angstroms)
    I     Atom           X                Y                Z
 ----------------------------------------------------------------
    1      C      -0.5574000000    -0.9625700000     2.9106800000
    2      C      -0.5713700000     0.4221900000     3.0442000000
    3      C      -1.7491900000    -1.6969100000     2.8536000000
    4      C      -2.9511400000    -0.9908900000     2.9300100000
    5      C      -2.9653000000     0.3977600000     3.0633100000
    6      C      -1.7779900000     1.1298600000     3.1206400000
    7      H      -3.9166400000     0.9174000000     3.1220600000
    8      H      -3.8915000000    -1.5317500000     2.8859000000
    9      C      -1.7883200000     2.6350900000     3.2356100000
   10      C      -1.7301800000    -3.2029000000     2.7397200000
   11      H      -1.0044600000    -3.5388600000     1.9937700000
   12      H      -2.7099800000    -3.5930100000     2.4550700000
   13      H      -1.4549900000    -3.6664100000     3.6933700000
   14      H      -1.5129200000     3.1036300000     2.2846500000
   15      H      -1.0750500000     2.9829000000     3.9882000000
   16      H      -2.7775100000     3.0064400000     3.5122400000
   17      H       0.3931500000    -1.4840900000     2.8509700000
   18      H       0.3689000000     0.9633400000     3.0884400000
   19      GH     -0.5845400000    -0.6755600000    -0.0754400000
   20      GH     -0.5985100000     0.7092000000     0.0580800000
   21      GH     -1.7763300000    -1.4099000000    -0.1325200000
   22      GH     -2.9782800000    -0.7038800000    -0.0561100000
   23      GH     -2.9924400000     0.6847700000     0.0771900000
   24      GH     -1.8051300000     1.4168700000     0.1345200000
   25      GH     -3.9437800000     1.2044100000     0.1359400000
   26      GH     -3.9186400000    -1.2447400000    -0.1002200000
   27      GH     -1.8154600000     2.9221000000     0.2494900000
   28      GH     -1.7573200000    -2.9158900000    -0.2464000000
   29      GH     -1.0316000000    -3.2518500000    -0.9923500000
   30      GH     -2.7371200000    -3.3060000000    -0.5310500000
   31      GH     -1.4821300000    -3.3794000000     0.7072500000
   32      GH     -1.5400600000     3.3906400000    -0.7014700000
   33      GH     -1.1021900000     3.2699100000     1.0020800000
   34      GH     -2.8046500000     3.2934500000     0.5261200000
   35      GH      0.3660100000    -1.1970800000    -0.1351500000
   36      GH      0.3417600000     1.2503500000     0.1023200000
 ----------------------------------------------------------------

   13    -310.9823048414      1.05E-09 Convergence criterion met
 Total energy in the final basis set = -310.98230484

                    Orbital Energies (a.u.)
 --------------------------------------------------------------

 Alpha MOs
 -- Occupied --
-10.180 -10.180 -10.171 -10.170 -10.170 -10.170 -10.167 -10.167
 -0.860  -0.787  -0.744  -0.721  -0.657  -0.608  -0.575  -0.494
 -0.473  -0.452  -0.425  -0.418  -0.417  -0.402  -0.398  -0.375
 -0.347  -0.342  -0.337  -0.254  -0.237

          Ground-State Mulliken Net Atomic Charges

     Atom                 Charge (a.u.)
  ----------------------------------------
      1 C                    -0.272263
      2 C                    -0.368368
      3 C                     0.525248
      4 C                    -0.342401
      5 C                    -0.367338
      6 C                     0.241216
      7 H                     0.172696
      8 H                     0.162712
      9 C                    -0.746367
     10 C                    -0.579058
     11 H                     0.152753
     12 H                     0.142534
     13 H                     0.174750
     14 H                     0.189775
     15 H                     0.149823
     16 H                     0.141345
     17 H                     0.174926
     18 H                     0.178474
     19 GH                    0.072867
     20 GH                    0.107094
     21 GH                   -0.163070
     22 GH                    0.043259
     23 GH                    0.041385
     24 GH                    0.066558
     25 GH                    0.007449
     26 GH                    0.018641
     27 GH                    0.101916
     28 GH                   -0.061732
     29 GH                    0.002105
     30 GH                   -0.006571
     31 GH                    0.026103
     32 GH                    0.005820
     33 GH                   -0.011402
     34 GH                   -0.001739
     35 GH                    0.012548
     36 GH                    0.008313
  ----------------------------------------
  Sum of atomic charges =    -0.000000

                    Cartesian Multipole Moments
 -----------------------------------------------------------------
    Charge (ESU x 10^10)
                -0.0000
    Dipole Moment (Debye)
         X       0.0592      Y      -0.0013      Z      -0.0060
       Tot       0.0596
    Quadrupole Moments (Debye-Ang)
        XX     -46.4268     XY      -0.0181     YY     -44.9549
        XZ       0.1349     YZ       0.5909     ZZ     -52.6636

 Total job time:  210.76s(wall), 836.30s(cpu)
        *  Thank you very much for using Q-Chem.  Have a nice day.  *
