 Q-Chem 5.0, Q-Chem, Inc., Pleasanton, CA (2017)
 Q-Chem 5.0.1 for Intel X86 EM64T Linux

User input:
--------------------------------------------------------------
$molecule
0  1
C        -2.52537000        +0.39004000        +6.03007000
C        -2.53802000        +1.79252000        +6.15189000
C        -3.72413000        -0.34242000        +5.97144000
C        -4.92045000        +0.37318000        +6.04411000
C        -4.93406000        +1.75629000        +6.16630000
C        -3.75254000        +2.49778000        +6.22506000
H        -5.88447000        +2.27699000        +6.21406000
H        -5.85985000        -0.16837000        +6.00708000
C        -3.82053000        +4.00120000        +6.34535000
C        -3.76196000        -1.84852000        +5.85106000
H        -3.37845000        -2.17849000        +4.88373000
H        -4.78665000        -2.20801000        +5.96069000
H        -3.15051000        -2.33403000        +6.61622000
H        -3.22307000        +4.49726000        +5.57631000
H        -3.43596000        +4.33801000        +7.30980000
H        -4.85304000        +4.33997000        +6.24334000
H        -1.62268000        -0.10792000        +5.98310000
H        -1.64542000        +2.30923000        +6.18793000
@C        -0.54444000        -0.68370000        -0.06689000
@C        -0.55709000        +0.71878000        +0.05493000
@C        -1.74320000        -1.41616000        -0.12552000
@C        -2.93952000        -0.70056000        -0.05285000
@C        -2.95313000        +0.68255000        +0.06934000
@C        -1.77161000        +1.42404000        +0.12810000
@H        -3.90354000        +1.20325000        +0.11710000
@H        -3.87892000        -1.24211000        -0.08988000
@C        -1.83960000        +2.92746000        +0.24839000
@C        -1.78103000        -2.92226000        -0.24590000
@H        -1.39752000        -3.25223000        -1.21323000
@H        -2.80572000        -3.28175000        -0.13627000
@H        -1.16958000        -3.40777000        +0.51926000
@H        -1.24214000        +3.42352000        -0.52065000
@H        -1.45503000        +3.26427000        +1.21284000
@H        -2.87211000        +3.26623000        +0.14638000
@H        +0.35825000        -1.18166000        -0.11386000
@H        +0.33551000        +1.23549000        +0.09097000
$end

$rem
JOBTYPE                   SP
METHOD                    B3LYP
DFT_D                     d3_op
BASIS                     6-311++G(d,p)
SYMMETRY                  False
THRESH                    12
SCF_CONVERGENCE           8
MAX_SUB_FILE_NUM          128
MEM_STATIC                400
MEM_TOTAL                 4000
$end
--------------------------------------------------------------

             Standard Nuclear Orientation (Angstroms)
    I     Atom           X                Y                Z
 ----------------------------------------------------------------
    1      C      -2.5253700000     0.3900400000     6.0300700000
    2      C      -2.5380200000     1.7925200000     6.1518900000
    3      C      -3.7241300000    -0.3424200000     5.9714400000
    4      C      -4.9204500000     0.3731800000     6.0441100000
    5      C      -4.9340600000     1.7562900000     6.1663000000
    6      C      -3.7525400000     2.4977800000     6.2250600000
    7      H      -5.8844700000     2.2769900000     6.2140600000
    8      H      -5.8598500000    -0.1683700000     6.0070800000
    9      C      -3.8205300000     4.0012000000     6.3453500000
   10      C      -3.7619600000    -1.8485200000     5.8510600000
   11      H      -3.3784500000    -2.1784900000     4.8837300000
   12      H      -4.7866500000    -2.2080100000     5.9606900000
   13      H      -3.1505100000    -2.3340300000     6.6162200000
   14      H      -3.2230700000     4.4972600000     5.5763100000
   15      H      -3.4359600000     4.3380100000     7.3098000000
   16      H      -4.8530400000     4.3399700000     6.2433400000
   17      H      -1.6226800000    -0.1079200000     5.9831000000
   18      H      -1.6454200000     2.3092300000     6.1879300000
   19      GH     -0.5444400000    -0.6837000000    -0.0668900000
   20      GH     -0.5570900000     0.7187800000     0.0549300000
   21      GH     -1.7432000000    -1.4161600000    -0.1255200000
   22      GH     -2.9395200000    -0.7005600000    -0.0528500000
   23      GH     -2.9531300000     0.6825500000     0.0693400000
   24      GH     -1.7716100000     1.4240400000     0.1281000000
   25      GH     -3.9035400000     1.2032500000     0.1171000000
   26      GH     -3.8789200000    -1.2421100000    -0.0898800000
   27      GH     -1.8396000000     2.9274600000     0.2483900000
   28      GH     -1.7810300000    -2.9222600000    -0.2459000000
   29      GH     -1.3975200000    -3.2522300000    -1.2132300000
   30      GH     -2.8057200000    -3.2817500000    -0.1362700000
   31      GH     -1.1695800000    -3.4077700000     0.5192600000
   32      GH     -1.2421400000     3.4235200000    -0.5206500000
   33      GH     -1.4550300000     3.2642700000     1.2128400000
   34      GH     -2.8721100000     3.2662300000     0.1463800000
   35      GH      0.3582500000    -1.1816600000    -0.1138600000
   36      GH      0.3355100000     1.2354900000     0.0909700000
 ----------------------------------------------------------------

   11    -310.9758571545      9.16E-09 Convergence criterion met
 Total energy in the final basis set = -310.97585715

                    Orbital Energies (a.u.)
 --------------------------------------------------------------

 Alpha MOs
 -- Occupied --
-10.180 -10.180 -10.168 -10.168 -10.168 -10.167 -10.167 -10.167
 -0.859  -0.787  -0.745  -0.721  -0.658  -0.612  -0.577  -0.496
 -0.472  -0.460  -0.425  -0.421  -0.417  -0.404  -0.397  -0.376
 -0.345  -0.343  -0.339  -0.252  -0.236

          Ground-State Mulliken Net Atomic Charges

     Atom                 Charge (a.u.)
  ----------------------------------------
      1 C                    -0.128898
      2 C                    -0.148085
      3 C                     0.647511
      4 C                    -0.681927
      5 C                    -0.621177
      6 C                     0.685325
      7 H                     0.136405
      8 H                     0.142186
      9 C                    -0.613235
     10 C                    -0.629261
     11 H                     0.145983
     12 H                     0.147982
     13 H                     0.147391
     14 H                     0.147734
     15 H                     0.157639
     16 H                     0.148792
     17 H                     0.160847
     18 H                     0.157328
     19 GH                   -0.000450
     20 GH                    0.000590
     21 GH                    0.002560
     22 GH                   -0.000576
     23 GH                   -0.006471
     24 GH                    0.003352
     25 GH                   -0.000465
     26 GH                   -0.000607
     27 GH                   -0.001854
     28 GH                    0.001289
     29 GH                    0.000017
     30 GH                    0.000092
     31 GH                    0.000194
     32 GH                   -0.000069
     33 GH                   -0.000149
     34 GH                    0.000299
     35 GH                   -0.000098
     36 GH                   -0.000194
  ----------------------------------------
  Sum of atomic charges =     0.000000

                    Cartesian Multipole Moments
 -----------------------------------------------------------------
    Charge (ESU x 10^10)
                 0.0000
    Dipole Moment (Debye)
         X       0.0925      Y       0.0015      Z      -0.0030
       Tot       0.0926
    Quadrupole Moments (Debye-Ang)
        XX     -46.6319     XY       0.0972     YY     -44.6865
        XZ       0.5280     YZ       0.6863     ZZ     -52.7614

 Total job time:  81.02s(wall), 322.53s(cpu)
        *  Thank you very much for using Q-Chem.  Have a nice day.  *
