 Q-Chem 5.0, Q-Chem, Inc., Pleasanton, CA (2017)
 Q-Chem 5.0.1 for Intel X86 EM64T Linux

User input:
--------------------------------------------------------------
$molecule
0  1
C        -1.45872000        -0.18813000        +2.74709000
C        -1.47137000        +1.21435000        +2.86891000
C        -2.65748000        -0.92059000        +2.68846000
C        -3.85380000        -0.20499000        +2.76113000
C        -3.86741000        +1.17812000        +2.88332000
C        -2.68589000        +1.91961000        +2.94208000
H        -4.81782000        +1.69882000        +2.93108000
H        -4.79320000        -0.74654000        +2.72410000
C        -2.75388000        +3.42303000        +3.06237000
C        -2.69531000        -2.42669000        +2.56808000
H        -2.31180000        -2.75666000        +1.60075000
H        -3.72000000        -2.78618000        +2.67771000
H        -2.08386000        -2.91220000        +3.33324000
H        -2.15642000        +3.91909000        +2.29333000
H        -2.36931000        +3.75984000        +4.02682000
H        -3.78639000        +3.76180000        +2.96036000
H        -0.55603000        -0.68609000        +2.70012000
H        -0.57877000        +1.73106000        +2.90495000
@C        -0.54444000        -0.68370000        -0.06689000
@C        -0.55709000        +0.71878000        +0.05493000
@C        -1.74320000        -1.41616000        -0.12552000
@C        -2.93952000        -0.70056000        -0.05285000
@C        -2.95313000        +0.68255000        +0.06934000
@C        -1.77161000        +1.42404000        +0.12810000
@H        -3.90354000        +1.20325000        +0.11710000
@H        -3.87892000        -1.24211000        -0.08988000
@C        -1.83960000        +2.92746000        +0.24839000
@C        -1.78103000        -2.92226000        -0.24590000
@H        -1.39752000        -3.25223000        -1.21323000
@H        -2.80572000        -3.28175000        -0.13627000
@H        -1.16958000        -3.40777000        +0.51926000
@H        -1.24214000        +3.42352000        -0.52065000
@H        -1.45503000        +3.26427000        +1.21284000
@H        -2.87211000        +3.26623000        +0.14638000
@H        +0.35825000        -1.18166000        -0.11386000
@H        +0.33551000        +1.23549000        +0.09097000
$end

$rem
JOBTYPE                   SP
METHOD                    B3LYP
DFT_D                     d3_op
BASIS                     6-311++G(d,p)
SYMMETRY                  False
THRESH                    12
SCF_CONVERGENCE           8
MAX_SUB_FILE_NUM          128
MEM_STATIC                400
MEM_TOTAL                 4000
$end
--------------------------------------------------------------

             Standard Nuclear Orientation (Angstroms)
    I     Atom           X                Y                Z
 ----------------------------------------------------------------
    1      C      -1.4587200000    -0.1881300000     2.7470900000
    2      C      -1.4713700000     1.2143500000     2.8689100000
    3      C      -2.6574800000    -0.9205900000     2.6884600000
    4      C      -3.8538000000    -0.2049900000     2.7611300000
    5      C      -3.8674100000     1.1781200000     2.8833200000
    6      C      -2.6858900000     1.9196100000     2.9420800000
    7      H      -4.8178200000     1.6988200000     2.9310800000
    8      H      -4.7932000000    -0.7465400000     2.7241000000
    9      C      -2.7538800000     3.4230300000     3.0623700000
   10      C      -2.6953100000    -2.4266900000     2.5680800000
   11      H      -2.3118000000    -2.7566600000     1.6007500000
   12      H      -3.7200000000    -2.7861800000     2.6777100000
   13      H      -2.0838600000    -2.9122000000     3.3332400000
   14      H      -2.1564200000     3.9190900000     2.2933300000
   15      H      -2.3693100000     3.7598400000     4.0268200000
   16      H      -3.7863900000     3.7618000000     2.9603600000
   17      H      -0.5560300000    -0.6860900000     2.7001200000
   18      H      -0.5787700000     1.7310600000     2.9049500000
   19      GH     -0.5444400000    -0.6837000000    -0.0668900000
   20      GH     -0.5570900000     0.7187800000     0.0549300000
   21      GH     -1.7432000000    -1.4161600000    -0.1255200000
   22      GH     -2.9395200000    -0.7005600000    -0.0528500000
   23      GH     -2.9531300000     0.6825500000     0.0693400000
   24      GH     -1.7716100000     1.4240400000     0.1281000000
   25      GH     -3.9035400000     1.2032500000     0.1171000000
   26      GH     -3.8789200000    -1.2421100000    -0.0898800000
   27      GH     -1.8396000000     2.9274600000     0.2483900000
   28      GH     -1.7810300000    -2.9222600000    -0.2459000000
   29      GH     -1.3975200000    -3.2522300000    -1.2132300000
   30      GH     -2.8057200000    -3.2817500000    -0.1362700000
   31      GH     -1.1695800000    -3.4077700000     0.5192600000
   32      GH     -1.2421400000     3.4235200000    -0.5206500000
   33      GH     -1.4550300000     3.2642700000     1.2128400000
   34      GH     -2.8721100000     3.2662300000     0.1463800000
   35      GH      0.3582500000    -1.1816600000    -0.1138600000
   36      GH      0.3355100000     1.2354900000     0.0909700000
 ----------------------------------------------------------------

   13    -310.9772234874      1.13E-09 Convergence criterion met
 Total energy in the final basis set = -310.97722349

                    Orbital Energies (a.u.)
 --------------------------------------------------------------

 Alpha MOs
 -- Occupied --
-10.180 -10.180 -10.168 -10.168 -10.168 -10.167 -10.167 -10.167
 -0.859  -0.787  -0.745  -0.721  -0.658  -0.612  -0.577  -0.496
 -0.472  -0.460  -0.425  -0.421  -0.417  -0.404  -0.397  -0.376
 -0.346  -0.342  -0.339  -0.252  -0.237

          Ground-State Mulliken Net Atomic Charges

     Atom                 Charge (a.u.)
  ----------------------------------------
      1 C                    -0.228328
      2 C                    -0.350996
      3 C                     0.289107
      4 C                    -0.287025
      5 C                    -0.322158
      6 C                     0.335682
      7 H                     0.156543
      8 H                     0.157801
      9 C                    -0.589274
     10 C                    -0.641627
     11 H                     0.141149
     12 H                     0.142483
     13 H                     0.167464
     14 H                     0.164949
     15 H                     0.171404
     16 H                     0.135880
     17 H                     0.162907
     18 H                     0.160836
     19 GH                   -0.121762
     20 GH                    0.082642
     21 GH                   -0.125735
     22 GH                    0.097500
     23 GH                    0.003795
     24 GH                    0.208521
     25 GH                    0.008689
     26 GH                    0.017837
     27 GH                    0.040004
     28 GH                    0.035203
     29 GH                    0.002037
     30 GH                   -0.007149
     31 GH                    0.006683
     32 GH                    0.009538
     33 GH                   -0.014743
     34 GH                   -0.010124
     35 GH                   -0.003738
     36 GH                    0.004002
  ----------------------------------------
  Sum of atomic charges =     0.000000

                    Cartesian Multipole Moments
 -----------------------------------------------------------------
    Charge (ESU x 10^10)
                 0.0000
    Dipole Moment (Debye)
         X       0.0906      Y      -0.0026      Z      -0.0158
       Tot       0.0920
    Quadrupole Moments (Debye-Ang)
        XX     -46.5700     XY       0.0517     YY     -44.8361
        XZ       0.2505     YZ       0.6433     ZZ     -52.6765

 Total job time:  194.92s(wall), 775.64s(cpu)
        *  Thank you very much for using Q-Chem.  Have a nice day.  *
