 Q-Chem 5.0, Q-Chem, Inc., Pleasanton, CA (2017)
 Q-Chem 5.0.1 for Intel X86 EM64T Linux

User input:
--------------------------------------------------------------
$molecule
0  1
--
0  1
C        -0.54444000        -0.68370000        -0.06689000
C        -0.55709000        +0.71878000        +0.05493000
C        -1.74320000        -1.41616000        -0.12552000
C        -2.93952000        -0.70056000        -0.05285000
C        -2.95313000        +0.68255000        +0.06934000
C        -1.77161000        +1.42404000        +0.12810000
H        -3.90354000        +1.20325000        +0.11710000
H        -3.87892000        -1.24211000        -0.08988000
C        -1.83960000        +2.92746000        +0.24839000
C        -1.78103000        -2.92226000        -0.24590000
H        -1.39752000        -3.25223000        -1.21323000
H        -2.80572000        -3.28175000        -0.13627000
H        -1.16958000        -3.40777000        +0.51926000
H        -1.24214000        +3.42352000        -0.52065000
H        -1.45503000        +3.26427000        +1.21284000
H        -2.87211000        +3.26623000        +0.14638000
H        +0.35825000        -1.18166000        -0.11386000
H        +0.33551000        +1.23549000        +0.09097000
--
0  1
C        -2.52537000        +0.39004000        +6.03007000
C        -2.53802000        +1.79252000        +6.15189000
C        -3.72413000        -0.34242000        +5.97144000
C        -4.92045000        +0.37318000        +6.04411000
C        -4.93406000        +1.75629000        +6.16630000
C        -3.75254000        +2.49778000        +6.22506000
H        -5.88447000        +2.27699000        +6.21406000
H        -5.85985000        -0.16837000        +6.00708000
C        -3.82053000        +4.00120000        +6.34535000
C        -3.76196000        -1.84852000        +5.85106000
H        -3.37845000        -2.17849000        +4.88373000
H        -4.78665000        -2.20801000        +5.96069000
H        -3.15051000        -2.33403000        +6.61622000
H        -3.22307000        +4.49726000        +5.57631000
H        -3.43596000        +4.33801000        +7.30980000
H        -4.85304000        +4.33997000        +6.24334000
H        -1.62268000        -0.10792000        +5.98310000
H        -1.64542000        +2.30923000        +6.18793000
$end

$rem
JOBTYPE                   SP
METHOD                    B3LYP
DFT_D                     d3_op
BASIS                     6-311++G(d,p)
SYMMETRY                  False
THRESH                    12
SCF_CONVERGENCE           8
MAX_SUB_FILE_NUM          128
MEM_STATIC                400
MEM_TOTAL                 4000
$end
--------------------------------------------------------------

             Standard Nuclear Orientation (Angstroms)
    I     Atom           X                Y                Z
 ----------------------------------------------------------------
    1      C       3.8708098509    -0.1218737867     1.0657129836
    2      C       3.3734663053     1.1946594102     1.0291066421
    3      C       3.7411353839    -0.9758916206    -0.0437007076
    4      C       3.0978933743    -0.4697934605    -1.1744748676
    5      C       2.6051938023     0.8279071324    -1.2109331054
    6      C       2.7267809775     1.6882068531    -0.1180696109
    7      H       2.1162699155     1.1864409681    -2.1104305192
    8      H       2.9793320198    -1.1100169297    -2.0423326313
    9      C       2.1856075678     3.0945114232    -0.2118929399
   10      C       4.2493323346    -2.3992564270    -0.0490064076
   11      H       5.3396977735    -2.4308793420    -0.0066903265
   12      H       3.9207564797    -2.9115417608    -0.9550102914
   13      H       3.8826922149    -2.9661334624     0.8108112111
   14      H       2.9389083692     3.8381881628     0.0600248905
   15      H       1.3412457491     3.2386954529     0.4646888720
   16      H       1.8560354929     3.3030333104    -1.2312794824
   17      H       4.3375732708    -0.4652896513     1.9196550381
   18      H       3.4847614236     1.8048375613     1.8539210978
   19      C      -2.5877622280    -0.8293962507     1.2559264395
   20      C      -3.0851057736     0.4871369463     1.2193200980
   21      C      -2.7174366950    -1.6834140845     0.1465127483
   22      C      -3.3606787046    -1.1773159244    -0.9842614117
   23      C      -3.8533782766     0.1203846685    -1.0207196495
   24      C      -3.7317911014     0.9806843891     0.0721438450
   25      H      -4.3423021633     0.4789185041    -1.9202170633
   26      H      -3.4792400591    -1.8175393937    -1.8521191754
   27      C      -4.2729645111     2.3869889593    -0.0216794840
   28      C      -2.2092397443    -3.1067788909     0.1412070483
   29      H      -1.1188743054    -3.1384018059     0.1835231294
   30      H      -2.5378155992    -3.6190642248    -0.7647968355
   31      H      -2.5758798640    -3.6736559264     1.0010246670
   32      H      -3.5196637097     3.1306656988     0.2502383464
   33      H      -5.1173263298     2.5311729889     0.6549023280
   34      H      -4.6025365860     2.5955108465    -1.0410660265
   35      H      -2.1209988081    -1.1728121152     2.1098684940
   36      H      -2.9738106553     1.0973150974     2.0441345537
 ----------------------------------------------------------------

   13    -621.9520491651      5.24E-09 Convergence criterion met
 Total energy in the final basis set = -621.95204917

                    Orbital Energies (a.u.)
 --------------------------------------------------------------

 Alpha MOs
 -- Occupied --
-10.179 -10.178 -10.178 -10.178 -10.166 -10.166 -10.166 -10.166
-10.166 -10.166 -10.166 -10.166 -10.166 -10.165 -10.165 -10.165
 -0.857  -0.857  -0.786  -0.786  -0.744  -0.744  -0.719  -0.719
 -0.657  -0.656  -0.611  -0.610  -0.575  -0.575  -0.494  -0.494
 -0.471  -0.470  -0.458  -0.458  -0.423  -0.423  -0.419  -0.419
 -0.415  -0.415  -0.403  -0.403  -0.396  -0.396  -0.374  -0.374
 -0.344  -0.344  -0.341  -0.341  -0.337  -0.337  -0.251  -0.250
 -0.235  -0.235

          Ground-State Mulliken Net Atomic Charges

     Atom                 Charge (a.u.)
  ----------------------------------------
      1 C                    -0.146326
      2 C                    -0.229415
      3 C                     0.635924
      4 C                    -0.558468
      5 C                    -0.566126
      6 C                     0.616946
      7 H                     0.143668
      8 H                     0.136517
      9 C                    -0.639810
     10 C                    -0.606182
     11 H                     0.156357
     12 H                     0.147949
     13 H                     0.148149
     14 H                     0.143278
     15 H                     0.156556
     16 H                     0.144672
     17 H                     0.155327
     18 H                     0.162641
     19 C                    -0.123438
     20 C                    -0.149679
     21 C                     0.657947
     22 C                    -0.686356
     23 C                    -0.620949
     24 C                     0.689063
     25 H                     0.135523
     26 H                     0.141071
     27 C                    -0.615188
     28 C                    -0.637601
     29 H                     0.145739
     30 H                     0.147247
     31 H                     0.146573
     32 H                     0.146876
     33 H                     0.157255
     34 H                     0.148497
     35 H                     0.159736
     36 H                     0.156028
  ----------------------------------------
  Sum of atomic charges =     0.000000

                    Cartesian Multipole Moments
 -----------------------------------------------------------------
    Charge (ESU x 10^10)
                 0.0000
    Dipole Moment (Debye)
         X       0.0635      Y       0.0303      Z       0.1610
       Tot       0.1757
    Quadrupole Moments (Debye-Ang)
        XX    -102.9638     XY      -4.6051     YY     -91.2277
        XZ       4.1403     YZ       1.4556     ZZ     -93.6337

 Total job time:  98.16s(wall), 390.72s(cpu)
        *  Thank you very much for using Q-Chem.  Have a nice day.  *
