 Q-Chem 5.0, Q-Chem, Inc., Pleasanton, CA (2017)
 Q-Chem 5.0.1 for Intel X86 EM64T Linux

User input:
--------------------------------------------------------------
$molecule
0  1
C        -2.00728000        +0.10922000        +4.43548000
C        -2.01993000        +1.51170000        +4.55730000
C        -3.20604000        -0.62324000        +4.37685000
C        -4.40236000        +0.09236000        +4.44952000
C        -4.41597000        +1.47547000        +4.57171000
C        -3.23445000        +2.21696000        +4.63047000
H        -5.36638000        +1.99617000        +4.61947000
H        -5.34176000        -0.44919000        +4.41249000
C        -3.30244000        +3.72038000        +4.75076000
C        -3.24387000        -2.12934000        +4.25647000
H        -2.86036000        -2.45931000        +3.28914000
H        -4.26856000        -2.48883000        +4.36610000
H        -2.63242000        -2.61485000        +5.02163000
H        -2.70498000        +4.21644000        +3.98172000
H        -2.91787000        +4.05719000        +5.71521000
H        -4.33495000        +4.05915000        +4.64875000
H        -1.10459000        -0.38874000        +4.38851000
H        -1.12733000        +2.02841000        +4.59334000
@C        -0.54444000        -0.68370000        -0.06689000
@C        -0.55709000        +0.71878000        +0.05493000
@C        -1.74320000        -1.41616000        -0.12552000
@C        -2.93952000        -0.70056000        -0.05285000
@C        -2.95313000        +0.68255000        +0.06934000
@C        -1.77161000        +1.42404000        +0.12810000
@H        -3.90354000        +1.20325000        +0.11710000
@H        -3.87892000        -1.24211000        -0.08988000
@C        -1.83960000        +2.92746000        +0.24839000
@C        -1.78103000        -2.92226000        -0.24590000
@H        -1.39752000        -3.25223000        -1.21323000
@H        -2.80572000        -3.28175000        -0.13627000
@H        -1.16958000        -3.40777000        +0.51926000
@H        -1.24214000        +3.42352000        -0.52065000
@H        -1.45503000        +3.26427000        +1.21284000
@H        -2.87211000        +3.26623000        +0.14638000
@H        +0.35825000        -1.18166000        -0.11386000
@H        +0.33551000        +1.23549000        +0.09097000
$end

$rem
JOBTYPE                   SP
METHOD                    B3LYP
DFT_D                     d3_op
BASIS                     6-311++G(d,p)
SYMMETRY                  False
THRESH                    12
SCF_CONVERGENCE           8
MAX_SUB_FILE_NUM          128
MEM_STATIC                400
MEM_TOTAL                 4000
$end
--------------------------------------------------------------

             Standard Nuclear Orientation (Angstroms)
    I     Atom           X                Y                Z
 ----------------------------------------------------------------
    1      C      -2.0072800000     0.1092200000     4.4354800000
    2      C      -2.0199300000     1.5117000000     4.5573000000
    3      C      -3.2060400000    -0.6232400000     4.3768500000
    4      C      -4.4023600000     0.0923600000     4.4495200000
    5      C      -4.4159700000     1.4754700000     4.5717100000
    6      C      -3.2344500000     2.2169600000     4.6304700000
    7      H      -5.3663800000     1.9961700000     4.6194700000
    8      H      -5.3417600000    -0.4491900000     4.4124900000
    9      C      -3.3024400000     3.7203800000     4.7507600000
   10      C      -3.2438700000    -2.1293400000     4.2564700000
   11      H      -2.8603600000    -2.4593100000     3.2891400000
   12      H      -4.2685600000    -2.4888300000     4.3661000000
   13      H      -2.6324200000    -2.6148500000     5.0216300000
   14      H      -2.7049800000     4.2164400000     3.9817200000
   15      H      -2.9178700000     4.0571900000     5.7152100000
   16      H      -4.3349500000     4.0591500000     4.6487500000
   17      H      -1.1045900000    -0.3887400000     4.3885100000
   18      H      -1.1273300000     2.0284100000     4.5933400000
   19      GH     -0.5444400000    -0.6837000000    -0.0668900000
   20      GH     -0.5570900000     0.7187800000     0.0549300000
   21      GH     -1.7432000000    -1.4161600000    -0.1255200000
   22      GH     -2.9395200000    -0.7005600000    -0.0528500000
   23      GH     -2.9531300000     0.6825500000     0.0693400000
   24      GH     -1.7716100000     1.4240400000     0.1281000000
   25      GH     -3.9035400000     1.2032500000     0.1171000000
   26      GH     -3.8789200000    -1.2421100000    -0.0898800000
   27      GH     -1.8396000000     2.9274600000     0.2483900000
   28      GH     -1.7810300000    -2.9222600000    -0.2459000000
   29      GH     -1.3975200000    -3.2522300000    -1.2132300000
   30      GH     -2.8057200000    -3.2817500000    -0.1362700000
   31      GH     -1.1695800000    -3.4077700000     0.5192600000
   32      GH     -1.2421400000     3.4235200000    -0.5206500000
   33      GH     -1.4550300000     3.2642700000     1.2128400000
   34      GH     -2.8721100000     3.2662300000     0.1463800000
   35      GH      0.3582500000    -1.1816600000    -0.1138600000
   36      GH      0.3355100000     1.2354900000     0.0909700000
 ----------------------------------------------------------------

   12    -310.9761794558      8.43E-09 Convergence criterion met
 Total energy in the final basis set = -310.97617946

                    Orbital Energies (a.u.)
 --------------------------------------------------------------

 Alpha MOs
 -- Occupied --
-10.180 -10.180 -10.168 -10.168 -10.168 -10.167 -10.167 -10.167
 -0.859  -0.787  -0.745  -0.721  -0.658  -0.612  -0.577  -0.496
 -0.472  -0.460  -0.425  -0.421  -0.417  -0.404  -0.397  -0.376
 -0.345  -0.342  -0.339  -0.252  -0.236

          Ground-State Mulliken Net Atomic Charges

     Atom                 Charge (a.u.)
  ----------------------------------------
      1 C                    -0.333247
      2 C                    -0.191610
      3 C                     0.612089
      4 C                    -0.460327
      5 C                    -0.470435
      6 C                     0.574954
      7 H                     0.152857
      8 H                     0.159057
      9 C                    -0.636764
     10 C                    -0.640083
     11 H                     0.189245
     12 H                     0.137729
     13 H                     0.148167
     14 H                     0.155812
     15 H                     0.160730
     16 H                     0.140913
     17 H                     0.163629
     18 H                     0.163964
     19 GH                   -0.019922
     20 GH                   -0.028236
     21 GH                   -0.016129
     22 GH                   -0.000207
     23 GH                    0.004727
     24 GH                    0.052885
     25 GH                   -0.005628
     26 GH                   -0.000271
     27 GH                   -0.015157
     28 GH                    0.003056
     29 GH                   -0.000056
     30 GH                   -0.001615
     31 GH                    0.003296
     32 GH                   -0.001792
     33 GH                   -0.003467
     34 GH                    0.004361
     35 GH                   -0.002043
     36 GH                   -0.000480
  ----------------------------------------
  Sum of atomic charges =     0.000000

                    Cartesian Multipole Moments
 -----------------------------------------------------------------
    Charge (ESU x 10^10)
                 0.0000
    Dipole Moment (Debye)
         X       0.0920      Y       0.0048      Z      -0.0028
       Tot       0.0922
    Quadrupole Moments (Debye-Ang)
        XX     -46.5724     XY       0.0589     YY     -44.7157
        XZ       0.3863     YZ       0.6892     ZZ     -52.7245

 Total job time:  133.76s(wall), 532.24s(cpu)
        *  Thank you very much for using Q-Chem.  Have a nice day.  *
