 Q-Chem 5.0, Q-Chem, Inc., Pleasanton, CA (2017)
 Q-Chem 5.0.1 for Intel X86 EM64T Linux

User input:
--------------------------------------------------------------
$molecule
0  1
--
0  1
C        -0.58454000        -0.67556000        -0.07544000
C        -0.59851000        +0.70920000        +0.05808000
C        -1.77633000        -1.40990000        -0.13252000
C        -2.97828000        -0.70388000        -0.05611000
C        -2.99244000        +0.68477000        +0.07719000
C        -1.80513000        +1.41687000        +0.13452000
H        -3.94378000        +1.20441000        +0.13594000
H        -3.91864000        -1.24474000        -0.10022000
C        -1.81546000        +2.92210000        +0.24949000
C        -1.75732000        -2.91589000        -0.24640000
H        -1.03160000        -3.25185000        -0.99235000
H        -2.73712000        -3.30600000        -0.53105000
H        -1.48213000        -3.37940000        +0.70725000
H        -1.54006000        +3.39064000        -0.70147000
H        -1.10219000        +3.26991000        +1.00208000
H        -2.80465000        +3.29345000        +0.52612000
H        +0.36601000        -1.19708000        -0.13515000
H        +0.34176000        +1.25035000        +0.10232000
--
0  1
C        -0.55740000        -0.96257000        +2.91068000
C        -0.57137000        +0.42219000        +3.04420000
C        -1.74919000        -1.69691000        +2.85360000
C        -2.95114000        -0.99089000        +2.93001000
C        -2.96530000        +0.39776000        +3.06331000
C        -1.77799000        +1.12986000        +3.12064000
H        -3.91664000        +0.91740000        +3.12206000
H        -3.89150000        -1.53175000        +2.88590000
C        -1.78832000        +2.63509000        +3.23561000
C        -1.73018000        -3.20290000        +2.73972000
H        -1.00446000        -3.53886000        +1.99377000
H        -2.70998000        -3.59301000        +2.45507000
H        -1.45499000        -3.66641000        +3.69337000
H        -1.51292000        +3.10363000        +2.28465000
H        -1.07505000        +2.98290000        +3.98820000
H        -2.77751000        +3.00644000        +3.51224000
H        +0.39315000        -1.48409000        +2.85097000
H        +0.36890000        +0.96334000        +3.08844000
$end

$rem
JOBTYPE                   SP
METHOD                    B3LYP
DFT_D                     d3_op
BASIS                     6-311++G(d,p)
SYMMETRY                  False
THRESH                    12
SCF_CONVERGENCE           8
MAX_SUB_FILE_NUM          128
MEM_STATIC                400
MEM_TOTAL                 4000
$end
--------------------------------------------------------------

             Standard Nuclear Orientation (Angstroms)
    I     Atom           X                Y                Z
 ----------------------------------------------------------------
    1      C       0.6557770493    -1.5178610487    -1.1967528313
    2      C      -0.7350013853    -1.4815542812    -1.1963364191
    3      C       1.3803862190    -1.5339775454     0.0022294771
    4      C       0.6587960656    -1.5176686618     1.1972308168
    5      C      -0.7358491473    -1.4818548303     1.1977943319
    6      C      -1.4582860961    -1.4653718672     0.0033173158
    7      H      -1.2677899036    -1.4679332391     2.1440344224
    8      H       1.1920096133    -1.5321536326     2.1428658730
    9      C      -2.9678992564    -1.4559547255    -0.0013287787
   10      C       2.8907678059    -1.5421778924    -0.0017868202
   11      H       3.2853142851    -2.2564134116    -0.7299219322
   12      H       3.2900432091    -1.8074862396     0.9797477477
   13      H       3.2891458728    -0.5560864253    -0.2643471240
   14      H      -3.3659907425    -2.4348683327    -0.2893411598
   15      H      -3.3603765551    -0.7232584625    -0.7121278735
   16      H      -3.3675413821    -1.2146656493     0.9860858194
   17      H       1.1896523873    -1.5326158462    -2.1421908866
   18      H      -1.2685142006    -1.4669606889    -2.1418834967
   19      C       0.7334287696     1.4811378149    -1.1967226225
   20      C      -0.6573496650     1.5174445823    -1.1963062103
   21      C       1.4580379392     1.4650213182     0.0022596859
   22      C       0.7364477859     1.4813302017     1.1972610256
   23      C      -0.6581974271     1.5171440332     1.1978245407
   24      C      -1.3806343758     1.5336269963     0.0033475246
   25      H      -1.1901381833     1.5310656244     2.1440646312
   26      H       1.2696613336     1.4668452310     2.1428960818
   27      C      -2.8902475361     1.5430441380    -0.0012985699
   28      C       2.9684195262     1.4568209711    -0.0017566114
   29      H       3.3629660054     0.7425854520    -0.7298917234
   30      H       3.3676949293     1.1915126239     0.9797779565
   31      H       3.3667975931     2.4429124382    -0.2643169151
   32      H      -3.2883390222     0.5641305308    -0.2893109510
   33      H      -3.2827248348     2.2757404011    -0.7120976647
   34      H      -3.2898896618     1.7843332142     0.9861160282
   35      H       1.2673041076     1.4663830174    -2.1421606778
   36      H      -1.1908624803     1.5320381747    -2.1418532879
 ----------------------------------------------------------------

   13    -621.9163456253      7.16E-09 Convergence criterion met
 Total energy in the final basis set = -621.91634563

                    Orbital Energies (a.u.)
 --------------------------------------------------------------

 Alpha MOs
 -- Occupied --
-10.173 -10.173 -10.172 -10.172 -10.166 -10.166 -10.163 -10.163
-10.163 -10.163 -10.163 -10.162 -10.162 -10.162 -10.156 -10.155
 -0.861  -0.848  -0.793  -0.776  -0.744  -0.733  -0.732  -0.708
 -0.667  -0.644  -0.608  -0.598  -0.577  -0.565  -0.499  -0.484
 -0.474  -0.465  -0.462  -0.459  -0.451  -0.443  -0.417  -0.409
 -0.407  -0.398  -0.396  -0.392  -0.383  -0.381  -0.372  -0.364
 -0.363  -0.341  -0.336  -0.333  -0.328  -0.305  -0.275  -0.260
 -0.217  -0.201

          Ground-State Mulliken Net Atomic Charges

     Atom                 Charge (a.u.)
  ----------------------------------------
      1 C                    -0.275078
      2 C                    -0.137345
      3 C                     0.147364
      4 C                    -0.318752
      5 C                    -0.275920
      6 C                     0.504910
      7 H                     0.164660
      8 H                     0.183804
      9 C                    -0.518771
     10 C                    -0.749357
     11 H                     0.146669
     12 H                     0.133734
     13 H                     0.163190
     14 H                     0.173973
     15 H                     0.149937
     16 H                     0.150030
     17 H                     0.178441
     18 H                     0.177714
     19 C                    -0.141264
     20 C                    -0.278178
     21 C                     0.520647
     22 C                    -0.278665
     23 C                    -0.325352
     24 C                     0.143623
     25 H                     0.183481
     26 H                     0.164903
     27 C                    -0.744054
     28 C                    -0.520008
     29 H                     0.150790
     30 H                     0.151127
     31 H                     0.173705
     32 H                     0.162219
     33 H                     0.148537
     34 H                     0.133456
     35 H                     0.177349
     36 H                     0.178482
  ----------------------------------------
  Sum of atomic charges =     0.000000

                    Cartesian Multipole Moments
 -----------------------------------------------------------------
    Charge (ESU x 10^10)
                 0.0000
    Dipole Moment (Debye)
         X       0.0016      Y       0.0140      Z      -0.0990
       Tot       0.1000
    Quadrupole Moments (Debye-Ang)
        XX     -91.0483     XY       0.7777     YY    -109.0380
        XZ       0.0082     YZ      -0.0014     ZZ     -92.6297

 Total job time:  216.66s(wall), 861.66s(cpu)
        *  Thank you very much for using Q-Chem.  Have a nice day.  *
