 Q-Chem 5.0, Q-Chem, Inc., Pleasanton, CA (2017)
 Q-Chem 5.0.1 for Intel X86 EM64T Linux

User input:
--------------------------------------------------------------
$molecule
0  1
--
0  1
C        +0.22270000        +1.04488000        +0.58595000
C        +0.62626000        -0.41353000        +0.99871000
C        -1.18200000        +1.23223000        +0.04377000
C        -0.37457000        -1.51643000        +0.72333000
O        -2.09172000        +0.78832000        +0.93966000
O        -1.47336000        +1.75939000        -0.99882000
O        -0.91364000        -1.42792000        -0.50620000
O        -0.62208000        -2.40877000        +1.49911000
C        -1.86134000        -2.44741000        -0.86560000
C        -3.47068000        +0.87492000        +0.53920000
C        +1.33008000        +1.39974000        -0.43491000
C        +2.63070000        +1.71700000        +0.32855000
C        +3.04336000        +0.29351000        +0.80300000
C        +1.94423000        -0.59299000        +0.15262000
O        +1.62840000        +0.13663000        -1.04376000
H        +0.27811000        +1.68786000        +1.46900000
H        +0.83923000        -0.48042000        +2.06408000
H        -2.68749000        -2.46677000        -0.15296000
H        -3.76076000        +1.91522000        +0.38406000
H        +3.37234000        +2.13782000        -0.35195000
H        +2.48236000        +2.42488000        +1.14651000
H        +4.02182000        +0.00994000        +0.41161000
H        +3.07359000        +0.18738000        +1.88928000
H        -2.21148000        -2.17765000        -1.85937000
H        -1.38062000        -3.42697000        -0.88096000
H        -4.03855000        +0.43623000        +1.35671000
H        -3.63120000        +0.31700000        -0.38495000
H        +1.03270000        +2.19943000        -1.08064000
H        +2.24339000        -1.61496000        +0.04786000
--
0  1
C        +0.23835000        +1.93135000        +3.45194000
C        +0.64191000        +0.47294000        +3.86470000
C        -1.16635000        +2.11870000        +2.90976000
C        -0.35892000        -0.62996000        +3.58932000
O        -2.07607000        +1.67479000        +3.80565000
O        -1.45771000        +2.64586000        +1.86717000
O        -0.89799000        -0.54145000        +2.35979000
O        -0.60643000        -1.52230000        +4.36510000
C        -1.84569000        -1.56094000        +2.00039000
C        -3.45503000        +1.76139000        +3.40519000
C        +1.34573000        +2.28621000        +2.43108000
C        +2.64635000        +2.60347000        +3.19454000
C        +3.05901000        +1.17998000        +3.66899000
C        +1.95988000        +0.29348000        +3.01861000
O        +1.64405000        +1.02310000        +1.82223000
H        +0.29376000        +2.57433000        +4.33499000
H        +0.85488000        +0.40605000        +4.93007000
H        -2.67184000        -1.58030000        +2.71303000
H        -3.74511000        +2.80169000        +3.25005000
H        +3.38799000        +3.02429000        +2.51404000
H        +2.49801000        +3.31135000        +4.01250000
H        +4.03747000        +0.89641000        +3.27760000
H        +3.08924000        +1.07385000        +4.75527000
H        -2.19583000        -1.29118000        +1.00662000
H        -1.36497000        -2.54050000        +1.98503000
H        -4.02290000        +1.32270000        +4.22270000
H        -3.61555000        +1.20347000        +2.48104000
H        +1.04835000        +3.08590000        +1.78535000
H        +2.25904000        -0.72849000        +2.91385000
$end

$rem
JOBTYPE                   SP
METHOD                    B3LYP
DFT_D                     d3_op
BASIS                     6-311++G(d,p)
SYMMETRY                  False
THRESH                    12
SCF_CONVERGENCE           8
MAX_SUB_FILE_NUM          128
MEM_STATIC                400
MEM_TOTAL                 4000
$end
--------------------------------------------------------------

             Standard Nuclear Orientation (Angstroms)
    I     Atom           X                Y                Z
 ----------------------------------------------------------------
    1      C       0.2340086925    -0.7173968527    -0.9620267524
    2      C       0.2173285190    -1.1362196781     0.5494296420
    3      C      -1.1153279309    -0.5724217785    -1.6406386957
    4      C      -1.1272604407    -1.4605967523     1.1664736328
    5      O      -1.8812464074     0.3184928830    -0.9721288514
    6      O      -1.4536329209    -1.1088055825    -2.6641739281
    7      O      -1.8813378358    -2.2454550966     0.3755632919
    8      O      -1.4652471200    -1.1011055004     2.2691510691
    9      C      -3.1696599998    -2.6239998840     0.8889767276
   10      C      -3.2068958597     0.5292439450    -1.4894643059
   11      C       1.1214027028    -1.8220421141    -1.5838482222
   12      C       2.5951563150    -1.5330865558    -1.2378822708
   13      C       2.6129531782    -1.8893921137     0.2768601097
   14      C       1.1614886613    -2.3978221679     0.5042645673
   15      O       0.8314833428    -2.9677105448    -0.7723492213
   16      H       0.7065538664     0.2651531405    -1.0490176738
   17      H       0.6418516018    -0.3586703529     1.1819175304
   18      H      -3.7620169640    -1.7373716013     1.1208342637
   19      H      -3.1640563063     0.9443707875    -2.4975681663
   20      H       3.2508803954    -2.1932550524    -1.8074462256
   21      H       2.8876829323    -0.5024068416    -1.4483220878
   22      H       3.3201411144    -2.6927757521     0.4900314047
   23      H       2.8625142247    -1.0438535466     0.9210382558
   24      H      -3.6353441086    -3.2064784902     0.0972670117
   25      H      -3.0586057333    -3.2250914891     1.7929796445
   26      H      -3.6773885537     1.2317348987    -0.8050733811
   27      H      -3.7570069865    -0.4130368105    -1.5135338957
   28      H       0.9617804004    -1.9123978393    -2.6380127051
   29      H       1.0715011998    -3.0242114395     1.3670697488
   30      C       1.2201875946     2.0272937584    -0.2591062120
   31      C       1.2035074211     1.6084709330     1.2523501823
   32      C      -0.1291490288     2.1722688326    -0.9377181554
   33      C      -0.1410815386     1.2840938587     1.8693941732
   34      O      -0.8950675052     3.0631834941    -0.2692083110
   35      O      -0.4674540188     1.6358850286    -1.9612533877
   36      O      -0.8951589337     0.4992355144     1.0784838322
   37      O      -0.4790682179     1.6435851107     2.9720716095
   38      C      -2.1834810977     0.1206907271     1.5918972679
   39      C      -2.2207169576     3.2739345561    -0.7865437656
   40      C       2.1075816050     0.9226484970    -0.8809276819
   41      C       3.5813352171     1.2116040553    -0.5349617305
   42      C       3.5991320803     0.8552984974     0.9797806500
   43      C       2.1476675634     0.3468684432     1.2071851077
   44      O       1.8176622449    -0.2230199337    -0.0694286810
   45      H       1.6927327685     3.0098437516    -0.3460971335
   46      H       1.6280305039     2.3860202582     1.8848380707
   47      H      -2.7758380618     1.0073190097     1.8237548040
   48      H      -2.1778774042     3.6890613986    -1.7946476259
   49      H       4.2370592975     0.5514355587    -1.1045256852
   50      H       3.8738618344     2.2422837695    -0.7454015474
   51      H       4.3063200165     0.0519148590     1.1929519451
   52      H       3.8486931268     1.7008370644     1.6239587961
   53      H      -2.6491652064    -0.4617878792     0.8001875521
   54      H      -2.0724268312    -0.4804008780     2.4959001848
   55      H      -2.6912096516     3.9764255098    -0.1021528407
   56      H      -2.7708280844     2.3316538006    -0.8106133553
   57      H       1.9479593025     0.8322927718    -1.9350921647
   58      H       2.0576801019    -0.2795208284     2.0699902892
 ----------------------------------------------------------------

   17   -1530.7764000935      3.71E-09 Convergence criterion met
 Total energy in the final basis set = -1530.77640009

                    Orbital Energies (a.u.)
 --------------------------------------------------------------

 Alpha MOs
 -- Occupied --
-19.183 -19.181 -19.164 -19.159 -19.143 -19.138 -19.127 -19.124
-19.106 -19.088 -10.318 -10.316 -10.274 -10.268 -10.264 -10.261
-10.229 -10.229 -10.228 -10.225 -10.222 -10.217 -10.205 -10.205
-10.204 -10.204 -10.170 -10.159 -10.147 -10.147  -1.244  -1.150
 -1.129  -1.120  -1.095  -1.073  -1.042  -1.038  -1.034  -1.004
 -0.875  -0.845  -0.838  -0.812  -0.786  -0.774  -0.761  -0.747
 -0.730  -0.722  -0.717  -0.686  -0.657  -0.647  -0.633  -0.616
 -0.606  -0.591  -0.588  -0.580  -0.569  -0.557  -0.550  -0.539
 -0.536  -0.529  -0.525  -0.512  -0.504  -0.495  -0.494  -0.481
 -0.480  -0.474  -0.470  -0.464  -0.457  -0.453  -0.451  -0.444
 -0.438  -0.436  -0.430  -0.425  -0.421  -0.408  -0.402  -0.399
 -0.389  -0.389  -0.380  -0.379  -0.374  -0.369  -0.361  -0.359
 -0.355  -0.350  -0.344  -0.335  -0.330  -0.324  -0.317  -0.307
 -0.305  -0.303  -0.297  -0.288  -0.276  -0.274  -0.261  -0.245
 -0.225  -0.147

          Ground-State Mulliken Net Atomic Charges

     Atom                 Charge (a.u.)
  ----------------------------------------
      1 C                    -0.011173
      2 C                    -0.495303
      3 C                    -0.293116
      4 C                    -0.455815
      5 O                    -0.052779
      6 O                    -0.081830
      7 O                     0.110860
      8 O                     0.291071
      9 C                    -0.123230
     10 C                    -0.386466
     11 C                    -0.518075
     12 C                    -0.169519
     13 C                    -0.296409
     14 C                    -0.830264
     15 O                    -0.124246
     16 H                     0.269022
     17 H                     0.354089
     18 H                     0.207007
     19 H                     0.219683
     20 H                     0.196221
     21 H                     0.122145
     22 H                     0.179513
     23 H                     0.165246
     24 H                     0.197004
     25 H                     0.152698
     26 H                     0.171552
     27 H                     0.209627
     28 H                     0.259478
     29 H                     0.227290
     30 C                    -0.035300
     31 C                     0.032426
     32 C                    -0.630160
     33 C                    -0.415981
     34 O                     0.153695
     35 O                     0.017337
     36 O                     0.326297
     37 O                    -0.102530
     38 C                    -0.134798
     39 C                    -0.095550
     40 C                    -0.234193
     41 C                    -0.534099
     42 C                    -0.492386
     43 C                    -0.025173
     44 O                    -0.168207
     45 H                     0.274692
     46 H                     0.300089
     47 H                     0.208816
     48 H                     0.168628
     49 H                     0.199610
     50 H                     0.153354
     51 H                     0.187084
     52 H                     0.153131
     53 H                    -0.117771
     54 H                     0.341045
     55 H                     0.180403
     56 H                     0.170396
     57 H                     0.341651
     58 H                     0.283212
  ----------------------------------------
  Sum of atomic charges =     0.000000

                    Cartesian Multipole Moments
 -----------------------------------------------------------------
    Charge (ESU x 10^10)
                 0.0000
    Dipole Moment (Debye)
         X       1.3756      Y       4.3979      Z       1.8803
       Tot       4.9769
    Quadrupole Moments (Debye-Ang)
        XX    -152.2527     XY       9.4211     YY    -184.6652
        XZ      -0.2097     YZ     -16.4275     ZZ    -195.8602

 Total job time:  10654.47s(wall), 10629.18s(cpu)
        *  Thank you very much for using Q-Chem.  Have a nice day.  *
