 Q-Chem 5.0, Q-Chem, Inc., Pleasanton, CA (2017)
 Q-Chem 5.0.1 for Intel X86 EM64T Linux

User input:
--------------------------------------------------------------
$molecule
0  1
C        +0.23835000        +1.93135000        +3.45194000
C        +0.64191000        +0.47294000        +3.86470000
C        -1.16635000        +2.11870000        +2.90976000
C        -0.35892000        -0.62996000        +3.58932000
O        -2.07607000        +1.67479000        +3.80565000
O        -1.45771000        +2.64586000        +1.86717000
O        -0.89799000        -0.54145000        +2.35979000
O        -0.60643000        -1.52230000        +4.36510000
C        -1.84569000        -1.56094000        +2.00039000
C        -3.45503000        +1.76139000        +3.40519000
C        +1.34573000        +2.28621000        +2.43108000
C        +2.64635000        +2.60347000        +3.19454000
C        +3.05901000        +1.17998000        +3.66899000
C        +1.95988000        +0.29348000        +3.01861000
O        +1.64405000        +1.02310000        +1.82223000
H        +0.29376000        +2.57433000        +4.33499000
H        +0.85488000        +0.40605000        +4.93007000
H        -2.67184000        -1.58030000        +2.71303000
H        -3.74511000        +2.80169000        +3.25005000
H        +3.38799000        +3.02429000        +2.51404000
H        +2.49801000        +3.31135000        +4.01250000
H        +4.03747000        +0.89641000        +3.27760000
H        +3.08924000        +1.07385000        +4.75527000
H        -2.19583000        -1.29118000        +1.00662000
H        -1.36497000        -2.54050000        +1.98503000
H        -4.02290000        +1.32270000        +4.22270000
H        -3.61555000        +1.20347000        +2.48104000
H        +1.04835000        +3.08590000        +1.78535000
H        +2.25904000        -0.72849000        +2.91385000
@C        +0.22270000        +1.04488000        +0.58595000
@C        +0.62626000        -0.41353000        +0.99871000
@C        -1.18200000        +1.23223000        +0.04377000
@C        -0.37457000        -1.51643000        +0.72333000
@O        -2.09172000        +0.78832000        +0.93966000
@O        -1.47336000        +1.75939000        -0.99882000
@O        -0.91364000        -1.42792000        -0.50620000
@O        -0.62208000        -2.40877000        +1.49911000
@C        -1.86134000        -2.44741000        -0.86560000
@C        -3.47068000        +0.87492000        +0.53920000
@C        +1.33008000        +1.39974000        -0.43491000
@C        +2.63070000        +1.71700000        +0.32855000
@C        +3.04336000        +0.29351000        +0.80300000
@C        +1.94423000        -0.59299000        +0.15262000
@O        +1.62840000        +0.13663000        -1.04376000
@H        +0.27811000        +1.68786000        +1.46900000
@H        +0.83923000        -0.48042000        +2.06408000
@H        -2.68749000        -2.46677000        -0.15296000
@H        -3.76076000        +1.91522000        +0.38406000
@H        +3.37234000        +2.13782000        -0.35195000
@H        +2.48236000        +2.42488000        +1.14651000
@H        +4.02182000        +0.00994000        +0.41161000
@H        +3.07359000        +0.18738000        +1.88928000
@H        -2.21148000        -2.17765000        -1.85937000
@H        -1.38062000        -3.42697000        -0.88096000
@H        -4.03855000        +0.43623000        +1.35671000
@H        -3.63120000        +0.31700000        -0.38495000
@H        +1.03270000        +2.19943000        -1.08064000
@H        +2.24339000        -1.61496000        +0.04786000
$end

$rem
JOBTYPE                   SP
METHOD                    B3LYP
DFT_D                     d3_op
BASIS                     6-311++G(d,p)
SYMMETRY                  False
THRESH                    12
SCF_CONVERGENCE           8
MAX_SUB_FILE_NUM          128
MEM_STATIC                400
MEM_TOTAL                 4000
$end
--------------------------------------------------------------

             Standard Nuclear Orientation (Angstroms)
    I     Atom           X                Y                Z
 ----------------------------------------------------------------
    1      C       0.2383500000     1.9313500000     3.4519400000
    2      C       0.6419100000     0.4729400000     3.8647000000
    3      C      -1.1663500000     2.1187000000     2.9097600000
    4      C      -0.3589200000    -0.6299600000     3.5893200000
    5      O      -2.0760700000     1.6747900000     3.8056500000
    6      O      -1.4577100000     2.6458600000     1.8671700000
    7      O      -0.8979900000    -0.5414500000     2.3597900000
    8      O      -0.6064300000    -1.5223000000     4.3651000000
    9      C      -1.8456900000    -1.5609400000     2.0003900000
   10      C      -3.4550300000     1.7613900000     3.4051900000
   11      C       1.3457300000     2.2862100000     2.4310800000
   12      C       2.6463500000     2.6034700000     3.1945400000
   13      C       3.0590100000     1.1799800000     3.6689900000
   14      C       1.9598800000     0.2934800000     3.0186100000
   15      O       1.6440500000     1.0231000000     1.8222300000
   16      H       0.2937600000     2.5743300000     4.3349900000
   17      H       0.8548800000     0.4060500000     4.9300700000
   18      H      -2.6718400000    -1.5803000000     2.7130300000
   19      H      -3.7451100000     2.8016900000     3.2500500000
   20      H       3.3879900000     3.0242900000     2.5140400000
   21      H       2.4980100000     3.3113500000     4.0125000000
   22      H       4.0374700000     0.8964100000     3.2776000000
   23      H       3.0892400000     1.0738500000     4.7552700000
   24      H      -2.1958300000    -1.2911800000     1.0066200000
   25      H      -1.3649700000    -2.5405000000     1.9850300000
   26      H      -4.0229000000     1.3227000000     4.2227000000
   27      H      -3.6155500000     1.2034700000     2.4810400000
   28      H       1.0483500000     3.0859000000     1.7853500000
   29      H       2.2590400000    -0.7284900000     2.9138500000
   30      GH      0.2227000000     1.0448800000     0.5859500000
   31      GH      0.6262600000    -0.4135300000     0.9987100000
   32      GH     -1.1820000000     1.2322300000     0.0437700000
   33      GH     -0.3745700000    -1.5164300000     0.7233300000
   34      GH     -2.0917200000     0.7883200000     0.9396600000
   35      GH     -1.4733600000     1.7593900000    -0.9988200000
   36      GH     -0.9136400000    -1.4279200000    -0.5062000000
   37      GH     -0.6220800000    -2.4087700000     1.4991100000
   38      GH     -1.8613400000    -2.4474100000    -0.8656000000
   39      GH     -3.4706800000     0.8749200000     0.5392000000
   40      GH      1.3300800000     1.3997400000    -0.4349100000
   41      GH      2.6307000000     1.7170000000     0.3285500000
   42      GH      3.0433600000     0.2935100000     0.8030000000
   43      GH      1.9442300000    -0.5929900000     0.1526200000
   44      GH      1.6284000000     0.1366300000    -1.0437600000
   45      GH      0.2781100000     1.6878600000     1.4690000000
   46      GH      0.8392300000    -0.4804200000     2.0640800000
   47      GH     -2.6874900000    -2.4667700000    -0.1529600000
   48      GH     -3.7607600000     1.9152200000     0.3840600000
   49      GH      3.3723400000     2.1378200000    -0.3519500000
   50      GH      2.4823600000     2.4248800000     1.1465100000
   51      GH      4.0218200000     0.0099400000     0.4116100000
   52      GH      3.0735900000     0.1873800000     1.8892800000
   53      GH     -2.2114800000    -2.1776500000    -1.8593700000
   54      GH     -1.3806200000    -3.4269700000    -0.8809600000
   55      GH     -4.0385500000     0.4362300000     1.3567100000
   56      GH     -3.6312000000     0.3170000000    -0.3849500000
   57      GH      1.0327000000     2.1994300000    -1.0806400000
   58      GH      2.2433900000    -1.6149600000     0.0478600000
 ----------------------------------------------------------------

   14    -765.8640783729      6.76E-09 Convergence criterion met
 Total energy in the final basis set = -765.86407837

                    Orbital Energies (a.u.)
 --------------------------------------------------------------

 Alpha MOs
 -- Occupied --
-19.176 -19.174 -19.137 -19.120 -19.116 -10.310 -10.306 -10.242
-10.232 -10.232 -10.230 -10.206 -10.206 -10.182 -10.180  -1.120
 -1.113  -1.065  -1.031  -1.027  -0.833  -0.785  -0.778  -0.739
 -0.729  -0.658  -0.610  -0.596  -0.580  -0.567  -0.551  -0.520
 -0.506  -0.496  -0.488  -0.484  -0.475  -0.473  -0.461  -0.439
 -0.426  -0.424  -0.418  -0.399  -0.385  -0.376  -0.371  -0.368
 -0.362  -0.356  -0.336  -0.334  -0.320  -0.313  -0.290  -0.282
 -0.276

          Ground-State Mulliken Net Atomic Charges

     Atom                 Charge (a.u.)
  ----------------------------------------
      1 C                    -0.148796
      2 C                    -0.070856
      3 C                    -0.720094
      4 C                    -0.563171
      5 O                     0.162453
      6 O                    -0.036405
      7 O                    -0.068390
      8 O                    -0.089870
      9 C                    -0.215735
     10 C                    -0.161914
     11 C                     0.130593
     12 C                    -0.581727
     13 C                    -0.464718
     14 C                     0.329585
     15 O                    -0.328251
     16 H                     0.252113
     17 H                     0.274390
     18 H                     0.254970
     19 H                     0.175392
     20 H                     0.172255
     21 H                     0.142013
     22 H                     0.164397
     23 H                     0.141857
     24 H                     0.127286
     25 H                     0.298518
     26 H                     0.178410
     27 H                     0.248108
     28 H                     0.297046
     29 H                     0.279296
     30 GH                   -0.199058
     31 GH                   -0.012204
     32 GH                   -0.017813
     33 GH                   -0.036051
     34 GH                   -0.191113
     35 GH                   -0.000410
     36 GH                   -0.025943
     37 GH                   -0.200027
     38 GH                    0.003202
     39 GH                   -0.041007
     40 GH                    0.266453
     41 GH                   -0.164293
     42 GH                   -0.066252
     43 GH                    0.465836
     44 GH                   -0.032949
     45 GH                    0.222717
     46 GH                   -0.122104
     47 GH                    0.004961
     48 GH                    0.000490
     49 GH                    0.006246
     50 GH                   -0.023706
     51 GH                    0.014118
     52 GH                   -0.012917
     53 GH                   -0.002019
     54 GH                    0.000135
     55 GH                   -0.016405
     56 GH                   -0.004971
     57 GH                    0.002704
     58 GH                    0.003623
  ----------------------------------------
  Sum of atomic charges =     0.000000

                    Cartesian Multipole Moments
 -----------------------------------------------------------------
    Charge (ESU x 10^10)
                 0.0000
    Dipole Moment (Debye)
         X       0.0229      Y       0.7228      Z       1.1393
       Tot       1.3495
    Quadrupole Moments (Debye-Ang)
        XX     -75.3245     XY       2.9333     YY     -88.6157
        XZ       3.3286     YZ      13.7710     ZZ     -89.0404

 Total job time:  9849.44s(wall), 9825.92s(cpu)
        *  Thank you very much for using Q-Chem.  Have a nice day.  *
