 Q-Chem 5.0, Q-Chem, Inc., Pleasanton, CA (2017)
 Q-Chem 5.0.1 for Intel X86 EM64T Linux

User input:
--------------------------------------------------------------
$molecule
0  1
--
0  1
C        -0.54444000        -0.68370000        -0.06689000
C        -0.55709000        +0.71878000        +0.05493000
C        +0.74969000        -1.43776000        -0.09374000
C        +0.72843000        +1.48436000        +0.06598000
O        +1.53645000        -1.09176000        +0.94813000
O        +1.04702000        -2.28405000        -0.90088000
O        +1.53784000        +1.08301000        -0.93877000
O        +1.01035000        +2.37097000        +0.83478000
C        +2.83449000        +1.70121000        -0.99358000
C        +2.82316000        -1.73208000        +1.00475000
C        -1.74320000        -1.41616000        -0.12552000
C        -2.93952000        -0.70056000        -0.05285000
C        -2.95313000        +0.68255000        +0.06934000
C        -1.77161000        +1.42404000        +0.12810000
H        +2.73835000        +2.77989000        -1.12464000
H        +2.70778000        -2.81319000        +1.09555000
H        -3.90354000        +1.20325000        +0.11710000
H        +3.38998000        +1.50093000        -0.07544000
H        +3.33184000        +1.25269000        -1.85067000
H        +3.31095000        -1.32281000        +1.88650000
H        +3.39889000        -1.50934000        +0.10459000
H        -3.87892000        -1.24211000        -0.08988000
H        -1.78886000        +2.45164000        +0.22176000
H        -1.73878000        -2.44393000        -0.21875000
--
0  1
C        -0.52380000        -0.94527000        +2.92161000
C        -0.53645000        +0.45721000        +3.04343000
C        +0.77033000        -1.69933000        +2.89476000
C        +0.74907000        +1.22279000        +3.05448000
O        +1.55709000        -1.35333000        +3.93663000
O        +1.06766000        -2.54562000        +2.08762000
O        +1.55848000        +0.82144000        +2.04973000
O        +1.03099000        +2.10940000        +3.82328000
C        +2.85513000        +1.43964000        +1.99492000
C        +2.84380000        -1.99365000        +3.99325000
C        -1.72256000        -1.67773000        +2.86298000
C        -2.91888000        -0.96213000        +2.93565000
C        -2.93249000        +0.42098000        +3.05784000
C        -1.75097000        +1.16247000        +3.11660000
H        +2.75899000        +2.51832000        +1.86386000
H        +2.72842000        -3.07476000        +4.08405000
H        -3.88290000        +0.94168000        +3.10560000
H        +3.41062000        +1.23936000        +2.91306000
H        +3.35248000        +0.99112000        +1.13783000
H        +3.33159000        -1.58438000        +4.87500000
H        +3.41953000        -1.77091000        +3.09309000
H        -3.85828000        -1.50368000        +2.89862000
H        -1.76822000        +2.19007000        +3.21026000
H        -1.71814000        -2.70550000        +2.76975000
$end

$rem
JOBTYPE                   SP
METHOD                    B3LYP
DFT_D                     d3_op
BASIS                     6-311++G(d,p)
SYMMETRY                  False
THRESH                    12
SCF_CONVERGENCE           8
MAX_SUB_FILE_NUM          128
MEM_STATIC                400
MEM_TOTAL                 4000
$end
--------------------------------------------------------------

             Standard Nuclear Orientation (Angstroms)
    I     Atom           X                Y                Z
 ----------------------------------------------------------------
    1      C      -0.8397948434     1.0472776610    -1.2763498887
    2      C      -0.8659823291     1.6534821320    -0.0060032272
    3      C       0.4618163400     0.7038249950    -1.9335777459
    4      C       0.4115849880     2.0480242991     0.6655284086
    5      O       1.2533945932    -0.0088596239    -1.1031050506
    6      O       0.7613253100     0.9737791143    -3.0709018083
    7      O       1.2169135240     2.7202194415    -0.1861455740
    8      O       0.6905463700     1.8386622521     1.8209321039
    9      C       2.5066011920     3.0969013402     0.3250227592
   10      C       2.5470867760    -0.3666439849    -1.6200083666
   11      C      -2.0313396386     0.7115994287    -1.9430595642
   12      C      -3.2343783388     0.9972595336    -1.2952617396
   13      C      -3.2613220689     1.5933089375    -0.0414244121
   14      C      -2.0871082683     1.9332437608     0.6330501497
   15      H       2.3982293331     3.7557681288     1.1876468144
   16      H       2.4436548186    -0.9946431610    -2.5061657349
   17      H      -4.2166555505     1.8045971612     0.4269599399
   18      H       3.0715827233     2.2109313668     0.6208526992
   19      H       3.0015859904     3.6141007296    -0.4938944051
   20      H       3.0377636589    -0.9129219448    -0.8176738562
   21      H       3.1131406605     0.5290943209    -1.8819283041
   22      H      -4.1683877448     0.7429773208    -1.7852484426
   23      H      -2.1142407279     2.3735195792     1.5660306166
   24      H      -2.0170308092     0.2707095192    -2.8760300285
   25      C      -0.7921490313    -1.6604519686     0.0143504073
   26      C      -0.8183365171    -1.0542474977     1.2846970688
   27      C       0.5094621521    -2.0039046347    -0.6428774499
   28      C       0.4592308001    -0.6597053305     1.9562287046
   29      O       1.3010404053    -2.7165892535     0.1875952454
   30      O       0.8089711221    -1.7339505153    -1.7802015123
   31      O       1.2645593361     0.0124898118     1.1045547219
   32      O       0.7381921821    -0.8690673775     3.1116323999
   33      C       2.5542470041     0.3891717106     1.6157230551
   34      C       2.5947325881    -3.0743736145    -0.3293080707
   35      C      -1.9836938265    -1.9961302009    -0.6523592683
   36      C      -3.1867325267    -1.7104700961    -0.0045614436
   37      C      -3.2136762568    -1.1144206921     1.2492758839
   38      C      -2.0394624562    -0.7744858688     1.9237504457
   39      H       2.4458751452     1.0480384992     2.4783471104
   40      H       2.4913006307    -3.7023727906    -1.2154654390
   41      H      -4.1690097384    -0.9031324684     1.7176602359
   42      H       3.1192285354    -0.4967982629     1.9115529952
   43      H       3.0492318025     0.9063711000     0.7968058908
   44      H       3.0854094710    -3.6206515744     0.4730264397
   45      H       3.1607864725    -2.1786353088    -0.5912280082
   46      H      -4.1207419327    -1.9647523088    -0.4945481466
   47      H      -2.0665949158    -0.3342100504     2.8567309125
   48      H      -1.9693849971    -2.4370201104    -1.5853297326
 ----------------------------------------------------------------

   16   -1376.2172209367      5.65E-09 Convergence criterion met
 Total energy in the final basis set = -1376.21722094

                    Orbital Energies (a.u.)
 --------------------------------------------------------------

 Alpha MOs
 -- Occupied --
-19.178 -19.177 -19.152 -19.149 -19.110 -19.110 -19.108 -19.106
-10.311 -10.309 -10.300 -10.298 -10.231 -10.229 -10.219 -10.217
-10.209 -10.208 -10.207 -10.207 -10.194 -10.194 -10.193 -10.193
-10.193 -10.192 -10.192 -10.191  -1.140  -1.128  -1.104  -1.101
 -1.041  -1.037  -1.016  -1.008  -0.890  -0.877  -0.804  -0.791
 -0.789  -0.777  -0.750  -0.742  -0.735  -0.722  -0.658  -0.650
 -0.648  -0.638  -0.599  -0.591  -0.586  -0.579  -0.557  -0.554
 -0.542  -0.531  -0.526  -0.521  -0.509  -0.501  -0.496  -0.485
 -0.483  -0.475  -0.474  -0.469  -0.466  -0.463  -0.462  -0.459
 -0.442  -0.436  -0.426  -0.424  -0.420  -0.409  -0.404  -0.398
 -0.397  -0.388  -0.384  -0.384  -0.370  -0.369  -0.364  -0.353
 -0.353  -0.331  -0.330  -0.323  -0.307  -0.305  -0.294  -0.292
 -0.279  -0.276  -0.269  -0.258  -0.245  -0.242

          Ground-State Mulliken Net Atomic Charges

     Atom                 Charge (a.u.)
  ----------------------------------------
      1 C                     0.302838
      2 C                     0.349100
      3 C                    -0.682936
      4 C                    -0.871819
      5 O                     0.071712
      6 O                    -0.108576
      7 O                     0.237653
      8 O                    -0.143812
      9 C                    -0.067472
     10 C                    -0.395480
     11 C                     0.126522
     12 C                    -0.173989
     13 C                    -0.385687
     14 C                    -0.086720
     15 H                     0.173738
     16 H                     0.263070
     17 H                     0.183050
     18 H                     0.212453
     19 H                     0.181734
     20 H                     0.036969
     21 H                     0.194804
     22 H                     0.185186
     23 H                     0.210910
     24 H                     0.224763
     25 C                     0.215540
     26 C                     0.389836
     27 C                    -0.861451
     28 C                    -0.699184
     29 O                     0.238173
     30 O                    -0.156636
     31 O                     0.032672
     32 O                    -0.104442
     33 C                    -0.438934
     34 C                    -0.068618
     35 C                    -0.051827
     36 C                    -0.377601
     37 C                    -0.185330
     38 C                     0.124206
     39 H                     0.270786
     40 H                     0.174522
     41 H                     0.185065
     42 H                     0.195643
     43 H                     0.059944
     44 H                     0.182815
     45 H                     0.219436
     46 H                     0.183251
     47 H                     0.225995
     48 H                     0.208129
  ----------------------------------------
  Sum of atomic charges =     0.000000

                    Cartesian Multipole Moments
 -----------------------------------------------------------------
    Charge (ESU x 10^10)
                 0.0000
    Dipole Moment (Debye)
         X      -0.4061      Y      -0.3006      Z      -0.1215
       Tot       0.5197
    Quadrupole Moments (Debye-Ang)
        XX    -127.5478     XY       0.0168     YY    -160.5719
        XZ       0.1828     YZ      12.1105     ZZ    -186.7992

 Total job time:  1711.48s(wall), 3408.79s(cpu)
        *  Thank you very much for using Q-Chem.  Have a nice day.  *
