 Q-Chem 5.0, Q-Chem, Inc., Pleasanton, CA (2017)
 Q-Chem 5.0.1 for Intel X86 EM64T Linux

User input:
--------------------------------------------------------------
$molecule
0  1
--
0  1
C        +0.22270000        +1.04488000        +0.58595000
C        +0.62626000        -0.41353000        +0.99871000
C        -1.18200000        +1.23223000        +0.04377000
C        -0.37457000        -1.51643000        +0.72333000
O        -2.09172000        +0.78832000        +0.93966000
O        -1.47336000        +1.75939000        -0.99882000
O        -0.91364000        -1.42792000        -0.50620000
O        -0.62208000        -2.40877000        +1.49911000
C        -1.86134000        -2.44741000        -0.86560000
C        -3.47068000        +0.87492000        +0.53920000
C        +1.33008000        +1.39974000        -0.43491000
C        +2.63070000        +1.71700000        +0.32855000
C        +3.04336000        +0.29351000        +0.80300000
C        +1.94423000        -0.59299000        +0.15262000
O        +1.62840000        +0.13663000        -1.04376000
H        +0.27811000        +1.68786000        +1.46900000
H        +0.83923000        -0.48042000        +2.06408000
H        -2.68749000        -2.46677000        -0.15296000
H        -3.76076000        +1.91522000        +0.38406000
H        +3.37234000        +2.13782000        -0.35195000
H        +2.48236000        +2.42488000        +1.14651000
H        +4.02182000        +0.00994000        +0.41161000
H        +3.07359000        +0.18738000        +1.88928000
H        -2.21148000        -2.17765000        -1.85937000
H        -1.38062000        -3.42697000        -0.88096000
H        -4.03855000        +0.43623000        +1.35671000
H        -3.63120000        +0.31700000        -0.38495000
C        +2.35450000        -2.01267000        -0.16812000
H        +3.26311000        -2.00678000        -0.77366000
H        +2.54990000        -2.57059000        +0.75079000
H        +1.57335000        -2.52896000        -0.72872000
H        +1.03270000        +2.19943000        -1.08064000
--
0  1
C        +0.23835000        +1.93135000        +3.45194000
C        +0.64191000        +0.47294000        +3.86470000
C        -1.16635000        +2.11870000        +2.90976000
C        -0.35892000        -0.62996000        +3.58932000
O        -2.07607000        +1.67479000        +3.80565000
O        -1.45771000        +2.64586000        +1.86717000
O        -0.89799000        -0.54145000        +2.35979000
O        -0.60643000        -1.52230000        +4.36510000
C        -1.84569000        -1.56094000        +2.00039000
C        -3.45503000        +1.76139000        +3.40519000
C        +1.34573000        +2.28621000        +2.43108000
C        +2.64635000        +2.60347000        +3.19454000
C        +3.05901000        +1.17998000        +3.66899000
C        +1.95988000        +0.29348000        +3.01861000
O        +1.64405000        +1.02310000        +1.82223000
H        +0.29376000        +2.57433000        +4.33499000
H        +0.85488000        +0.40605000        +4.93007000
H        -2.67184000        -1.58030000        +2.71303000
H        -3.74511000        +2.80169000        +3.25005000
H        +3.38799000        +3.02429000        +2.51404000
H        +2.49801000        +3.31135000        +4.01250000
H        +4.03747000        +0.89641000        +3.27760000
H        +3.08924000        +1.07385000        +4.75527000
H        -2.19583000        -1.29118000        +1.00662000
H        -1.36497000        -2.54050000        +1.98503000
H        -4.02290000        +1.32270000        +4.22270000
H        -3.61555000        +1.20347000        +2.48104000
C        +2.37015000        -1.12620000        +2.69787000
H        +3.27876000        -1.12031000        +2.09233000
H        +2.56555000        -1.68412000        +3.61678000
H        +1.58900000        -1.64249000        +2.13727000
H        +1.04835000        +3.08590000        +1.78535000
$end

$rem
JOBTYPE                   SP
METHOD                    B3LYP
DFT_D                     d3_op
BASIS                     6-311++G(d,p)
SYMMETRY                  False
THRESH                    12
SCF_CONVERGENCE           8
MAX_SUB_FILE_NUM          128
MEM_STATIC                400
MEM_TOTAL                 4000
$end
--------------------------------------------------------------

             Standard Nuclear Orientation (Angstroms)
    I     Atom           X                Y                Z
 ----------------------------------------------------------------
    1      C       0.1314675167    -0.3375029420    -1.1945809651
    2      C       0.4422313788    -0.9649680390     0.2089519321
    3      C      -1.2887048636    -0.4902783118    -1.7064514187
    4      C      -0.6636137516    -1.7543661832     0.8781606893
    5      O      -2.1643169191     0.0291460758    -0.8172004459
    6      O      -1.6106828586    -0.9418359654    -2.7751927717
    7      O      -1.2816185872    -2.5963355881     0.0300262363
    8      O      -0.9268033096    -1.6781475959     2.0547185789
    9      C      -2.3338880019    -3.4050493383     0.5826333836
   10      C      -3.5569048079    -0.0787869738    -1.1613630267
   11      C       1.1870886785    -1.0306782615    -2.0887527399
   12      C       2.5615807891    -0.3817647963    -1.8341545936
   13      C       2.8887634888    -0.9406303199    -0.4191154896
   14      C       1.6757777861    -1.8765359084    -0.1550897978
   15      O       1.3349952290    -2.3193775871    -1.4784104446
   16      H       0.3039117202     0.7413245171    -1.1429557658
   17      H       0.7259506474    -0.2017822800     0.9313746641
   18      H      -3.1047318800    -2.7737862609     1.0276738811
   19      H      -3.7706379603     0.4772518900    -2.0754624947
   20      H       3.2839096791    -0.7299339941    -2.5738969787
   21      H       2.5321317504     0.7088273344    -1.8777317677
   22      H       3.8093731731    -1.5266640071    -0.4240526026
   23      H       2.9891361474    -0.1657195782     0.3435248844
   24      H      -2.7319834589    -3.9719254003    -0.2558884274
   25      H      -1.9380724046    -4.0765632246     1.3463509722
   26      H      -4.0980196421     0.3459123996    -0.3187047142
   27      H      -3.8297907438    -1.1254029810    -1.3070435630
   28      C       1.9430049749    -3.0506156500     0.7596852089
   29      H       2.8024933383    -3.6159591687     0.3936907076
   30      H       2.1580620950    -2.7038245775     1.7732619754
   31      H       1.0831654155    -3.7216603249     0.7970753543
   32      H       0.9105190600    -1.0042307546    -3.1220561653
   33      C       0.4288638364     2.4373102062    -0.0936994614
   34      C       0.7396276985     1.8098451092     1.3098334357
   35      C      -0.9913085440     2.2845348365    -0.6055699151
   36      C      -0.3662174319     1.0204469650     1.9790421929
   37      O      -1.8669205994     2.8039592240     0.2836810577
   38      O      -1.3132865389     1.8329771828    -1.6743112680
   39      O      -0.9842222676     0.1784775601     1.1309077400
   40      O      -0.6294069900     1.0966655523     3.1556000825
   41      C      -2.0364916822    -0.6302361901     1.6835148872
   42      C      -3.2595084882     2.6960261744    -0.0604815230
   43      C       1.4844849981     1.7441348867    -0.9878712363
   44      C       2.8589771087     2.3930483519    -0.7332730900
   45      C       3.1861598084     1.8341828283     0.6817660140
   46      C       1.9731741058     0.8982772398     0.9457917058
   47      O       1.6323915486     0.4554355611    -0.3775289409
   48      H       0.6013080398     3.5161376653    -0.0420742622
   49      H       1.0233469670     2.5730308682     2.0322561677
   50      H      -2.8073355603     0.0010268873     2.1285553847
   51      H      -3.4732416406     3.2520650382    -0.9745809911
   52      H       3.5813059988     2.0448791541    -1.4730154750
   53      H       2.8295280701     3.4836404827    -0.7768502641
   54      H       4.1067694928     1.2481491411     0.6768289010
   55      H       3.2865324671     2.6090935700     1.4444063880
   56      H      -2.4345871392    -1.1971122521     0.8449930762
   57      H      -1.6406760850    -1.3017500763     2.4472324759
   58      H      -3.8006233224     3.1207255478     0.7821767894
   59      H      -3.5323944242     1.6494101672    -0.2061620594
   60      C       2.2404012946    -0.2758025018     1.8605667125
   61      H       3.0998896579    -0.8411460205     1.4945722112
   62      H       2.4554584147     0.0709885707     2.8741434790
   63      H       1.3805617352    -0.9468471766     1.8979568579
   64      H       1.2079153796     1.7705823936    -2.0211746617
 ----------------------------------------------------------------

   16   -1609.3667267900      9.41E-09 Convergence criterion met
 Total energy in the final basis set = -1609.36672679

                    Orbital Energies (a.u.)
 --------------------------------------------------------------

 Alpha MOs
 -- Occupied --
-19.186 -19.180 -19.165 -19.160 -19.142 -19.133 -19.127 -19.123
-19.104 -19.086 -10.317 -10.316 -10.272 -10.270 -10.264 -10.258
-10.231 -10.228 -10.228 -10.225 -10.221 -10.218 -10.211 -10.205
-10.202 -10.199 -10.175 -10.162 -10.155 -10.152 -10.142 -10.138
 -1.247  -1.148  -1.128  -1.120  -1.094  -1.074  -1.041  -1.038
 -1.034  -1.002  -0.875  -0.872  -0.840  -0.813  -0.792  -0.776
 -0.770  -0.753  -0.740  -0.733  -0.723  -0.714  -0.690  -0.688
 -0.645  -0.637  -0.623  -0.606  -0.594  -0.589  -0.581  -0.574
 -0.570  -0.554  -0.552  -0.537  -0.531  -0.527  -0.525  -0.509
 -0.503  -0.497  -0.492  -0.487  -0.478  -0.474  -0.471  -0.465
 -0.456  -0.455  -0.452  -0.448  -0.442  -0.440  -0.432  -0.429
 -0.426  -0.425  -0.414  -0.408  -0.403  -0.393  -0.389  -0.385
 -0.381  -0.376  -0.372  -0.369  -0.364  -0.362  -0.360  -0.355
 -0.348  -0.342  -0.334  -0.329  -0.325  -0.322  -0.312  -0.305
 -0.299  -0.296  -0.293  -0.288  -0.275  -0.270  -0.256  -0.244
 -0.219  -0.149

          Ground-State Mulliken Net Atomic Charges

     Atom                 Charge (a.u.)
  ----------------------------------------
      1 C                    -0.419378
      2 C                    -1.155420
      3 C                    -0.166308
      4 C                    -0.927151
      5 O                    -0.072804
      6 O                    -0.065105
      7 O                     0.264704
      8 O                     0.302065
      9 C                    -0.115068
     10 C                    -0.343999
     11 C                     0.024110
     12 C                    -0.292576
     13 C                    -0.222482
     14 C                    -0.144897
     15 O                    -0.018118
     16 H                     0.111707
     17 H                    -0.116681
     18 H                     0.220820
     19 H                     0.221787
     20 H                     0.192434
     21 H                     0.069888
     22 H                     0.173078
     23 H                    -0.050288
     24 H                     0.196228
     25 H                     0.156905
     26 H                     0.180190
     27 H                     0.208714
     28 C                    -0.332418
     29 H                     0.207659
     30 H                     0.126884
     31 H                     0.194152
     32 H                     0.266045
     33 C                     0.108702
     34 C                     0.206668
     35 C                    -0.695043
     36 C                    -0.618727
     37 O                     0.145190
     38 O                    -0.018467
     39 O                     0.371345
     40 O                    -0.071629
     41 C                     0.122312
     42 C                    -0.105497
     43 C                    -0.180741
     44 C                    -0.455257
     45 C                    -0.276656
     46 C                    -0.298463
     47 O                    -0.059952
     48 H                     0.278140
     49 H                     0.293106
     50 H                     0.224997
     51 H                     0.169743
     52 H                     0.211683
     53 H                     0.153029
     54 H                     0.211581
     55 H                     0.164291
     56 H                    -0.144175
     57 H                     0.352426
     58 H                     0.179471
     59 H                     0.163140
     60 C                    -0.326122
     61 H                     0.289713
     62 H                     0.213694
     63 H                     0.338992
     64 H                     0.377831
  ----------------------------------------
  Sum of atomic charges =     0.000000

                    Cartesian Multipole Moments
 -----------------------------------------------------------------
    Charge (ESU x 10^10)
                 0.0000
    Dipole Moment (Debye)
         X       0.3289      Y       3.8989      Z       2.7144
       Tot       4.7621
    Quadrupole Moments (Debye-Ang)
        XX    -172.5474     XY      13.0092     YY    -183.7096
        XZ       0.5168     YZ     -14.5050     ZZ    -216.0096

 Total job time:  9557.24s(wall), 9534.96s(cpu)
        *  Thank you very much for using Q-Chem.  Have a nice day.  *
