 Q-Chem 5.0, Q-Chem, Inc., Pleasanton, CA (2017)
 Q-Chem 5.0.1 for Intel X86 EM64T Linux

User input:
--------------------------------------------------------------
$molecule
0  1
--
0  1
C        +0.22270000        +1.04488000        +0.58595000
C        +0.62626000        -0.41353000        +0.99871000
C        -1.18200000        +1.23223000        +0.04377000
C        -0.37457000        -1.51643000        +0.72333000
O        -2.09172000        +0.78832000        +0.93966000
O        -1.47336000        +1.75939000        -0.99882000
O        -0.91364000        -1.42792000        -0.50620000
O        -0.62208000        -2.40877000        +1.49911000
C        -1.86134000        -2.44741000        -0.86560000
C        -3.47068000        +0.87492000        +0.53920000
C        +1.33008000        +1.39974000        -0.43491000
C        +2.63070000        +1.71700000        +0.32855000
C        +3.04336000        +0.29351000        +0.80300000
C        +1.94423000        -0.59299000        +0.15262000
O        +1.62840000        +0.13663000        -1.04376000
H        +0.27811000        +1.68786000        +1.46900000
H        +0.83923000        -0.48042000        +2.06408000
H        -2.68749000        -2.46677000        -0.15296000
H        -3.76076000        +1.91522000        +0.38406000
H        +3.37234000        +2.13782000        -0.35195000
H        +2.48236000        +2.42488000        +1.14651000
H        +4.02182000        +0.00994000        +0.41161000
H        +3.07359000        +0.18738000        +1.88928000
H        -2.21148000        -2.17765000        -1.85937000
H        -1.38062000        -3.42697000        -0.88096000
H        -4.03855000        +0.43623000        +1.35671000
H        -3.63120000        +0.31700000        -0.38495000
C        +0.90028000        +2.39077000        -1.49430000
C        +2.35450000        -2.01267000        -0.16812000
H        +3.26311000        -2.00678000        -0.77366000
H        +2.54990000        -2.57059000        +0.75079000
H        +1.57335000        -2.52896000        -0.72872000
H        +1.71845000        +2.58186000        -2.15686000
H        +0.59919000        +3.30478000        -1.02650000
H        +0.07925000        +1.98653000        -2.04874000
--
0  1
C        +0.23835000        +1.93135000        +3.45194000
C        +0.64191000        +0.47294000        +3.86470000
C        -1.16635000        +2.11870000        +2.90976000
C        -0.35892000        -0.62996000        +3.58932000
O        -2.07607000        +1.67479000        +3.80565000
O        -1.45771000        +2.64586000        +1.86717000
O        -0.89799000        -0.54145000        +2.35979000
O        -0.60643000        -1.52230000        +4.36510000
C        -1.84569000        -1.56094000        +2.00039000
C        -3.45503000        +1.76139000        +3.40519000
C        +1.34573000        +2.28621000        +2.43108000
C        +2.64635000        +2.60347000        +3.19454000
C        +3.05901000        +1.17998000        +3.66899000
C        +1.95988000        +0.29348000        +3.01861000
O        +1.64405000        +1.02310000        +1.82223000
H        +0.29376000        +2.57433000        +4.33499000
H        +0.85488000        +0.40605000        +4.93007000
H        -2.67184000        -1.58030000        +2.71303000
H        -3.74511000        +2.80169000        +3.25005000
H        +3.38799000        +3.02429000        +2.51404000
H        +2.49801000        +3.31135000        +4.01250000
H        +4.03747000        +0.89641000        +3.27760000
H        +3.08924000        +1.07385000        +4.75527000
H        -2.19583000        -1.29118000        +1.00662000
H        -1.36497000        -2.54050000        +1.98503000
H        -4.02290000        +1.32270000        +4.22270000
H        -3.61555000        +1.20347000        +2.48104000
C        +0.91593000        +3.27724000        +1.37169000
C        +2.37015000        -1.12620000        +2.69787000
H        +3.27876000        -1.12031000        +2.09233000
H        +2.56555000        -1.68412000        +3.61678000
H        +1.58900000        -1.64249000        +2.13727000
H        +1.73410000        +3.46833000        +0.70913000
H        +0.61484000        +4.19125000        +1.83949000
H        +0.09490000        +2.87300000        +0.81725000
$end

$rem
JOBTYPE                   SP
METHOD                    B3LYP
DFT_D                     d3_op
BASIS                     6-311++G(d,p)
SYMMETRY                  False
THRESH                    12
SCF_CONVERGENCE           8
MAX_SUB_FILE_NUM          128
MEM_STATIC                400
MEM_TOTAL                 4000
$end
--------------------------------------------------------------

             Standard Nuclear Orientation (Angstroms)
    I     Atom           X                Y                Z
 ----------------------------------------------------------------
    1      C       0.1908777497    -0.3799498900    -0.9726409180
    2      C       0.3063748423    -0.9719135617     0.4752646909
    3      C      -1.1592153987    -0.5097775374    -1.6528133502
    4      C      -0.8974889394    -1.7098347772     1.0230488801
    5      O      -2.1215304111     0.0605535997    -0.8939077768
    6      O      -1.3604767731    -0.9852558798    -2.7405616798
    7      O      -1.4316626748    -2.5605097607     0.1279594997
    8      O      -1.3015290411    -1.5901129122     2.1552082131
    9      C      -2.5685784631    -3.3227962644     0.5672831694
   10      C      -3.4635978235    -0.0200315472    -1.4055321974
   11      C       1.3269851092    -1.1289363106    -1.7092891604
   12      C       2.6788553137    -0.5101089905    -1.3035341092
   13      C       2.8113322420    -1.0336222527     0.1559516173
   14      C       1.5467342034    -1.9275470723     0.2925289540
   15      O       1.3585391111    -2.4016820137    -1.0503030169
   16      H       0.3888186041     0.6948646895    -0.9294681400
   17      H       0.5220831583    -0.1947460150     1.2062395582
   18      H      -3.3686535829    -2.6573175918     0.8955701487
   19      H      -3.5455183357     0.5130691797    -2.3539685742
   20      H       3.4759480517    -0.9005321897    -1.9378940264
   21      H       2.6886696745     0.5790099433    -1.3802220356
   22      H       3.7069820811    -1.6443690836     0.2815769446
   23      H       2.8405796820    -0.2385047594     0.9036911624
   24      H      -2.8773346024    -3.9042999100    -0.2984364426
   25      H      -2.2910423162    -3.9808830587     1.3923655289
   26      H      -4.0913042734     0.4451086771    -0.6486457874
   27      H      -3.7485503758    -1.0628382941    -1.5553679437
   28      C       1.0812742752    -1.3239090218    -3.1894200671
   29      C       1.6625657701    -3.0795988211     1.2651782942
   30      H       2.5428324647    -3.6791809739     1.0245181516
   31      H       1.7613595126    -2.7075946314     2.2877750641
   32      H       0.7844064827    -3.7255124566     1.2136526884
   33      H       1.9083724368    -1.8466906860    -3.6224457629
   34      H       0.9754287156    -0.3698317041    -3.6621139401
   35      H       0.1862601597    -1.8930873826    -3.3304508398
   36      C       0.4354504803     2.4184739294     0.0804407360
   37      C       0.5509475730     1.8265102577     1.5283463449
   38      C      -0.9146426681     2.2886462820    -0.5997316963
   39      C      -0.6529162088     1.0885890422     2.0761305341
   40      O      -1.8769576805     2.8589774191     0.1591738772
   41      O      -1.1159040425     1.8131679396    -1.6874800258
   42      O      -1.1870899442     0.2379140587     1.1810411537
   43      O      -1.0569563105     1.2083109073     3.2082898671
   44      C      -2.3240057325    -0.5243724450     1.6203648234
   45      C      -3.2190250929     2.7783922722    -0.3524505435
   46      C       1.5715578398     1.6694875088    -0.6562075064
   47      C       2.9234280443     2.2883148289    -0.2504524552
   48      C       3.0559049726     1.7648015667     1.2090332713
   49      C       1.7913069340     0.8708767471     1.3456106080
   50      O       1.6031118417     0.3967418057     0.0027786370
   51      H       0.6333913347     3.4932885089     0.1236135140
   52      H       0.7666558889     2.6036778044     2.2593212122
   53      H      -3.1240808523     0.1411062276     1.9486518027
   54      H      -3.3009456051     3.3114929991    -1.3008869202
   55      H       3.7205207823     1.8978916297    -0.8848123724
   56      H       2.9332424051     3.3774337627    -0.3271403817
   57      H       3.9515548117     1.1540547358     1.3346585986
   58      H       3.0851524126     2.5599190600     1.9567728164
   59      H      -2.6327618718    -1.1058760906     0.7546452114
   60      H      -2.0464695856    -1.1824592393     2.4454471828
   61      H      -3.8467315428     3.2435324966     0.4044358665
   62      H      -3.5039776452     1.7355855253    -0.5022862897
   63      C       1.3258470058     1.4745147976    -2.1363384131
   64      C       1.9071385007    -0.2811750017     2.3182599482
   65      H       2.7874051953    -0.8807571545     2.0775998056
   66      H       2.0059322432     0.0908291880     3.3408567181
   67      H       1.0289792133    -0.9270886372     2.2667343423
   68      H       2.1529451674     0.9517331334    -2.5693641089
   69      H       1.2200014462     2.4285921153    -2.6090322862
   70      H       0.4308328903     0.9053364368    -2.2773691859
 ----------------------------------------------------------------

   16   -1687.9301139296      8.64E-09 Convergence criterion met
 Total energy in the final basis set = -1687.93011393

                    Orbital Energies (a.u.)
 --------------------------------------------------------------

 Alpha MOs
 -- Occupied --
-19.185 -19.181 -19.164 -19.161 -19.145 -19.128 -19.126 -19.123
-19.099 -19.089 -10.320 -10.315 -10.278 -10.267 -10.264 -10.259
-10.231 -10.228 -10.227 -10.226 -10.224 -10.218 -10.207 -10.204
-10.203 -10.201 -10.172 -10.159 -10.152 -10.150 -10.149 -10.133
-10.132 -10.115  -1.246  -1.147  -1.130  -1.120  -1.098  -1.075
 -1.045  -1.038  -1.033  -1.010  -0.884  -0.874  -0.843  -0.814
 -0.804  -0.781  -0.776  -0.761  -0.746  -0.742  -0.726  -0.719
 -0.706  -0.697  -0.690  -0.660  -0.641  -0.622  -0.616  -0.606
 -0.592  -0.589  -0.580  -0.569  -0.557  -0.549  -0.546  -0.537
 -0.536  -0.523  -0.521  -0.512  -0.504  -0.496  -0.496  -0.485
 -0.477  -0.476  -0.470  -0.467  -0.463  -0.462  -0.459  -0.451
 -0.446  -0.443  -0.441  -0.428  -0.427  -0.417  -0.415  -0.413
 -0.402  -0.397  -0.396  -0.391  -0.388  -0.383  -0.382  -0.380
 -0.376  -0.370  -0.368  -0.364  -0.361  -0.357  -0.353  -0.344
 -0.339  -0.333  -0.331  -0.324  -0.312  -0.308  -0.305  -0.301
 -0.296  -0.292  -0.289  -0.286  -0.274  -0.267  -0.247  -0.240
 -0.214  -0.149

          Ground-State Mulliken Net Atomic Charges

     Atom                 Charge (a.u.)
  ----------------------------------------
      1 C                    -0.458958
      2 C                    -1.433459
      3 C                    -0.138419
      4 C                    -0.916322
      5 O                     0.024429
      6 O                     0.029960
      7 O                     0.243926
      8 O                     0.365186
      9 C                    -0.116871
     10 C                    -0.325207
     11 C                    -0.119290
     12 C                     0.031189
     13 C                    -0.077885
     14 C                    -0.008776
     15 O                     0.136203
     16 H                    -0.325516
     17 H                    -0.114598
     18 H                     0.222980
     19 H                     0.223109
     20 H                     0.188423
     21 H                     0.034580
     22 H                     0.187648
     23 H                    -0.053810
     24 H                     0.193500
     25 H                     0.156772
     26 H                     0.193105
     27 H                     0.214864
     28 C                    -0.585614
     29 C                    -0.541643
     30 H                     0.201276
     31 H                     0.121126
     32 H                     0.191289
     33 H                     0.158039
     34 H                     0.121711
     35 H                     0.204447
     36 C                    -0.005358
     37 C                     0.244000
     38 C                    -0.818584
     39 C                    -0.592988
     40 O                     0.176919
     41 O                     0.020190
     42 O                     0.353416
     43 O                    -0.060982
     44 C                     0.204903
     45 C                    -0.116057
     46 C                    -0.074930
     47 C                    -0.133846
     48 C                    -0.159546
     49 C                    -0.291659
     50 O                    -0.020514
     51 H                     0.257974
     52 H                     0.287473
     53 H                     0.223310
     54 H                     0.171365
     55 H                     0.230070
     56 H                     0.170651
     57 H                     0.220255
     58 H                     0.166405
     59 H                    -0.142739
     60 H                     0.342724
     61 H                     0.180907
     62 H                     0.136312
     63 C                    -0.492835
     64 C                    -0.354895
     65 H                     0.298561
     66 H                     0.206247
     67 H                     0.343766
     68 H                     0.253574
     69 H                     0.178809
     70 H                     0.369705
  ----------------------------------------
  Sum of atomic charges =     0.000000

                    Cartesian Multipole Moments
 -----------------------------------------------------------------
    Charge (ESU x 10^10)
                 0.0000
    Dipole Moment (Debye)
         X      -0.4939      Y       3.8542      Z       2.2170
       Tot       4.4737
    Quadrupole Moments (Debye-Ang)
        XX    -186.8388     XY      14.3328     YY    -198.9348
        XZ       6.3318     YZ     -12.1221     ZZ    -226.6096

 Total job time:  5278.87s(wall), 10515.76s(cpu)
        *  Thank you very much for using Q-Chem.  Have a nice day.  *
