 Q-Chem 5.0, Q-Chem, Inc., Pleasanton, CA (2017)
 Q-Chem 5.0.1 for Intel X86 EM64T Linux

User input:
--------------------------------------------------------------
$molecule
0  1
C        +0.22270000        +1.04488000        +0.58595000
C        +0.62626000        -0.41353000        +0.99871000
C        -1.18200000        +1.23223000        +0.04377000
C        -0.37457000        -1.51643000        +0.72333000
O        -2.09172000        +0.78832000        +0.93966000
O        -1.47336000        +1.75939000        -0.99882000
O        -0.91364000        -1.42792000        -0.50620000
O        -0.62208000        -2.40877000        +1.49911000
C        -1.86134000        -2.44741000        -0.86560000
C        -3.47068000        +0.87492000        +0.53920000
C        +1.33008000        +1.39974000        -0.43491000
C        +2.63070000        +1.71700000        +0.32855000
C        +3.04336000        +0.29351000        +0.80300000
C        +1.94423000        -0.59299000        +0.15262000
O        +1.62840000        +0.13663000        -1.04376000
H        +0.27811000        +1.68786000        +1.46900000
H        +0.83923000        -0.48042000        +2.06408000
H        -2.68749000        -2.46677000        -0.15296000
H        -3.76076000        +1.91522000        +0.38406000
H        +3.37234000        +2.13782000        -0.35195000
H        +2.48236000        +2.42488000        +1.14651000
H        +4.02182000        +0.00994000        +0.41161000
H        +3.07359000        +0.18738000        +1.88928000
H        -2.21148000        -2.17765000        -1.85937000
H        -1.38062000        -3.42697000        -0.88096000
H        -4.03855000        +0.43623000        +1.35671000
H        -3.63120000        +0.31700000        -0.38495000
C        +0.90028000        +2.39077000        -1.49430000
C        +2.35450000        -2.01267000        -0.16812000
H        +3.26311000        -2.00678000        -0.77366000
H        +2.54990000        -2.57059000        +0.75079000
H        +1.57335000        -2.52896000        -0.72872000
H        +1.71845000        +2.58186000        -2.15686000
H        +0.59919000        +3.30478000        -1.02650000
H        +0.07925000        +1.98653000        -2.04874000
@C        +0.23835000        +1.93135000        +3.45194000
@C        +0.64191000        +0.47294000        +3.86470000
@C        -1.16635000        +2.11870000        +2.90976000
@C        -0.35892000        -0.62996000        +3.58932000
@O        -2.07607000        +1.67479000        +3.80565000
@O        -1.45771000        +2.64586000        +1.86717000
@O        -0.89799000        -0.54145000        +2.35979000
@O        -0.60643000        -1.52230000        +4.36510000
@C        -1.84569000        -1.56094000        +2.00039000
@C        -3.45503000        +1.76139000        +3.40519000
@C        +1.34573000        +2.28621000        +2.43108000
@C        +2.64635000        +2.60347000        +3.19454000
@C        +3.05901000        +1.17998000        +3.66899000
@C        +1.95988000        +0.29348000        +3.01861000
@O        +1.64405000        +1.02310000        +1.82223000
@H        +0.29376000        +2.57433000        +4.33499000
@H        +0.85488000        +0.40605000        +4.93007000
@H        -2.67184000        -1.58030000        +2.71303000
@H        -3.74511000        +2.80169000        +3.25005000
@H        +3.38799000        +3.02429000        +2.51404000
@H        +2.49801000        +3.31135000        +4.01250000
@H        +4.03747000        +0.89641000        +3.27760000
@H        +3.08924000        +1.07385000        +4.75527000
@H        -2.19583000        -1.29118000        +1.00662000
@H        -1.36497000        -2.54050000        +1.98503000
@H        -4.02290000        +1.32270000        +4.22270000
@H        -3.61555000        +1.20347000        +2.48104000
@C        +0.91593000        +3.27724000        +1.37169000
@C        +2.37015000        -1.12620000        +2.69787000
@H        +3.27876000        -1.12031000        +2.09233000
@H        +2.56555000        -1.68412000        +3.61678000
@H        +1.58900000        -1.64249000        +2.13727000
@H        +1.73410000        +3.46833000        +0.70913000
@H        +0.61484000        +4.19125000        +1.83949000
@H        +0.09490000        +2.87300000        +0.81725000
$end

$rem
JOBTYPE                   SP
METHOD                    B3LYP
DFT_D                     d3_op
BASIS                     6-311++G(d,p)
SYMMETRY                  False
THRESH                    12
SCF_CONVERGENCE           8
MAX_SUB_FILE_NUM          128
MEM_STATIC                400
MEM_TOTAL                 4000
$end
--------------------------------------------------------------

             Standard Nuclear Orientation (Angstroms)
    I     Atom           X                Y                Z
 ----------------------------------------------------------------
    1      C       0.2227000000     1.0448800000     0.5859500000
    2      C       0.6262600000    -0.4135300000     0.9987100000
    3      C      -1.1820000000     1.2322300000     0.0437700000
    4      C      -0.3745700000    -1.5164300000     0.7233300000
    5      O      -2.0917200000     0.7883200000     0.9396600000
    6      O      -1.4733600000     1.7593900000    -0.9988200000
    7      O      -0.9136400000    -1.4279200000    -0.5062000000
    8      O      -0.6220800000    -2.4087700000     1.4991100000
    9      C      -1.8613400000    -2.4474100000    -0.8656000000
   10      C      -3.4706800000     0.8749200000     0.5392000000
   11      C       1.3300800000     1.3997400000    -0.4349100000
   12      C       2.6307000000     1.7170000000     0.3285500000
   13      C       3.0433600000     0.2935100000     0.8030000000
   14      C       1.9442300000    -0.5929900000     0.1526200000
   15      O       1.6284000000     0.1366300000    -1.0437600000
   16      H       0.2781100000     1.6878600000     1.4690000000
   17      H       0.8392300000    -0.4804200000     2.0640800000
   18      H      -2.6874900000    -2.4667700000    -0.1529600000
   19      H      -3.7607600000     1.9152200000     0.3840600000
   20      H       3.3723400000     2.1378200000    -0.3519500000
   21      H       2.4823600000     2.4248800000     1.1465100000
   22      H       4.0218200000     0.0099400000     0.4116100000
   23      H       3.0735900000     0.1873800000     1.8892800000
   24      H      -2.2114800000    -2.1776500000    -1.8593700000
   25      H      -1.3806200000    -3.4269700000    -0.8809600000
   26      H      -4.0385500000     0.4362300000     1.3567100000
   27      H      -3.6312000000     0.3170000000    -0.3849500000
   28      C       0.9002800000     2.3907700000    -1.4943000000
   29      C       2.3545000000    -2.0126700000    -0.1681200000
   30      H       3.2631100000    -2.0067800000    -0.7736600000
   31      H       2.5499000000    -2.5705900000     0.7507900000
   32      H       1.5733500000    -2.5289600000    -0.7287200000
   33      H       1.7184500000     2.5818600000    -2.1568600000
   34      H       0.5991900000     3.3047800000    -1.0265000000
   35      H       0.0792500000     1.9865300000    -2.0487400000
   36      GH      0.2383500000     1.9313500000     3.4519400000
   37      GH      0.6419100000     0.4729400000     3.8647000000
   38      GH     -1.1663500000     2.1187000000     2.9097600000
   39      GH     -0.3589200000    -0.6299600000     3.5893200000
   40      GH     -2.0760700000     1.6747900000     3.8056500000
   41      GH     -1.4577100000     2.6458600000     1.8671700000
   42      GH     -0.8979900000    -0.5414500000     2.3597900000
   43      GH     -0.6064300000    -1.5223000000     4.3651000000
   44      GH     -1.8456900000    -1.5609400000     2.0003900000
   45      GH     -3.4550300000     1.7613900000     3.4051900000
   46      GH      1.3457300000     2.2862100000     2.4310800000
   47      GH      2.6463500000     2.6034700000     3.1945400000
   48      GH      3.0590100000     1.1799800000     3.6689900000
   49      GH      1.9598800000     0.2934800000     3.0186100000
   50      GH      1.6440500000     1.0231000000     1.8222300000
   51      GH      0.2937600000     2.5743300000     4.3349900000
   52      GH      0.8548800000     0.4060500000     4.9300700000
   53      GH     -2.6718400000    -1.5803000000     2.7130300000
   54      GH     -3.7451100000     2.8016900000     3.2500500000
   55      GH      3.3879900000     3.0242900000     2.5140400000
   56      GH      2.4980100000     3.3113500000     4.0125000000
   57      GH      4.0374700000     0.8964100000     3.2776000000
   58      GH      3.0892400000     1.0738500000     4.7552700000
   59      GH     -2.1958300000    -1.2911800000     1.0066200000
   60      GH     -1.3649700000    -2.5405000000     1.9850300000
   61      GH     -4.0229000000     1.3227000000     4.2227000000
   62      GH     -3.6155500000     1.2034700000     2.4810400000
   63      GH      0.9159300000     3.2772400000     1.3716900000
   64      GH      2.3701500000    -1.1262000000     2.6978700000
   65      GH      3.2787600000    -1.1203100000     2.0923300000
   66      GH      2.5655500000    -1.6841200000     3.6167800000
   67      GH      1.5890000000    -1.6424900000     2.1372700000
   68      GH      1.7341000000     3.4683300000     0.7091300000
   69      GH      0.6148400000     4.1912500000     1.8394900000
   70      GH      0.0949000000     2.8730000000     0.8172500000
 ----------------------------------------------------------------

   14    -844.5216279172      5.99E-09 Convergence criterion met
 Total energy in the final basis set = -844.52162792

                    Orbital Energies (a.u.)
 --------------------------------------------------------------

 Alpha MOs
 -- Occupied --
-19.176 -19.174 -19.125 -19.117 -19.116 -10.311 -10.306 -10.243
-10.232 -10.231 -10.230 -10.204 -10.203 -10.178 -10.175 -10.168
-10.136  -1.120  -1.113  -1.061  -1.033  -1.027  -0.832  -0.804
 -0.783  -0.747  -0.730  -0.720  -0.674  -0.644  -0.603  -0.579
 -0.570  -0.561  -0.525  -0.514  -0.507  -0.493  -0.489  -0.479
 -0.475  -0.471  -0.458  -0.442  -0.434  -0.433  -0.414  -0.411
 -0.403  -0.399  -0.395  -0.373  -0.372  -0.364  -0.357  -0.355
 -0.349  -0.345  -0.333  -0.328  -0.320  -0.313  -0.284  -0.272
 -0.270

          Ground-State Mulliken Net Atomic Charges

     Atom                 Charge (a.u.)
  ----------------------------------------
      1 C                    -0.407173
      2 C                    -1.209686
      3 C                    -0.203084
      4 C                    -0.580321
      5 O                     0.057199
      6 O                     0.057225
      7 O                     0.304945
      8 O                     0.065329
      9 C                    -0.093360
     10 C                    -0.245120
     11 C                    -0.248211
     12 C                     0.154806
     13 C                    -0.005331
     14 C                    -0.171356
     15 O                     0.180153
     16 H                     0.222855
     17 H                     0.297283
     18 H                     0.211432
     19 H                     0.211681
     20 H                     0.234139
     21 H                     0.176141
     22 H                     0.227920
     23 H                     0.088096
     24 H                     0.183639
     25 H                     0.182500
     26 H                     0.195732
     27 H                     0.224178
     28 C                    -0.566502
     29 C                    -0.594809
     30 H                     0.203217
     31 H                     0.119673
     32 H                     0.197387
     33 H                     0.156058
     34 H                     0.111397
     35 H                     0.211527
     36 GH                    0.067585
     37 GH                    0.150665
     38 GH                    0.122636
     39 GH                    0.053113
     40 GH                   -0.012919
     41 GH                   -0.095073
     42 GH                    0.342982
     43 GH                   -0.020638
     44 GH                    0.204869
     45 GH                   -0.014587
     46 GH                   -0.092408
     47 GH                    0.040412
     48 GH                   -0.000753
     49 GH                   -0.397212
     50 GH                   -0.515773
     51 GH                    0.007654
     52 GH                    0.008055
     53 GH                    0.016969
     54 GH                    0.002520
     55 GH                   -0.009729
     56 GH                    0.000032
     57 GH                   -0.006668
     58 GH                   -0.000478
     59 GH                   -0.279281
     60 GH                    0.057163
     61 GH                    0.001955
     62 GH                   -0.052833
     63 GH                    0.011848
     64 GH                    0.122808
     65 GH                    0.050774
     66 GH                   -0.009995
     67 GH                    0.106707
     68 GH                    0.025101
     69 GH                   -0.001394
     70 GH                    0.166335
  ----------------------------------------
  Sum of atomic charges =     0.000000

                    Cartesian Multipole Moments
 -----------------------------------------------------------------
    Charge (ESU x 10^10)
                 0.0000
    Dipole Moment (Debye)
         X      -0.3164      Y       0.5024      Z       0.9387
       Tot       1.1107
    Quadrupole Moments (Debye-Ang)
        XX     -89.1619     XY       1.8244     YY    -103.5458
        XZ       3.4280     YZ      10.7354     ZZ    -108.1526

 Total job time:  5284.48s(wall), 10523.39s(cpu)
        *  Thank you very much for using Q-Chem.  Have a nice day.  *
