 Q-Chem 5.0, Q-Chem, Inc., Pleasanton, CA (2017)
 Q-Chem 5.0.1 for Intel X86 EM64T Linux

User input:
--------------------------------------------------------------
$molecule
0  1
--
0  1
C        -0.54444000        -0.68370000        -0.06689000
C        -0.55709000        +0.71878000        +0.05493000
C        +0.74969000        -1.43776000        -0.09374000
C        +0.72843000        +1.48436000        +0.06598000
O        +1.53645000        -1.09176000        +0.94813000
O        +1.04702000        -2.28405000        -0.90088000
O        +1.53784000        +1.08301000        -0.93877000
O        +1.01035000        +2.37097000        +0.83478000
C        +2.83449000        +1.70121000        -0.99358000
C        +2.82316000        -1.73208000        +1.00475000
C        -1.74320000        -1.41616000        -0.12552000
C        -2.93952000        -0.70056000        -0.05285000
C        -2.95313000        +0.68255000        +0.06934000
C        -1.77161000        +1.42404000        +0.12810000
H        +2.73835000        +2.77989000        -1.12464000
H        +2.70778000        -2.81319000        +1.09555000
H        -3.90354000        +1.20325000        +0.11710000
H        +3.38998000        +1.50093000        -0.07544000
H        +3.33184000        +1.25269000        -1.85067000
H        +3.31095000        -1.32281000        +1.88650000
H        +3.39889000        -1.50934000        +0.10459000
H        -3.87892000        -1.24211000        -0.08988000
C        -1.83960000        +2.92746000        +0.24839000
H        -1.24214000        +3.42352000        -0.52065000
H        -1.45503000        +3.26427000        +1.21284000
H        -2.87211000        +3.26623000        +0.14638000
H        -1.73878000        -2.44393000        -0.21875000
--
0  1
C        -0.52380000        -0.94527000        +2.92161000
C        -0.53645000        +0.45721000        +3.04343000
C        +0.77033000        -1.69933000        +2.89476000
C        +0.74907000        +1.22279000        +3.05448000
O        +1.55709000        -1.35333000        +3.93663000
O        +1.06766000        -2.54562000        +2.08762000
O        +1.55848000        +0.82144000        +2.04973000
O        +1.03099000        +2.10940000        +3.82328000
C        +2.85513000        +1.43964000        +1.99492000
C        +2.84380000        -1.99365000        +3.99325000
C        -1.72256000        -1.67773000        +2.86298000
C        -2.91888000        -0.96213000        +2.93565000
C        -2.93249000        +0.42098000        +3.05784000
C        -1.75097000        +1.16247000        +3.11660000
H        +2.75899000        +2.51832000        +1.86386000
H        +2.72842000        -3.07476000        +4.08405000
H        -3.88290000        +0.94168000        +3.10560000
H        +3.41062000        +1.23936000        +2.91306000
H        +3.35248000        +0.99112000        +1.13783000
H        +3.33159000        -1.58438000        +4.87500000
H        +3.41953000        -1.77091000        +3.09309000
H        -3.85828000        -1.50368000        +2.89862000
C        -1.81896000        +2.66589000        +3.23689000
H        -1.22150000        +3.16195000        +2.46785000
H        -1.43439000        +3.00270000        +4.20134000
H        -2.85147000        +3.00466000        +3.13488000
H        -1.71814000        -2.70550000        +2.76975000
$end

$rem
JOBTYPE                   SP
METHOD                    B3LYP
DFT_D                     d3_op
BASIS                     6-311++G(d,p)
SYMMETRY                  False
THRESH                    12
SCF_CONVERGENCE           8
MAX_SUB_FILE_NUM          128
MEM_STATIC                400
MEM_TOTAL                 4000
$end
--------------------------------------------------------------

             Standard Nuclear Orientation (Angstroms)
    I     Atom           X                Y                Z
 ----------------------------------------------------------------
    1      C       0.4051193627    -0.4105692084    -1.7976822197
    2      C       0.9275948327    -1.2274234163    -0.7770359188
    3      C      -1.0733470375    -0.3136622510    -2.0186935504
    4      C       0.0143790765    -2.0835885609     0.0426071358
    5      O      -1.7198178000    -0.0267192008    -0.8680677930
    6      O      -1.6276333054    -0.4225277998    -3.0849964614
    7      O      -0.8439145402    -2.7667877668    -0.7462653798
    8      O       0.0469268088    -2.1941975553     1.2439879722
    9      C      -1.8189611913    -3.5774342387    -0.0690557192
   10      C      -3.1529933313     0.0577981177    -0.9558337900
   11      C       1.2518653892     0.3656425827    -2.6085318285
   12      C       2.6234394419     0.2979049322    -2.3580481767
   13      C       3.1396687739    -0.5058908195    -1.3503138036
   14      C       2.3122543991    -1.2828981744    -0.5373595054
   15      H      -1.3276064420    -4.3397644639     0.5370740554
   16      H      -3.4470804926     0.8539689886    -1.6413851757
   17      H       4.2121390102    -0.5358518559    -1.1903181655
   18      H      -2.4463752733    -2.9584256665     0.5750267564
   19      H      -2.4107510622    -4.0361659164    -0.8580300392
   20      H      -3.4918718668     0.2764908689     0.0542448695
   21      H      -3.5689935321    -0.8878033936    -1.3081798997
   22      H       3.2985479972     0.8915116342    -2.9654850091
   23      C       2.9233231553    -2.1501955670     0.5367700159
   24      H       2.5822574387    -3.1860291319     0.4648012756
   25      H       2.6502977984    -1.7965670599     1.5327132357
   26      H       4.0113164208    -2.1448522478     0.4502243272
   27      H       0.8736516855     0.9628473947    -3.3604117053
   28      C       0.1670452133     1.8651471381     0.1425272882
   29      C       0.6895206833     1.0482929301     1.1631735891
   30      C      -1.3114211868     1.9620540954    -0.0784840425
   31      C      -0.2236950729     0.1921277855     1.9828166437
   32      O      -1.9578919494     2.2489971457     1.0721417149
   33      O      -1.8657074547     1.8531885466    -1.1447869535
   34      O      -1.0819886895    -0.4910714204     1.1939441281
   35      O      -0.1911473406     0.0815187911     3.1841974801
   36      C      -2.0570353407    -1.3017178923     1.8711537887
   37      C      -3.3910674807     2.3335144641     0.9843757179
   38      C       1.0137912398     2.6413589291    -0.6683223206
   39      C       2.3853652926     2.5736212786    -0.4178386688
   40      C       2.9015946245     1.7698255269     0.5898957043
   41      C       2.0741802498     0.9928181720     1.4028500025
   42      H      -1.5656805914    -2.0640481175     2.4772835633
   43      H      -3.6851546419     3.1296853350     0.2988243322
   44      H       3.9740648608     1.7398644905     0.7498913424
   45      H      -2.6844494227    -0.6827093201     2.5152362643
   46      H      -2.6488252115    -1.7604495700     1.0821794687
   47      H      -3.7299460162     2.5522072153     1.9944543774
   48      H      -3.8070676814     1.3879129529     0.6320296082
   49      H       3.0604738479     3.1672279806    -1.0252755012
   50      C       2.6852490059     0.1255207794     2.4769795238
   51      H       2.3441832894    -0.9103127855     2.4050107835
   52      H       2.4122236490     0.4791492865     3.4729227436
   53      H       3.7732422715     0.1308640987     2.3904338351
   54      H       0.6355775361     3.2385637411    -1.4202021974
 ----------------------------------------------------------------

   15   -1454.8668118515      9.24E-09 Convergence criterion met
 Total energy in the final basis set = -1454.86681185

                    Orbital Energies (a.u.)
 --------------------------------------------------------------

 Alpha MOs
 -- Occupied --
-19.176 -19.176 -19.152 -19.147 -19.110 -19.108 -19.108 -19.103
-10.310 -10.307 -10.300 -10.296 -10.230 -10.229 -10.219 -10.216
-10.205 -10.203 -10.202 -10.202 -10.202 -10.201 -10.189 -10.188
-10.187 -10.186 -10.185 -10.184 -10.168 -10.167  -1.138  -1.127
 -1.103  -1.100  -1.039  -1.037  -1.016  -1.006  -0.889  -0.876
 -0.806  -0.799  -0.791  -0.785  -0.755  -0.741  -0.737  -0.721
 -0.713  -0.693  -0.657  -0.648  -0.632  -0.619  -0.586  -0.585
 -0.581  -0.568  -0.553  -0.552  -0.536  -0.528  -0.524  -0.518
 -0.506  -0.500  -0.499  -0.484  -0.483  -0.475  -0.473  -0.471
 -0.467  -0.463  -0.459  -0.446  -0.440  -0.434  -0.430  -0.423
 -0.422  -0.412  -0.409  -0.405  -0.402  -0.401  -0.393  -0.388
 -0.384  -0.380  -0.374  -0.371  -0.367  -0.364  -0.359  -0.350
 -0.335  -0.329  -0.328  -0.323  -0.302  -0.295  -0.291  -0.288
 -0.276  -0.275  -0.268  -0.254  -0.241  -0.231

          Ground-State Mulliken Net Atomic Charges

     Atom                 Charge (a.u.)
  ----------------------------------------
      1 C                     0.104907
      2 C                     0.003567
      3 C                    -0.514952
      4 C                    -0.818795
      5 O                     0.079589
      6 O                    -0.100768
      7 O                     0.255737
      8 O                    -0.134267
      9 C                    -0.033181
     10 C                    -0.386820
     11 C                    -0.054949
     12 C                    -0.145887
     13 C                    -0.114879
     14 C                     0.183765
     15 H                     0.172501
     16 H                     0.260120
     17 H                     0.169622
     18 H                     0.214947
     19 H                     0.181204
     20 H                     0.041874
     21 H                     0.193657
     22 H                     0.184361
     23 C                    -0.484698
     24 H                     0.187795
     25 H                     0.117831
     26 H                     0.152528
     27 H                     0.207323
     28 C                     0.152468
     29 C                     0.396894
     30 C                    -0.862914
     31 C                    -0.748058
     32 O                     0.232451
     33 O                    -0.149160
     34 O                     0.059546
     35 O                    -0.049476
     36 C                    -0.316772
     37 C                    -0.059083
     38 C                    -0.257738
     39 C                    -0.424372
     40 C                    -0.185333
     41 C                     0.483113
     42 H                     0.254471
     43 H                     0.173718
     44 H                     0.173299
     45 H                     0.201844
     46 H                     0.070769
     47 H                     0.182883
     48 H                     0.220587
     49 H                     0.186639
     50 C                    -0.480263
     51 H                     0.269158
     52 H                     0.225560
     53 H                     0.131715
     54 H                     0.195919
  ----------------------------------------
  Sum of atomic charges =     0.000000

                    Cartesian Multipole Moments
 -----------------------------------------------------------------
    Charge (ESU x 10^10)
                 0.0000
    Dipole Moment (Debye)
         X       0.4783      Y      -0.0233      Z       0.7309
       Tot       0.8738
    Quadrupole Moments (Debye-Ang)
        XX    -146.6463     XY       5.3585     YY    -167.7634
        XZ     -11.2970     YZ      -7.4242     ZZ    -199.6252

 Total job time:  2121.26s(wall), 4225.56s(cpu)
        *  Thank you very much for using Q-Chem.  Have a nice day.  *
