 Q-Chem 5.0, Q-Chem, Inc., Pleasanton, CA (2017)
 Q-Chem 5.0.1 for Intel X86 EM64T Linux

User input:
--------------------------------------------------------------
$molecule
0  1
C        -0.54444000        -0.68370000        -0.06689000
C        -0.55709000        +0.71878000        +0.05493000
C        +0.74969000        -1.43776000        -0.09374000
C        +0.72843000        +1.48436000        +0.06598000
O        +1.53645000        -1.09176000        +0.94813000
O        +1.04702000        -2.28405000        -0.90088000
O        +1.53784000        +1.08301000        -0.93877000
O        +1.01035000        +2.37097000        +0.83478000
C        +2.83449000        +1.70121000        -0.99358000
C        +2.82316000        -1.73208000        +1.00475000
C        -1.74320000        -1.41616000        -0.12552000
C        -2.93952000        -0.70056000        -0.05285000
C        -2.95313000        +0.68255000        +0.06934000
C        -1.77161000        +1.42404000        +0.12810000
H        +2.73835000        +2.77989000        -1.12464000
H        +2.70778000        -2.81319000        +1.09555000
H        -3.90354000        +1.20325000        +0.11710000
H        +3.38998000        +1.50093000        -0.07544000
H        +3.33184000        +1.25269000        -1.85067000
H        +3.31095000        -1.32281000        +1.88650000
H        +3.39889000        -1.50934000        +0.10459000
H        -3.87892000        -1.24211000        -0.08988000
C        -1.83960000        +2.92746000        +0.24839000
C        -1.78103000        -2.92226000        -0.24590000
H        -1.39752000        -3.25223000        -1.21323000
H        -2.80572000        -3.28175000        -0.13627000
H        -1.16958000        -3.40777000        +0.51926000
H        -1.24214000        +3.42352000        -0.52065000
H        -1.45503000        +3.26427000        +1.21284000
H        -2.87211000        +3.26623000        +0.14638000
@C        -0.52380000        -0.94527000        +2.92161000
@C        -0.53645000        +0.45721000        +3.04343000
@C        +0.77033000        -1.69933000        +2.89476000
@C        +0.74907000        +1.22279000        +3.05448000
@O        +1.55709000        -1.35333000        +3.93663000
@O        +1.06766000        -2.54562000        +2.08762000
@O        +1.55848000        +0.82144000        +2.04973000
@O        +1.03099000        +2.10940000        +3.82328000
@C        +2.85513000        +1.43964000        +1.99492000
@C        +2.84380000        -1.99365000        +3.99325000
@C        -1.72256000        -1.67773000        +2.86298000
@C        -2.91888000        -0.96213000        +2.93565000
@C        -2.93249000        +0.42098000        +3.05784000
@C        -1.75097000        +1.16247000        +3.11660000
@H        +2.75899000        +2.51832000        +1.86386000
@H        +2.72842000        -3.07476000        +4.08405000
@H        -3.88290000        +0.94168000        +3.10560000
@H        +3.41062000        +1.23936000        +2.91306000
@H        +3.35248000        +0.99112000        +1.13783000
@H        +3.33159000        -1.58438000        +4.87500000
@H        +3.41953000        -1.77091000        +3.09309000
@H        -3.85828000        -1.50368000        +2.89862000
@C        -1.81896000        +2.66589000        +3.23689000
@C        -1.76039000        -3.18383000        +2.74260000
@H        -1.37688000        -3.51380000        +1.77527000
@H        -2.78508000        -3.54332000        +2.85223000
@H        -1.14894000        -3.66934000        +3.50776000
@H        -1.22150000        +3.16195000        +2.46785000
@H        -1.43439000        +3.00270000        +4.20134000
@H        -2.85147000        +3.00466000        +3.13488000
$end

$rem
JOBTYPE                   SP
METHOD                    B3LYP
DFT_D                     d3_op
BASIS                     6-311++G(d,p)
SYMMETRY                  False
THRESH                    12
SCF_CONVERGENCE           8
MAX_SUB_FILE_NUM          128
MEM_STATIC                400
MEM_TOTAL                 4000
$end
--------------------------------------------------------------

             Standard Nuclear Orientation (Angstroms)
    I     Atom           X                Y                Z
 ----------------------------------------------------------------
    1      C      -0.5444400000    -0.6837000000    -0.0668900000
    2      C      -0.5570900000     0.7187800000     0.0549300000
    3      C       0.7496900000    -1.4377600000    -0.0937400000
    4      C       0.7284300000     1.4843600000     0.0659800000
    5      O       1.5364500000    -1.0917600000     0.9481300000
    6      O       1.0470200000    -2.2840500000    -0.9008800000
    7      O       1.5378400000     1.0830100000    -0.9387700000
    8      O       1.0103500000     2.3709700000     0.8347800000
    9      C       2.8344900000     1.7012100000    -0.9935800000
   10      C       2.8231600000    -1.7320800000     1.0047500000
   11      C      -1.7432000000    -1.4161600000    -0.1255200000
   12      C      -2.9395200000    -0.7005600000    -0.0528500000
   13      C      -2.9531300000     0.6825500000     0.0693400000
   14      C      -1.7716100000     1.4240400000     0.1281000000
   15      H       2.7383500000     2.7798900000    -1.1246400000
   16      H       2.7077800000    -2.8131900000     1.0955500000
   17      H      -3.9035400000     1.2032500000     0.1171000000
   18      H       3.3899800000     1.5009300000    -0.0754400000
   19      H       3.3318400000     1.2526900000    -1.8506700000
   20      H       3.3109500000    -1.3228100000     1.8865000000
   21      H       3.3988900000    -1.5093400000     0.1045900000
   22      H      -3.8789200000    -1.2421100000    -0.0898800000
   23      C      -1.8396000000     2.9274600000     0.2483900000
   24      C      -1.7810300000    -2.9222600000    -0.2459000000
   25      H      -1.3975200000    -3.2522300000    -1.2132300000
   26      H      -2.8057200000    -3.2817500000    -0.1362700000
   27      H      -1.1695800000    -3.4077700000     0.5192600000
   28      H      -1.2421400000     3.4235200000    -0.5206500000
   29      H      -1.4550300000     3.2642700000     1.2128400000
   30      H      -2.8721100000     3.2662300000     0.1463800000
   31      GH     -0.5238000000    -0.9452700000     2.9216100000
   32      GH     -0.5364500000     0.4572100000     3.0434300000
   33      GH      0.7703300000    -1.6993300000     2.8947600000
   34      GH      0.7490700000     1.2227900000     3.0544800000
   35      GH      1.5570900000    -1.3533300000     3.9366300000
   36      GH      1.0676600000    -2.5456200000     2.0876200000
   37      GH      1.5584800000     0.8214400000     2.0497300000
   38      GH      1.0309900000     2.1094000000     3.8232800000
   39      GH      2.8551300000     1.4396400000     1.9949200000
   40      GH      2.8438000000    -1.9936500000     3.9932500000
   41      GH     -1.7225600000    -1.6777300000     2.8629800000
   42      GH     -2.9188800000    -0.9621300000     2.9356500000
   43      GH     -2.9324900000     0.4209800000     3.0578400000
   44      GH     -1.7509700000     1.1624700000     3.1166000000
   45      GH      2.7589900000     2.5183200000     1.8638600000
   46      GH      2.7284200000    -3.0747600000     4.0840500000
   47      GH     -3.8829000000     0.9416800000     3.1056000000
   48      GH      3.4106200000     1.2393600000     2.9130600000
   49      GH      3.3524800000     0.9911200000     1.1378300000
   50      GH      3.3315900000    -1.5843800000     4.8750000000
   51      GH      3.4195300000    -1.7709100000     3.0930900000
   52      GH     -3.8582800000    -1.5036800000     2.8986200000
   53      GH     -1.8189600000     2.6658900000     3.2368900000
   54      GH     -1.7603900000    -3.1838300000     2.7426000000
   55      GH     -1.3768800000    -3.5138000000     1.7752700000
   56      GH     -2.7850800000    -3.5433200000     2.8522300000
   57      GH     -1.1489400000    -3.6693400000     3.5077600000
   58      GH     -1.2215000000     3.1619500000     2.4678500000
   59      GH     -1.4343900000     3.0027000000     4.2013400000
   60      GH     -2.8514700000     3.0046600000     3.1348800000
 ----------------------------------------------------------------

   14    -766.8805209009      6.16E-09 Convergence criterion met
 Total energy in the final basis set = -766.88052090

                    Orbital Energies (a.u.)
 --------------------------------------------------------------

 Alpha MOs
 -- Occupied --
-19.176 -19.176 -19.119 -19.119 -10.311 -10.311 -10.232 -10.232
-10.205 -10.205 -10.201 -10.201 -10.187 -10.186 -10.171 -10.170
 -1.121  -1.114  -1.031  -1.030  -0.885  -0.807  -0.795  -0.746
 -0.734  -0.724  -0.675  -0.649  -0.620  -0.577  -0.565  -0.537
 -0.517  -0.515  -0.491  -0.488  -0.479  -0.477  -0.469  -0.442
 -0.434  -0.429  -0.420  -0.415  -0.411  -0.405  -0.396  -0.387
 -0.380  -0.373  -0.362  -0.359  -0.357  -0.321  -0.313  -0.293
 -0.292  -0.266  -0.253

          Ground-State Mulliken Net Atomic Charges

     Atom                 Charge (a.u.)
  ----------------------------------------
      1 C                    -0.014593
      2 C                    -0.115245
      3 C                    -0.612902
      4 C                    -0.783041
      5 O                     0.097828
      6 O                    -0.039037
      7 O                     0.254006
      8 O                    -0.101739
      9 C                    -0.063679
     10 C                    -0.319090
     11 C                     0.390266
     12 C                    -0.186359
     13 C                    -0.243705
     14 C                     0.136778
     15 H                     0.173733
     16 H                     0.207656
     17 H                     0.166428
     18 H                     0.218369
     19 H                     0.176148
     20 H                     0.125535
     21 H                     0.218594
     22 H                     0.171645
     23 C                    -0.661576
     24 C                    -0.624857
     25 H                     0.224963
     26 H                     0.127640
     27 H                     0.259165
     28 H                     0.179951
     29 H                     0.217032
     30 H                     0.151052
     31 GH                    0.011361
     32 GH                   -0.122013
     33 GH                    0.108282
     34 GH                    0.044214
     35 GH                   -0.016567
     36 GH                   -0.143752
     37 GH                    0.092914
     38 GH                   -0.021240
     39 GH                    0.026035
     40 GH                   -0.002337
     41 GH                   -0.091623
     42 GH                    0.009893
     43 GH                    0.045415
     44 GH                    0.094371
     45 GH                   -0.009465
     46 GH                    0.001159
     47 GH                    0.007563
     48 GH                    0.000096
     49 GH                   -0.047784
     50 GH                   -0.001108
     51 GH                    0.016014
     52 GH                    0.013582
     53 GH                    0.171781
     54 GH                    0.117284
     55 GH                   -0.033372
     56 GH                   -0.005090
     57 GH                    0.005703
     58 GH                   -0.007868
     59 GH                    0.005246
     60 GH                    0.000341
  ----------------------------------------
  Sum of atomic charges =     0.000000

                    Cartesian Multipole Moments
 -----------------------------------------------------------------
    Charge (ESU x 10^10)
                 0.0000
    Dipole Moment (Debye)
         X       0.0531      Y      -0.1033      Z       0.1023
       Tot       0.1548
    Quadrupole Moments (Debye-Ang)
        XX     -76.4320     XY      -0.0228     YY     -95.6185
        XZ       0.1080     YZ      -8.8976     ZZ     -99.2691

 Total job time:  1122.74s(wall), 4423.94s(cpu)
        *  Thank you very much for using Q-Chem.  Have a nice day.  *
