 Q-Chem 5.0, Q-Chem, Inc., Pleasanton, CA (2017)
 Q-Chem 5.0.1 for Intel X86 EM64T Linux

User input:
--------------------------------------------------------------
$molecule
0  1
--
0  1
C        -0.54444000        -0.68370000        -0.06689000
C        -0.55709000        +0.71878000        +0.05493000
C        +0.74969000        -1.43776000        -0.09374000
C        +0.72843000        +1.48436000        +0.06598000
O        +1.53645000        -1.09176000        +0.94813000
O        +1.04702000        -2.28405000        -0.90088000
O        +1.53784000        +1.08301000        -0.93877000
O        +1.01035000        +2.37097000        +0.83478000
C        +2.83449000        +1.70121000        -0.99358000
C        +2.82316000        -1.73208000        +1.00475000
C        -1.74320000        -1.41616000        -0.12552000
C        -2.93952000        -0.70056000        -0.05285000
C        -2.95313000        +0.68255000        +0.06934000
C        -1.77161000        +1.42404000        +0.12810000
H        +2.73835000        +2.77989000        -1.12464000
H        +2.70778000        -2.81319000        +1.09555000
H        -3.90354000        +1.20325000        +0.11710000
H        +3.38998000        +1.50093000        -0.07544000
H        +3.33184000        +1.25269000        -1.85067000
H        +3.31095000        -1.32281000        +1.88650000
H        +3.39889000        -1.50934000        +0.10459000
H        -3.87892000        -1.24211000        -0.08988000
C        -1.83960000        +2.92746000        +0.24839000
C        -1.78103000        -2.92226000        -0.24590000
H        -1.39752000        -3.25223000        -1.21323000
H        -2.80572000        -3.28175000        -0.13627000
H        -1.16958000        -3.40777000        +0.51926000
H        -1.24214000        +3.42352000        -0.52065000
H        -1.45503000        +3.26427000        +1.21284000
H        -2.87211000        +3.26623000        +0.14638000
--
0  1
C        -0.52380000        -0.94527000        +2.92161000
C        -0.53645000        +0.45721000        +3.04343000
C        +0.77033000        -1.69933000        +2.89476000
C        +0.74907000        +1.22279000        +3.05448000
O        +1.55709000        -1.35333000        +3.93663000
O        +1.06766000        -2.54562000        +2.08762000
O        +1.55848000        +0.82144000        +2.04973000
O        +1.03099000        +2.10940000        +3.82328000
C        +2.85513000        +1.43964000        +1.99492000
C        +2.84380000        -1.99365000        +3.99325000
C        -1.72256000        -1.67773000        +2.86298000
C        -2.91888000        -0.96213000        +2.93565000
C        -2.93249000        +0.42098000        +3.05784000
C        -1.75097000        +1.16247000        +3.11660000
H        +2.75899000        +2.51832000        +1.86386000
H        +2.72842000        -3.07476000        +4.08405000
H        -3.88290000        +0.94168000        +3.10560000
H        +3.41062000        +1.23936000        +2.91306000
H        +3.35248000        +0.99112000        +1.13783000
H        +3.33159000        -1.58438000        +4.87500000
H        +3.41953000        -1.77091000        +3.09309000
H        -3.85828000        -1.50368000        +2.89862000
C        -1.81896000        +2.66589000        +3.23689000
C        -1.76039000        -3.18383000        +2.74260000
H        -1.37688000        -3.51380000        +1.77527000
H        -2.78508000        -3.54332000        +2.85223000
H        -1.14894000        -3.66934000        +3.50776000
H        -1.22150000        +3.16195000        +2.46785000
H        -1.43439000        +3.00270000        +4.20134000
H        -2.85147000        +3.00466000        +3.13488000
$end

$rem
JOBTYPE                   SP
METHOD                    B3LYP
DFT_D                     d3_op
BASIS                     6-311++G(d,p)
SYMMETRY                  False
THRESH                    12
SCF_CONVERGENCE           8
MAX_SUB_FILE_NUM          128
MEM_STATIC                400
MEM_TOTAL                 4000
$end
--------------------------------------------------------------

             Standard Nuclear Orientation (Angstroms)
    I     Atom           X                Y                Z
 ----------------------------------------------------------------
    1      C       0.5363840350     0.2264897581    -1.6433262099
    2      C       0.6218496538    -1.1106003342    -1.2110809110
    3      C      -0.7954570410     0.8841520451    -1.8376957746
    4      C      -0.6213596089    -1.9230070575    -1.0288103579
    5      O      -1.5750872681     0.7372788302    -0.7446242481
    6      O      -1.1275990848     1.5114957829    -2.8135074214
    7      O      -1.4389184278    -1.8006071157    -2.0976250121
    8      O      -0.8650237054    -2.6295886006    -0.0811923180
    9      C      -2.7002659079    -2.4848813223    -2.0124901585
   10      C      -2.8944851426     1.3032785458    -0.8322126129
   11      C       1.6952795126     0.9913324508    -1.8645446391
   12      C       2.9268744640     0.3760213120    -1.6340844267
   13      C       3.0122683966    -0.9420821434    -1.2058087472
   14      C       1.8710642186    -1.7147486373    -0.9824498856
   15      H      -2.5455838626    -3.5587497850    -1.8991316334
   16      H      -2.8376102308     2.3820047706    -0.9854150701
   17      H       3.9882887973    -1.3866128274    -1.0431270825
   18      H      -3.2764321269    -2.1151530801    -1.1621985655
   19      H      -3.2104739212    -2.2666749109    -2.9480136623
   20      H      -3.3703363270     1.0753105476     0.1188501198
   21      H      -3.4468952829     0.8543098131    -1.6596401203
   22      H       3.8366471456     0.9458053941    -1.7915002807
   23      C       2.0171524494    -3.1474171097    -0.5291472297
   24      C       1.6547144405     2.4323323330    -2.3185638871
   25      H       1.2657646070     2.5167293984    -3.3350689841
   26      H       2.6575546187     2.8622930051    -2.2923571979
   27      H       1.0093782986     3.0424756990    -1.6811258704
   28      H       1.4559651803    -3.8343057068    -1.1676684909
   29      H       1.6395507790    -3.2808002006     0.4862959215
   30      H       3.0672924002    -3.4438603685    -0.5531374551
   31      C       0.4664823569     1.1470554875     1.2110825936
   32      C       0.5519479757    -0.1900346048     1.6433278926
   33      C      -0.8653587191     1.8047177745     1.0167130289
   34      C      -0.6912612869    -1.0024413281     1.8255984456
   35      O      -1.6449889462     1.6578445596     2.1097845555
   36      O      -1.1975007629     2.4320615122     0.0409013821
   37      O      -1.5088201059    -0.8800413863     0.7567837915
   38      O      -0.9349253835    -1.7090228712     2.7732164855
   39      C      -2.7701675860    -1.5643155929     0.8419186451
   40      C      -2.9643868207     2.2238442752     2.0221961907
   41      C       1.6253778346     1.9118981801     0.9898641644
   42      C       2.8569727859     1.2965870414     1.2203243769
   43      C       2.9423667186    -0.0215164140     1.6486000564
   44      C       1.8011625405    -0.7941829080     1.8719589180
   45      H      -2.6154855407    -2.6381840556     0.9552771702
   46      H      -2.9075119089     3.3025705000     1.8689937334
   47      H       3.9183871193    -0.4660470981     1.8112817210
   48      H      -3.3463338050    -1.1945873507     1.6922102381
   49      H      -3.2803755993    -1.3461091815    -0.0936048587
   50      H      -3.4402380051     1.9958762770     2.9732589234
   51      H      -3.5167969609     1.7748755425     1.1947686832
   52      H       3.7667454675     1.8663711235     1.0629085229
   53      C       1.9472507713    -2.2268513803     2.3252615739
   54      C       1.5848127624     3.3528980624     0.5358449164
   55      H       1.1958629289     3.4372951278    -0.4806601806
   56      H       2.5876529406     3.7828587345     0.5620516056
   57      H       0.9394766205     3.9630414284     1.1732829332
   58      H       1.3860635022    -2.9137399774     1.6867403127
   59      H       1.5696491010    -2.3602344712     3.3407047250
   60      H       2.9973907222    -2.5232946391     2.3012713484
 ----------------------------------------------------------------

   15   -1533.5154666859      8.23E-09 Convergence criterion met
 Total energy in the final basis set = -1533.51546669

                    Orbital Energies (a.u.)
 --------------------------------------------------------------

 Alpha MOs
 -- Occupied --
-19.176 -19.175 -19.150 -19.147 -19.108 -19.108 -19.106 -19.104
-10.308 -10.306 -10.298 -10.296 -10.230 -10.227 -10.218 -10.216
-10.199 -10.199 -10.198 -10.198 -10.197 -10.197 -10.196 -10.195
-10.182 -10.182 -10.182 -10.181 -10.164 -10.164 -10.163 -10.163
 -1.138  -1.126  -1.102  -1.100  -1.040  -1.036  -1.015  -1.006
 -0.888  -0.875  -0.813  -0.800  -0.796  -0.785  -0.754  -0.744
 -0.738  -0.735  -0.723  -0.713  -0.684  -0.665  -0.653  -0.640
 -0.626  -0.613  -0.586  -0.580  -0.569  -0.556  -0.552  -0.541
 -0.528  -0.523  -0.521  -0.513  -0.507  -0.501  -0.499  -0.483
 -0.481  -0.473  -0.469  -0.467  -0.466  -0.463  -0.462  -0.460
 -0.444  -0.434  -0.426  -0.422  -0.415  -0.412  -0.410  -0.408
 -0.403  -0.401  -0.399  -0.397  -0.391  -0.384  -0.383  -0.382
 -0.374  -0.371  -0.367  -0.366  -0.365  -0.356  -0.353  -0.348
 -0.329  -0.326  -0.322  -0.318  -0.299  -0.290  -0.289  -0.281
 -0.274  -0.273  -0.267  -0.254  -0.238  -0.219

          Ground-State Mulliken Net Atomic Charges

     Atom                 Charge (a.u.)
  ----------------------------------------
      1 C                    -0.025663
      2 C                    -0.084597
      3 C                    -0.630505
      4 C                    -0.825364
      5 O                     0.112826
      6 O                    -0.040951
      7 O                     0.247061
      8 O                    -0.130849
      9 C                    -0.029958
     10 C                    -0.299219
     11 C                     0.500099
     12 C                    -0.129116
     13 C                    -0.194947
     14 C                     0.164654
     15 H                     0.172816
     16 H                     0.242665
     17 H                     0.173461
     18 H                     0.209989
     19 H                     0.180463
     20 H                     0.055471
     21 H                     0.200997
     22 H                     0.174503
     23 C                    -0.540696
     24 C                    -0.550292
     25 H                     0.223843
     26 H                     0.128827
     27 H                     0.279241
     28 H                     0.184707
     29 H                     0.119721
     30 H                     0.149689
     31 C                    -0.072280
     32 C                     0.034640
     33 C                    -0.898791
     34 C                    -0.638375
     35 O                     0.256741
     36 O                    -0.142155
     37 O                     0.071139
     38 O                    -0.039665
     39 C                    -0.323371
     40 C                    -0.038673
     41 C                     0.154902
     42 C                    -0.192884
     43 C                    -0.131872
     44 C                     0.505479
     45 H                     0.253455
     46 H                     0.172221
     47 H                     0.175813
     48 H                     0.200825
     49 H                     0.075590
     50 H                     0.180519
     51 H                     0.216297
     52 H                     0.172201
     53 C                    -0.559736
     54 C                    -0.542549
     55 H                     0.113454
     56 H                     0.152733
     57 H                     0.183467
     58 H                     0.271607
     59 H                     0.223651
     60 H                     0.126739
  ----------------------------------------
  Sum of atomic charges =     0.000000

                    Cartesian Multipole Moments
 -----------------------------------------------------------------
    Charge (ESU x 10^10)
                 0.0000
    Dipole Moment (Debye)
         X       0.0837      Y       0.2754      Z       0.1347
       Tot       0.3178
    Quadrupole Moments (Debye-Ang)
        XX    -157.3371     XY       1.2457     YY    -185.9236
        XZ      -0.9445     YZ      11.5983     ZZ    -209.6844

 Total job time:  1251.15s(wall), 4942.90s(cpu)
        *  Thank you very much for using Q-Chem.  Have a nice day.  *
