 Q-Chem 5.0, Q-Chem, Inc., Pleasanton, CA (2017)
 Q-Chem 5.0.1 for Intel X86 EM64T Linux

User input:
--------------------------------------------------------------
$molecule
0  1
C        +0.22270000        +1.04488000        +0.58595000
C        +0.62626000        -0.41353000        +0.99871000
C        +1.33008000        +1.39974000        -0.43491000
C        +2.63070000        +1.71700000        +0.32855000
C        +3.04336000        +0.29351000        +0.80300000
C        +1.94423000        -0.59299000        +0.15262000
O        +1.62840000        +0.13663000        -1.04376000
H        +3.37234000        +2.13782000        -0.35195000
H        +2.48236000        +2.42488000        +1.14651000
H        +4.02182000        +0.00994000        +0.41161000
H        +3.07359000        +0.18738000        +1.88928000
H        +1.03270000        +2.19943000        -1.08064000
H        +2.24339000        -1.61496000        +0.04786000
H        +0.81693000        -0.48905000        +2.04887000
H        -0.12524000        -1.15356000        +0.81843000
H        -0.74673000        +1.06811000        +0.13365000
H        +0.15552000        +1.72617000        +1.40828000
@C        +3.81211000        +3.13449000        +3.87831000
@C        +4.21567000        +1.67608000        +4.29107000
@C        +4.91949000        +3.48935000        +2.85745000
@C        +6.22011000        +3.80661000        +3.62091000
@C        +6.63277000        +2.38312000        +4.09536000
@C        +5.53364000        +1.49662000        +3.44498000
@O        +5.21781000        +2.22624000        +2.24860000
@H        +6.96175000        +4.22743000        +2.94041000
@H        +6.07177000        +4.51449000        +4.43887000
@H        +7.61123000        +2.09955000        +3.70397000
@H        +6.66300000        +2.27699000        +5.18164000
@H        +4.62211000        +4.28904000        +2.21172000
@H        +5.83280000        +0.47465000        +3.34022000
@H        +4.40634000        +1.60056000        +5.34123000
@H        +3.46417000        +0.93605000        +4.11079000
@H        +2.84268000        +3.15772000        +3.42601000
@H        +3.74493000        +3.81578000        +4.70064000
$end

$rem
JOBTYPE                   SP
METHOD                    B3LYP
DFT_D                     d3_op
BASIS                     6-311++G(d,p)
SYMMETRY                  False
THRESH                    12
SCF_CONVERGENCE           8
MAX_SUB_FILE_NUM          128
MEM_STATIC                400
MEM_TOTAL                 4000
$end
--------------------------------------------------------------

             Standard Nuclear Orientation (Angstroms)
    I     Atom           X                Y                Z
 ----------------------------------------------------------------
    1      C       0.2227000000     1.0448800000     0.5859500000
    2      C       0.6262600000    -0.4135300000     0.9987100000
    3      C       1.3300800000     1.3997400000    -0.4349100000
    4      C       2.6307000000     1.7170000000     0.3285500000
    5      C       3.0433600000     0.2935100000     0.8030000000
    6      C       1.9442300000    -0.5929900000     0.1526200000
    7      O       1.6284000000     0.1366300000    -1.0437600000
    8      H       3.3723400000     2.1378200000    -0.3519500000
    9      H       2.4823600000     2.4248800000     1.1465100000
   10      H       4.0218200000     0.0099400000     0.4116100000
   11      H       3.0735900000     0.1873800000     1.8892800000
   12      H       1.0327000000     2.1994300000    -1.0806400000
   13      H       2.2433900000    -1.6149600000     0.0478600000
   14      H       0.8169300000    -0.4890500000     2.0488700000
   15      H      -0.1252400000    -1.1535600000     0.8184300000
   16      H      -0.7467300000     1.0681100000     0.1336500000
   17      H       0.1555200000     1.7261700000     1.4082800000
   18      GH      3.8121100000     3.1344900000     3.8783100000
   19      GH      4.2156700000     1.6760800000     4.2910700000
   20      GH      4.9194900000     3.4893500000     2.8574500000
   21      GH      6.2201100000     3.8066100000     3.6209100000
   22      GH      6.6327700000     2.3831200000     4.0953600000
   23      GH      5.5336400000     1.4966200000     3.4449800000
   24      GH      5.2178100000     2.2262400000     2.2486000000
   25      GH      6.9617500000     4.2274300000     2.9404100000
   26      GH      6.0717700000     4.5144900000     4.4388700000
   27      GH      7.6112300000     2.0995500000     3.7039700000
   28      GH      6.6630000000     2.2769900000     5.1816400000
   29      GH      4.6221100000     4.2890400000     2.2117200000
   30      GH      5.8328000000     0.4746500000     3.3402200000
   31      GH      4.4063400000     1.6005600000     5.3412300000
   32      GH      3.4641700000     0.9360500000     4.1107900000
   33      GH      2.8426800000     3.1577200000     3.4260100000
   34      GH      3.7449300000     3.8157800000     4.7006400000
 ----------------------------------------------------------------

   12    -309.9596911426      6.25E-09 Convergence criterion met
 Total energy in the final basis set = -309.95969114

                    Orbital Energies (a.u.)
 --------------------------------------------------------------

 Alpha MOs
 -- Occupied --
-19.123 -10.221 -10.218 -10.168 -10.167 -10.165 -10.163  -1.050
 -0.798  -0.749  -0.747  -0.614  -0.578  -0.574  -0.527  -0.478
 -0.465  -0.431  -0.406  -0.395  -0.364  -0.360  -0.351  -0.339
 -0.317  -0.304  -0.264

          Ground-State Mulliken Net Atomic Charges

     Atom                 Charge (a.u.)
  ----------------------------------------
      1 C                    -0.452536
      2 C                    -0.433432
      3 C                     0.040529
      4 C                    -0.330070
      5 C                    -0.273411
      6 C                     0.009411
      7 O                    -0.131270
      8 H                     0.187776
      9 H                     0.075844
     10 H                     0.178833
     11 H                     0.068705
     12 H                     0.231627
     13 H                     0.233251
     14 H                     0.106475
     15 H                     0.180766
     16 H                     0.173451
     17 H                     0.114138
     18 GH                   -0.000263
     19 GH                    0.009160
     20 GH                   -0.015364
     21 GH                    0.001393
     22 GH                   -0.005078
     23 GH                   -0.015777
     24 GH                    0.017429
     25 GH                   -0.000415
     26 GH                    0.000379
     27 GH                   -0.000291
     28 GH                    0.000168
     29 GH                    0.003297
     30 GH                    0.003687
     31 GH                   -0.001158
     32 GH                    0.013098
     33 GH                    0.011241
     34 GH                   -0.001594
  ----------------------------------------
  Sum of atomic charges =    -0.000000

                    Cartesian Multipole Moments
 -----------------------------------------------------------------
    Charge (ESU x 10^10)
                -0.0000
    Dipole Moment (Debye)
         X      -0.0156      Y       0.5158      Z       1.7191
       Tot       1.7948
    Quadrupole Moments (Debye-Ang)
        XX     -43.2400     XY      -0.0597     YY     -40.6252
        XZ       2.7762     YZ      -0.8615     ZZ     -46.2326

 Total job time:  125.05s(wall), 497.54s(cpu)
        *  Thank you very much for using Q-Chem.  Have a nice day.  *
