 Q-Chem 5.0, Q-Chem, Inc., Pleasanton, CA (2017)
 Q-Chem 5.0.1 for Intel X86 EM64T Linux

User input:
--------------------------------------------------------------
$molecule
0  1
--
0  1
C        +0.22270000        +1.04488000        +0.58595000
C        +0.62626000        -0.41353000        +0.99871000
C        +1.33008000        +1.39974000        -0.43491000
C        +2.63070000        +1.71700000        +0.32855000
C        +3.04336000        +0.29351000        +0.80300000
C        +1.94423000        -0.59299000        +0.15262000
O        +1.62840000        +0.13663000        -1.04376000
H        +3.37234000        +2.13782000        -0.35195000
H        +2.48236000        +2.42488000        +1.14651000
H        +4.02182000        +0.00994000        +0.41161000
H        +3.07359000        +0.18738000        +1.88928000
H        +1.03270000        +2.19943000        -1.08064000
H        +2.24339000        -1.61496000        +0.04786000
H        +0.81693000        -0.48905000        +2.04887000
H        -0.12524000        -1.15356000        +0.81843000
H        -0.74673000        +1.06811000        +0.13365000
H        +0.15552000        +1.72617000        +1.40828000
--
0  1
C        +2.99942000        +2.66137000        +3.13287000
C        +3.40298000        +1.20296000        +3.54563000
C        +4.10680000        +3.01623000        +2.11201000
C        +5.40742000        +3.33349000        +2.87547000
C        +5.82008000        +1.91000000        +3.34992000
C        +4.72095000        +1.02350000        +2.69954000
O        +4.40512000        +1.75312000        +1.50316000
H        +6.14906000        +3.75431000        +2.19497000
H        +5.25908000        +4.04137000        +3.69343000
H        +6.79854000        +1.62643000        +2.95853000
H        +5.85031000        +1.80387000        +4.43620000
H        +3.80942000        +3.81592000        +1.46628000
H        +5.02011000        +0.00153000        +2.59478000
H        +3.59365000        +1.12744000        +4.59579000
H        +2.65148000        +0.46293000        +3.36535000
H        +2.02999000        +2.68460000        +2.68057000
H        +2.93224000        +3.34266000        +3.95520000
$end

$rem
JOBTYPE                   SP
METHOD                    B3LYP
DFT_D                     d3_op
BASIS                     6-311++G(d,p)
SYMMETRY                  False
THRESH                    12
SCF_CONVERGENCE           8
MAX_SUB_FILE_NUM          128
MEM_STATIC                400
MEM_TOTAL                 4000
$end
--------------------------------------------------------------

             Standard Nuclear Orientation (Angstroms)
    I     Atom           X                Y                Z
 ----------------------------------------------------------------
    1      C       2.6576161667    -0.5876468539     1.1637529096
    2      C       2.7073589572     0.9563166033     0.8919189220
    3      C       2.2985973596    -1.1411750138    -0.2359196578
    4      C       0.8005524702    -0.8952968803    -0.5015188228
    5      C       0.7948719187     0.6442440808    -0.7284466059
    6      C       2.3078948855     0.9885695543    -0.6327145760
    7      O       2.9279968145    -0.2097602715    -1.1255616762
    8      H       0.4859917931    -1.4288580795    -1.3996077043
    9      H       0.1631874300    -1.2181542992     0.3241241414
   10      H       0.4230634200     0.9002640215    -1.7220231148
   11      H       0.1973937218     1.1909805328     0.0038652978
   12      H       2.5646778443    -2.1728573610    -0.3346055412
   13      H       2.5549258167     1.9112347882    -1.1149579058
   14      H       2.0025271141     1.4874581240     1.4968942133
   15      H       3.6443944407     1.4204585755     1.1187101510
   16      H       3.6053109887    -0.9556814716     1.4974211465
   17      H       1.9696817599    -0.8713745589     1.9326096497
   18      C      -1.4326238108    -0.5274785962     1.4400355045
   19      C      -1.3828810203     1.0164848610     1.1682015169
   20      C      -1.7916426179    -1.0810067561     0.0403629371
   21      C      -3.2896875073    -0.8351286226    -0.2252362280
   22      C      -3.2953680588     0.7044123385    -0.4521640111
   23      C      -1.7823450920     1.0487378119    -0.3564319811
   24      O      -1.1622431630    -0.1495920138    -0.8492790813
   25      H      -3.6042481844    -1.3686898218    -1.1233251094
   26      H      -3.9270525474    -1.1579860415     0.6004067362
   27      H      -3.6671765575     0.9604322792    -1.4457405199
   28      H      -3.8928462557     1.2511487905     0.2801478927
   29      H      -1.5255621332    -2.1126891033    -0.0583229463
   30      H      -1.5353141608     1.9714030459    -0.8386753110
   31      H      -2.0877128633     1.5476263817     1.7731768081
   32      H      -0.4458455368     1.4806268331     1.3949927458
   33      H      -0.4849289888    -0.8955132139     1.7737037414
   34      H      -2.1205582176    -0.8112063012     2.2088922446
 ----------------------------------------------------------------

   13    -619.8256337761      8.07E-09 Convergence criterion met
 Total energy in the final basis set = -619.82563378

                    Orbital Energies (a.u.)
 --------------------------------------------------------------

 Alpha MOs
 -- Occupied --
-19.126 -19.103 -10.232 -10.229 -10.197 -10.194 -10.177 -10.177
-10.176 -10.176 -10.152 -10.151 -10.139 -10.138  -1.071  -1.030
 -0.813  -0.784  -0.767  -0.762  -0.730  -0.727  -0.632  -0.607
 -0.593  -0.585  -0.575  -0.552  -0.536  -0.510  -0.505  -0.486
 -0.453  -0.446  -0.435  -0.417  -0.414  -0.410  -0.392  -0.390
 -0.377  -0.371  -0.358  -0.351  -0.346  -0.342  -0.333  -0.320
 -0.317  -0.306  -0.303  -0.283  -0.265  -0.227

          Ground-State Mulliken Net Atomic Charges

     Atom                 Charge (a.u.)
  ----------------------------------------
      1 C                    -0.325012
      2 C                    -0.330482
      3 C                    -0.282609
      4 C                    -0.123693
      5 C                    -0.189078
      6 C                    -0.288400
      7 O                    -0.123137
      8 H                     0.195891
      9 H                     0.054519
     10 H                     0.179652
     11 H                     0.048628
     12 H                     0.208479
     13 H                     0.206128
     14 H                     0.074229
     15 H                     0.185062
     16 H                     0.177339
     17 H                     0.091723
     18 C                    -0.435569
     19 C                    -0.424114
     20 C                     0.165491
     21 C                    -0.580689
     22 C                    -0.579074
     23 C                     0.211147
     24 O                     0.133060
     25 H                     0.168514
     26 H                     0.128166
     27 H                     0.173716
     28 H                     0.123022
     29 H                     0.234031
     30 H                     0.237573
     31 H                     0.178365
     32 H                     0.176053
     33 H                     0.144154
     34 H                     0.186916
  ----------------------------------------
  Sum of atomic charges =    -0.000000

                    Cartesian Multipole Moments
 -----------------------------------------------------------------
    Charge (ESU x 10^10)
                -0.0000
    Dipole Moment (Debye)
         X      -3.7788      Y       0.4427      Z       2.4160
       Tot       4.5069
    Quadrupole Moments (Debye-Ang)
        XX     -93.4557     XY       0.8671     YY     -81.8444
        XZ       4.0720     YZ      -1.8655     ZZ     -90.7717

 Total job time:  179.14s(wall), 713.22s(cpu)
        *  Thank you very much for using Q-Chem.  Have a nice day.  *
