 Q-Chem 5.0, Q-Chem, Inc., Pleasanton, CA (2017)
 Q-Chem 5.0.1 for Intel X86 EM64T Linux

User input:
--------------------------------------------------------------
$molecule
0  1
C        +0.20238000        +1.04766000        +0.59128000
C        +0.63819000        -0.38392000        +1.03507000
C        +1.32502000        +1.40342000        -0.40773000
C        +2.63024000        +1.71632000        +0.35656000
C        +3.06844000        +0.28546000        +0.80025000
C        +1.92879000        -0.57154000        +0.20725000
O        +1.61715000        +0.12844000        -1.01410000
H        +3.36771000        +2.16806000        -0.30914000
H        +2.46905000        +2.39751000        +1.19495000
H        +4.02649000        +0.00980000        +0.35668000
H        +3.15140000        +0.17666000        +1.88393000
H        +1.05332000        +2.11810000        -1.18255000
H        +2.19020000        -1.60239000        -0.02473000
H        +0.81538000        -0.46660000        +2.10960000
H        -0.10758000        -1.13032000        +0.75591000
H        -0.76622000        +1.02844000        +0.08894000
H        +0.14243000        +1.75630000        +1.41989000
@C        +0.24301000        +2.27307000        +4.50366000
@C        +0.67882000        +0.84149000        +4.94745000
@C        +1.36565000        +2.62883000        +3.50465000
@C        +2.67087000        +2.94173000        +4.26894000
@C        +3.10907000        +1.51087000        +4.71263000
@C        +1.96942000        +0.65387000        +4.11963000
@O        +1.65778000        +1.35385000        +2.89828000
@H        +3.40834000        +3.39347000        +3.60324000
@H        +2.50968000        +3.62292000        +5.10733000
@H        +4.06712000        +1.23521000        +4.26906000
@H        +3.19203000        +1.40207000        +5.79631000
@H        +1.09395000        +3.34351000        +2.72983000
@H        +2.23083000        -0.37698000        +3.88765000
@H        +0.85601000        +0.75881000        +6.02198000
@H        -0.06695000        +0.09509000        +4.66829000
@H        -0.72559000        +2.25385000        +4.00132000
@H        +0.18306000        +2.98171000        +5.33227000
$end

$rem
JOBTYPE                   SP
METHOD                    B3LYP
DFT_D                     d3_op
BASIS                     6-311++G(d,p)
SYMMETRY                  False
THRESH                    12
SCF_CONVERGENCE           8
MAX_SUB_FILE_NUM          128
MEM_STATIC                400
MEM_TOTAL                 4000
$end
--------------------------------------------------------------

             Standard Nuclear Orientation (Angstroms)
    I     Atom           X                Y                Z
 ----------------------------------------------------------------
    1      C       0.2023800000     1.0476600000     0.5912800000
    2      C       0.6381900000    -0.3839200000     1.0350700000
    3      C       1.3250200000     1.4034200000    -0.4077300000
    4      C       2.6302400000     1.7163200000     0.3565600000
    5      C       3.0684400000     0.2854600000     0.8002500000
    6      C       1.9287900000    -0.5715400000     0.2072500000
    7      O       1.6171500000     0.1284400000    -1.0141000000
    8      H       3.3677100000     2.1680600000    -0.3091400000
    9      H       2.4690500000     2.3975100000     1.1949500000
   10      H       4.0264900000     0.0098000000     0.3566800000
   11      H       3.1514000000     0.1766600000     1.8839300000
   12      H       1.0533200000     2.1181000000    -1.1825500000
   13      H       2.1902000000    -1.6023900000    -0.0247300000
   14      H       0.8153800000    -0.4666000000     2.1096000000
   15      H      -0.1075800000    -1.1303200000     0.7559100000
   16      H      -0.7662200000     1.0284400000     0.0889400000
   17      H       0.1424300000     1.7563000000     1.4198900000
   18      GH      0.2430100000     2.2730700000     4.5036600000
   19      GH      0.6788200000     0.8414900000     4.9474500000
   20      GH      1.3656500000     2.6288300000     3.5046500000
   21      GH      2.6708700000     2.9417300000     4.2689400000
   22      GH      3.1090700000     1.5108700000     4.7126300000
   23      GH      1.9694200000     0.6538700000     4.1196300000
   24      GH      1.6577800000     1.3538500000     2.8982800000
   25      GH      3.4083400000     3.3934700000     3.6032400000
   26      GH      2.5096800000     3.6229200000     5.1073300000
   27      GH      4.0671200000     1.2352100000     4.2690600000
   28      GH      3.1920300000     1.4020700000     5.7963100000
   29      GH      1.0939500000     3.3435100000     2.7298300000
   30      GH      2.2308300000    -0.3769800000     3.8876500000
   31      GH      0.8560100000     0.7588100000     6.0219800000
   32      GH     -0.0669500000     0.0950900000     4.6682900000
   33      GH     -0.7255900000     2.2538500000     4.0013200000
   34      GH      0.1830600000     2.9817100000     5.3322700000
 ----------------------------------------------------------------

   11    -309.9683417121      9.73E-09 Convergence criterion met
 Total energy in the final basis set = -309.96834171

                    Orbital Energies (a.u.)
 --------------------------------------------------------------

 Alpha MOs
 -- Occupied --
-19.118 -10.219 -10.219 -10.170 -10.170 -10.170 -10.170  -1.046
 -0.798  -0.751  -0.746  -0.612  -0.572  -0.571  -0.524  -0.478
 -0.468  -0.418  -0.408  -0.389  -0.367  -0.361  -0.348  -0.342
 -0.323  -0.306  -0.263

          Ground-State Mulliken Net Atomic Charges

     Atom                 Charge (a.u.)
  ----------------------------------------
      1 C                    -0.263428
      2 C                    -0.270606
      3 C                    -0.200577
      4 C                    -0.266342
      5 C                    -0.269285
      6 C                    -0.199540
      7 O                    -0.154657
      8 H                     0.202295
      9 H                     0.101309
     10 H                     0.202699
     11 H                     0.101749
     12 H                     0.225888
     13 H                     0.225642
     14 H                     0.101561
     15 H                     0.202853
     16 H                     0.202265
     17 H                     0.100474
     18 GH                   -0.000122
     19 GH                   -0.000262
     20 GH                   -0.039215
     21 GH                   -0.000293
     22 GH                   -0.000054
     23 GH                   -0.041628
     24 GH                    0.013803
     25 GH                    0.003296
     26 GH                   -0.000558
     27 GH                    0.003302
     28 GH                   -0.000577
     29 GH                    0.007413
     30 GH                    0.007067
     31 GH                   -0.000589
     32 GH                    0.003332
     33 GH                    0.003343
     34 GH                   -0.000558
  ----------------------------------------
  Sum of atomic charges =     0.000000

                    Cartesian Multipole Moments
 -----------------------------------------------------------------
    Charge (ESU x 10^10)
                 0.0000
    Dipole Moment (Debye)
         X       0.0192      Y       0.5281      Z       1.6799
       Tot       1.7611
    Quadrupole Moments (Debye-Ang)
        XX     -43.1096     XY       0.2900     YY     -41.2688
        XZ       2.8860     YZ      -0.6996     ZZ     -45.9322

 Total job time:  124.92s(wall), 497.39s(cpu)
        *  Thank you very much for using Q-Chem.  Have a nice day.  *
