 Q-Chem 5.0, Q-Chem, Inc., Pleasanton, CA (2017)
 Q-Chem 5.0.1 for Intel X86 EM64T Linux

User input:
--------------------------------------------------------------
$molecule
0  1
--
0  1
C        +0.20238000        +1.04766000        +0.59128000
C        +0.63819000        -0.38392000        +1.03507000
C        +1.32502000        +1.40342000        -0.40773000
C        +2.63024000        +1.71632000        +0.35656000
C        +3.06844000        +0.28546000        +0.80025000
C        +1.92879000        -0.57154000        +0.20725000
O        +1.61715000        +0.12844000        -1.01410000
H        +3.36771000        +2.16806000        -0.30914000
H        +2.46905000        +2.39751000        +1.19495000
H        +4.02649000        +0.00980000        +0.35668000
H        +3.15140000        +0.17666000        +1.88393000
H        +1.05332000        +2.11810000        -1.18255000
H        +2.19020000        -1.60239000        -0.02473000
H        +0.81538000        -0.46660000        +2.10960000
H        -0.10758000        -1.13032000        +0.75591000
H        -0.76622000        +1.02844000        +0.08894000
H        +0.14243000        +1.75630000        +1.41989000
--
0  1
C        +0.24301000        +2.27307000        +4.50366000
C        +0.67882000        +0.84149000        +4.94745000
C        +1.36565000        +2.62883000        +3.50465000
C        +2.67087000        +2.94173000        +4.26894000
C        +3.10907000        +1.51087000        +4.71263000
C        +1.96942000        +0.65387000        +4.11963000
O        +1.65778000        +1.35385000        +2.89828000
H        +3.40834000        +3.39347000        +3.60324000
H        +2.50968000        +3.62292000        +5.10733000
H        +4.06712000        +1.23521000        +4.26906000
H        +3.19203000        +1.40207000        +5.79631000
H        +1.09395000        +3.34351000        +2.72983000
H        +2.23083000        -0.37698000        +3.88765000
H        +0.85601000        +0.75881000        +6.02198000
H        -0.06695000        +0.09509000        +4.66829000
H        -0.72559000        +2.25385000        +4.00132000
H        +0.18306000        +2.98171000        +5.33227000
$end

$rem
JOBTYPE                   SP
METHOD                    B3LYP
DFT_D                     d3_op
BASIS                     6-311++G(d,p)
SYMMETRY                  False
THRESH                    12
SCF_CONVERGENCE           8
MAX_SUB_FILE_NUM          128
MEM_STATIC                400
MEM_TOTAL                 4000
$end
--------------------------------------------------------------

             Standard Nuclear Orientation (Angstroms)
    I     Atom           X                Y                Z
 ----------------------------------------------------------------
    1      C      -1.5860679873    -1.2641694380     0.7815069558
    2      C      -1.5862298568    -1.2659805132    -0.7793575195
    3      C      -2.4218254563     0.0003839950     1.0770078785
    4      C      -1.5860083130     1.2650010187     0.7807000168
    5      C      -1.5860265991     1.2656838438    -0.7801458850
    6      C      -2.4194069177     0.0000697535    -1.0778006204
    7      O      -3.3786820271    -0.0003132102    -0.0014278085
    8      H      -2.0788520989     2.1542795601     1.1774067055
    9      H      -0.5839642899     1.2126673114     1.2120569260
   10      H      -2.0821712626     2.1535298636    -1.1753325511
   11      H      -0.5836605466     1.2158240137    -1.2112589074
   12      H      -2.9502220722     0.0007373172     2.0287070517
   13      H      -2.9463372847    -0.0002892778    -2.0302426870
   14      H      -0.5838494895    -1.2176301014    -1.2103364474
   15      H      -2.0831586591    -2.1534170819    -1.1752542996
   16      H      -2.0807859801    -2.1522938174     1.1782310895
   17      H      -0.5841435082    -1.2111537876     1.2124313846
   18      C       2.5139317235    -1.2643798186     0.7812680390
   19      C       2.5137698539    -1.2661908938    -0.7795964364
   20      C       1.6781742544     0.0001736144     1.0767689617
   21      C       2.5139913977     1.2647906380     0.7804610999
   22      C       2.5139731116     1.2654734632    -0.7803848018
   23      C       1.6805927931    -0.0001406272    -1.0780395372
   24      O       0.7213176836    -0.0005235908    -0.0016667253
   25      H       2.0211476119     2.1540691795     1.1771677887
   26      H       3.5160354208     1.2124569308     1.2118180092
   27      H       2.0178284481     2.1533194830    -1.1755714679
   28      H       3.5163391642     1.2156136330    -1.2114978242
   29      H       1.1497776385     0.0005269366     2.0284681349
   30      H       1.1536624260    -0.0004996585    -2.0304816039
   31      H       3.5161502213    -1.2178404821    -1.2105753642
   32      H       2.0168410516    -2.1536274625    -1.1754932164
   33      H       2.0192137306    -2.1525041981     1.1779921727
   34      H       3.5158562025    -1.2113641682     1.2121924678
 ----------------------------------------------------------------

   13    -619.9240576933      6.42E-09 Convergence criterion met
 Total energy in the final basis set = -619.92405769

                    Orbital Energies (a.u.)
 --------------------------------------------------------------

 Alpha MOs
 -- Occupied --
-19.127 -19.102 -10.230 -10.230 -10.203 -10.203 -10.180 -10.180
-10.179 -10.179 -10.150 -10.150 -10.150 -10.150  -1.063  -1.030
 -0.811  -0.779  -0.762  -0.759  -0.733  -0.729  -0.623  -0.595
 -0.588  -0.584  -0.557  -0.553  -0.538  -0.508  -0.494  -0.481
 -0.457  -0.446  -0.431  -0.418  -0.402  -0.401  -0.391  -0.378
 -0.373  -0.371  -0.355  -0.355  -0.348  -0.343  -0.338  -0.330
 -0.320  -0.317  -0.301  -0.289  -0.276  -0.245

          Ground-State Mulliken Net Atomic Charges

     Atom                 Charge (a.u.)
  ----------------------------------------
      1 C                    -0.217012
      2 C                    -0.222454
      3 C                    -0.230152
      4 C                    -0.217677
      5 C                    -0.221078
      6 C                    -0.231094
      7 O                    -0.160008
      8 H                     0.186059
      9 H                     0.067392
     10 H                     0.186626
     11 H                     0.068863
     12 H                     0.215755
     13 H                     0.215237
     14 H                     0.069104
     15 H                     0.186517
     16 H                     0.186230
     17 H                     0.067126
     18 C                    -0.497394
     19 C                    -0.500887
     20 C                     0.184208
     21 C                    -0.498139
     22 C                    -0.500621
     23 C                     0.186998
     24 O                     0.051736
     25 H                     0.162008
     26 H                     0.138508
     27 H                     0.161846
     28 H                     0.138646
     29 H                     0.211620
     30 H                     0.211201
     31 H                     0.138577
     32 H                     0.161801
     33 H                     0.161886
     34 H                     0.138572
  ----------------------------------------
  Sum of atomic charges =     0.000000

                    Cartesian Multipole Moments
 -----------------------------------------------------------------
    Charge (ESU x 10^10)
                 0.0000
    Dipole Moment (Debye)
         X       4.5351      Y       0.0033      Z       0.0017
       Tot       4.5351
    Quadrupole Moments (Debye-Ang)
        XX     -95.9175     XY       0.0035     YY     -87.7266
        XZ      -0.0080     YZ       0.0056     ZZ     -83.1639

 Total job time:  155.90s(wall), 620.46s(cpu)
        *  Thank you very much for using Q-Chem.  Have a nice day.  *
