 Q-Chem 5.0, Q-Chem, Inc., Pleasanton, CA (2017)
 Q-Chem 5.0.1 for Intel X86 EM64T Linux

User input:
--------------------------------------------------------------
$molecule
0  1
C        +2.99942000        +2.66137000        +3.13287000
C        +3.40298000        +1.20296000        +3.54563000
C        +4.10680000        +3.01623000        +2.11201000
C        +5.40742000        +3.33349000        +2.87547000
C        +5.82008000        +1.91000000        +3.34992000
C        +4.72095000        +1.02350000        +2.69954000
O        +4.40512000        +1.75312000        +1.50316000
H        +6.14906000        +3.75431000        +2.19497000
H        +5.25908000        +4.04137000        +3.69343000
H        +6.79854000        +1.62643000        +2.95853000
H        +5.85031000        +1.80387000        +4.43620000
H        +3.80942000        +3.81592000        +1.46628000
H        +5.02011000        +0.00153000        +2.59478000
H        +3.59365000        +1.12744000        +4.59579000
H        +2.65148000        +0.46293000        +3.36535000
H        +2.02999000        +2.68460000        +2.68057000
H        +2.93224000        +3.34266000        +3.95520000
@C        +0.22270000        +1.04488000        +0.58595000
@C        +0.62626000        -0.41353000        +0.99871000
@C        +1.33008000        +1.39974000        -0.43491000
@C        +2.63070000        +1.71700000        +0.32855000
@C        +3.04336000        +0.29351000        +0.80300000
@C        +1.94423000        -0.59299000        +0.15262000
@O        +1.62840000        +0.13663000        -1.04376000
@H        +3.37234000        +2.13782000        -0.35195000
@H        +2.48236000        +2.42488000        +1.14651000
@H        +4.02182000        +0.00994000        +0.41161000
@H        +3.07359000        +0.18738000        +1.88928000
@H        +1.03270000        +2.19943000        -1.08064000
@H        +2.24339000        -1.61496000        +0.04786000
@H        +0.81693000        -0.48905000        +2.04887000
@H        -0.12524000        -1.15356000        +0.81843000
@H        -0.74673000        +1.06811000        +0.13365000
@H        +0.15552000        +1.72617000        +1.40828000
$end

$rem
JOBTYPE                   SP
METHOD                    B3LYP
DFT_D                     d3_op
BASIS                     6-311++G(d,p)
SYMMETRY                  False
THRESH                    12
SCF_CONVERGENCE           8
MAX_SUB_FILE_NUM          128
MEM_STATIC                400
MEM_TOTAL                 4000
$end
--------------------------------------------------------------

             Standard Nuclear Orientation (Angstroms)
    I     Atom           X                Y                Z
 ----------------------------------------------------------------
    1      C       2.9994200000     2.6613700000     3.1328700000
    2      C       3.4029800000     1.2029600000     3.5456300000
    3      C       4.1068000000     3.0162300000     2.1120100000
    4      C       5.4074200000     3.3334900000     2.8754700000
    5      C       5.8200800000     1.9100000000     3.3499200000
    6      C       4.7209500000     1.0235000000     2.6995400000
    7      O       4.4051200000     1.7531200000     1.5031600000
    8      H       6.1490600000     3.7543100000     2.1949700000
    9      H       5.2590800000     4.0413700000     3.6934300000
   10      H       6.7985400000     1.6264300000     2.9585300000
   11      H       5.8503100000     1.8038700000     4.4362000000
   12      H       3.8094200000     3.8159200000     1.4662800000
   13      H       5.0201100000     0.0015300000     2.5947800000
   14      H       3.5936500000     1.1274400000     4.5957900000
   15      H       2.6514800000     0.4629300000     3.3653500000
   16      H       2.0299900000     2.6846000000     2.6805700000
   17      H       2.9322400000     3.3426600000     3.9552000000
   18      GH      0.2227000000     1.0448800000     0.5859500000
   19      GH      0.6262600000    -0.4135300000     0.9987100000
   20      GH      1.3300800000     1.3997400000    -0.4349100000
   21      GH      2.6307000000     1.7170000000     0.3285500000
   22      GH      3.0433600000     0.2935100000     0.8030000000
   23      GH      1.9442300000    -0.5929900000     0.1526200000
   24      GH      1.6284000000     0.1366300000    -1.0437600000
   25      GH      3.3723400000     2.1378200000    -0.3519500000
   26      GH      2.4823600000     2.4248800000     1.1465100000
   27      GH      4.0218200000     0.0099400000     0.4116100000
   28      GH      3.0735900000     0.1873800000     1.8892800000
   29      GH      1.0327000000     2.1994300000    -1.0806400000
   30      GH      2.2433900000    -1.6149600000     0.0478600000
   31      GH      0.8169300000    -0.4890500000     2.0488700000
   32      GH     -0.1252400000    -1.1535600000     0.8184300000
   33      GH     -0.7467300000     1.0681100000     0.1336500000
   34      GH      0.1555200000     1.7261700000     1.4082800000
 ----------------------------------------------------------------

   12    -309.9609666450      6.40E-09 Convergence criterion met
 Total energy in the final basis set = -309.96096665

                    Orbital Energies (a.u.)
 --------------------------------------------------------------

 Alpha MOs
 -- Occupied --
-19.123 -10.221 -10.218 -10.168 -10.167 -10.165 -10.163  -1.050
 -0.797  -0.749  -0.747  -0.614  -0.578  -0.573  -0.526  -0.478
 -0.465  -0.430  -0.406  -0.395  -0.364  -0.359  -0.351  -0.339
 -0.317  -0.304  -0.264

          Ground-State Mulliken Net Atomic Charges

     Atom                 Charge (a.u.)
  ----------------------------------------
      1 C                    -0.421305
      2 C                    -0.380450
      3 C                     0.295593
      4 C                    -0.605404
      5 C                    -0.577062
      6 C                     0.273875
      7 O                    -0.075139
      8 H                     0.164667
      9 H                     0.125008
     10 H                     0.169107
     11 H                     0.120979
     12 H                     0.215280
     13 H                     0.220723
     14 H                     0.177699
     15 H                     0.138518
     16 H                     0.123771
     17 H                     0.183373
     18 GH                   -0.006677
     19 GH                   -0.004234
     20 GH                   -0.066569
     21 GH                   -0.008690
     22 GH                   -0.001266
     23 GH                   -0.094660
     24 GH                   -0.001310
     25 GH                    0.008560
     26 GH                    0.004442
     27 GH                    0.011073
     28 GH                    0.007895
     29 GH                   -0.000976
     30 GH                   -0.001880
     31 GH                    0.001628
     32 GH                   -0.000094
     33 GH                    0.000209
     34 GH                    0.003316
  ----------------------------------------
  Sum of atomic charges =     0.000000

                    Cartesian Multipole Moments
 -----------------------------------------------------------------
    Charge (ESU x 10^10)
                 0.0000
    Dipole Moment (Debye)
         X      -0.0245      Y       0.5044      Z       1.6879
       Tot       1.7618
    Quadrupole Moments (Debye-Ang)
        XX     -43.4285     XY       1.2962     YY     -39.0354
        XZ       7.3770     YZ       3.1822     ZZ     -37.5598

 Total job time:  165.05s(wall), 656.61s(cpu)
        *  Thank you very much for using Q-Chem.  Have a nice day.  *
