 Q-Chem 5.0, Q-Chem, Inc., Pleasanton, CA (2017)
 Q-Chem 5.0.1 for Intel X86 EM64T Linux

User input:
--------------------------------------------------------------
$molecule
0  1
--
0  1
C        +0.22270000        +1.04488000        +0.58595000
C        +0.62626000        -0.41353000        +0.99871000
C        +1.33008000        +1.39974000        -0.43491000
C        +2.63070000        +1.71700000        +0.32855000
C        +3.04336000        +0.29351000        +0.80300000
C        +1.94423000        -0.59299000        +0.15262000
O        +1.62840000        +0.13663000        -1.04376000
H        +3.37234000        +2.13782000        -0.35195000
H        +2.48236000        +2.42488000        +1.14651000
H        +4.02182000        +0.00994000        +0.41161000
H        +3.07359000        +0.18738000        +1.88928000
H        +1.03270000        +2.19943000        -1.08064000
H        +2.24339000        -1.61496000        +0.04786000
H        +0.81693000        -0.48905000        +2.04887000
H        -0.12524000        -1.15356000        +0.81843000
H        -0.74673000        +1.06811000        +0.13365000
H        +0.15552000        +1.72617000        +1.40828000
--
0  1
C        +3.81211000        +3.13449000        +3.87831000
C        +4.21567000        +1.67608000        +4.29107000
C        +4.91949000        +3.48935000        +2.85745000
C        +6.22011000        +3.80661000        +3.62091000
C        +6.63277000        +2.38312000        +4.09536000
C        +5.53364000        +1.49662000        +3.44498000
O        +5.21781000        +2.22624000        +2.24860000
H        +6.96175000        +4.22743000        +2.94041000
H        +6.07177000        +4.51449000        +4.43887000
H        +7.61123000        +2.09955000        +3.70397000
H        +6.66300000        +2.27699000        +5.18164000
H        +4.62211000        +4.28904000        +2.21172000
H        +5.83280000        +0.47465000        +3.34022000
H        +4.40634000        +1.60056000        +5.34123000
H        +3.46417000        +0.93605000        +4.11079000
H        +2.84268000        +3.15772000        +3.42601000
H        +3.74493000        +3.81578000        +4.70064000
$end

$rem
JOBTYPE                   SP
METHOD                    B3LYP
DFT_D                     d3_op
BASIS                     6-311++G(d,p)
SYMMETRY                  False
THRESH                    12
SCF_CONVERGENCE           8
MAX_SUB_FILE_NUM          128
MEM_STATIC                400
MEM_TOTAL                 4000
$end
--------------------------------------------------------------

             Standard Nuclear Orientation (Angstroms)
    I     Atom           X                Y                Z
 ----------------------------------------------------------------
    1      C       3.2281247322    -0.5274447541     1.2334306080
    2      C       3.2760467880     1.0045091560     0.9002461051
    3      C       2.9103357087    -1.1398952987    -0.1515913018
    4      C       1.4185828949    -0.9155330031    -0.4669840192
    5      C       1.4099158185     0.6134378503    -0.7566180457
    6      C       2.9177340800     0.9719800500    -0.6345740672
    7      O       3.5580118242    -0.2410041550    -1.0613442233
    8      H       1.1315659034    -1.4873405384    -1.3506451540
    9      H       0.7610684852    -1.2090408169     0.3537993724
   10      H       1.0635755613     0.8262581079    -1.7694052952
   11      H       0.7896434356     1.1852719092    -0.0634732929
   12      H       3.1850916270    -2.1728425259    -0.2009411204
   13      H       3.1722334650     1.8759992822    -1.1472858137
   14      H       2.5519943372     1.5548339454     1.4639703458
   15      H       4.2038474799     1.4840485429     1.1328947283
   16      H       4.1686226449    -0.8749565911     1.6070730135
   17      H       2.5213626587    -0.7845184836     1.9945457861
   18      C      -2.0673397243    -0.4723337761     1.4455330354
   19      C      -2.0194176685     1.0596201340     1.1123485325
   20      C      -2.3851287478    -1.0847843207     0.0605111257
   21      C      -3.8768815617    -0.8604220251    -0.2548815917
   22      C      -3.8855486380     0.6685488283    -0.5445156182
   23      C      -2.3777303765     1.0270910280    -0.4224716397
   24      O      -1.7374526323    -0.1858931770    -0.8492417958
   25      H      -4.1638985532    -1.4322295603    -1.1385427266
   26      H      -4.5343959713    -1.1539298389     0.5659017999
   27      H      -4.2318888953     0.8813690859    -1.5573028677
   28      H      -4.5058210209     1.2403828872     0.1486291345
   29      H      -2.1103728295    -2.1177315479     0.0111613071
   30      H      -2.1232309915     1.9311102602    -0.9351833862
   31      H      -2.7434701193     1.6099449234     1.6760727733
   32      H      -1.0916169766     1.5391595209     1.3449971558
   33      H      -1.1268418116    -0.8198456131     1.8191754410
   34      H      -2.7741017978    -0.7294075056     2.2066482136
 ----------------------------------------------------------------

   13    -619.9222089963      6.40E-09 Convergence criterion met
 Total energy in the final basis set = -619.92220900

                    Orbital Energies (a.u.)
 --------------------------------------------------------------

 Alpha MOs
 -- Occupied --
-19.127 -19.115 -10.226 -10.223 -10.213 -10.210 -10.171 -10.171
-10.169 -10.168 -10.159 -10.158 -10.156 -10.156  -1.054  -1.042
 -0.802  -0.789  -0.753  -0.751  -0.740  -0.739  -0.618  -0.606
 -0.582  -0.578  -0.570  -0.565  -0.531  -0.518  -0.483  -0.471
 -0.467  -0.456  -0.435  -0.423  -0.411  -0.400  -0.397  -0.387
 -0.369  -0.364  -0.356  -0.355  -0.351  -0.343  -0.343  -0.331
 -0.322  -0.309  -0.308  -0.295  -0.269  -0.255

          Ground-State Mulliken Net Atomic Charges

     Atom                 Charge (a.u.)
  ----------------------------------------
      1 C                    -0.454986
      2 C                    -0.437465
      3 C                     0.034800
      4 C                    -0.307374
      5 C                    -0.263152
      6 C                    -0.005670
      7 O                    -0.135366
      8 H                     0.196149
      9 H                     0.060235
     10 H                     0.189618
     11 H                     0.048296
     12 H                     0.227562
     13 H                     0.228840
     14 H                     0.101233
     15 H                     0.177393
     16 H                     0.170737
     17 H                     0.109790
     18 C                    -0.324059
     19 C                    -0.364501
     20 C                     0.099554
     21 C                    -0.580935
     22 C                    -0.510974
     23 C                     0.136113
     24 O                    -0.009837
     25 H                     0.169312
     26 H                     0.126001
     27 H                     0.169235
     28 H                     0.124949
     29 H                     0.221804
     30 H                     0.227051
     31 H                     0.145225
     32 H                     0.142984
     33 H                     0.130659
     34 H                     0.156780
  ----------------------------------------
  Sum of atomic charges =    -0.000000

                    Cartesian Multipole Moments
 -----------------------------------------------------------------
    Charge (ESU x 10^10)
                -0.0000
    Dipole Moment (Debye)
         X      -2.8637      Y       0.5296      Z       2.3639
       Tot       3.7509
    Quadrupole Moments (Debye-Ang)
        XX     -92.1157     XY       1.0060     YY     -81.6119
        XZ       3.8307     YZ      -2.2807     ZZ     -90.2998

 Total job time:  144.35s(wall), 574.68s(cpu)
        *  Thank you very much for using Q-Chem.  Have a nice day.  *
