 Q-Chem 5.0, Q-Chem, Inc., Pleasanton, CA (2017)
 Q-Chem 5.0.1 for Intel X86 EM64T Linux

User input:
--------------------------------------------------------------
$molecule
0  1
C        +0.22270000        +1.04488000        +0.58595000
C        +0.62626000        -0.41353000        +0.99871000
C        +1.33008000        +1.39974000        -0.43491000
C        +2.63070000        +1.71700000        +0.32855000
C        +3.04336000        +0.29351000        +0.80300000
C        +1.94423000        -0.59299000        +0.15262000
O        +1.62840000        +0.13663000        -1.04376000
H        +3.37234000        +2.13782000        -0.35195000
H        +2.48236000        +2.42488000        +1.14651000
H        +4.02182000        +0.00994000        +0.41161000
H        +3.07359000        +0.18738000        +1.88928000
H        +1.03270000        +2.19943000        -1.08064000
H        +2.24339000        -1.61496000        +0.04786000
H        +0.81693000        -0.48905000        +2.04887000
H        -0.12524000        -1.15356000        +0.81843000
H        -0.74673000        +1.06811000        +0.13365000
H        +0.15552000        +1.72617000        +1.40828000
@C        +2.99942000        +2.66137000        +3.13287000
@C        +3.40298000        +1.20296000        +3.54563000
@C        +4.10680000        +3.01623000        +2.11201000
@C        +5.40742000        +3.33349000        +2.87547000
@C        +5.82008000        +1.91000000        +3.34992000
@C        +4.72095000        +1.02350000        +2.69954000
@O        +4.40512000        +1.75312000        +1.50316000
@H        +6.14906000        +3.75431000        +2.19497000
@H        +5.25908000        +4.04137000        +3.69343000
@H        +6.79854000        +1.62643000        +2.95853000
@H        +5.85031000        +1.80387000        +4.43620000
@H        +3.80942000        +3.81592000        +1.46628000
@H        +5.02011000        +0.00153000        +2.59478000
@H        +3.59365000        +1.12744000        +4.59579000
@H        +2.65148000        +0.46293000        +3.36535000
@H        +2.02999000        +2.68460000        +2.68057000
@H        +2.93224000        +3.34266000        +3.95520000
$end

$rem
JOBTYPE                   SP
METHOD                    B3LYP
DFT_D                     d3_op
BASIS                     6-311++G(d,p)
SYMMETRY                  False
THRESH                    12
SCF_CONVERGENCE           8
MAX_SUB_FILE_NUM          128
MEM_STATIC                400
MEM_TOTAL                 4000
$end
--------------------------------------------------------------

             Standard Nuclear Orientation (Angstroms)
    I     Atom           X                Y                Z
 ----------------------------------------------------------------
    1      C       0.2227000000     1.0448800000     0.5859500000
    2      C       0.6262600000    -0.4135300000     0.9987100000
    3      C       1.3300800000     1.3997400000    -0.4349100000
    4      C       2.6307000000     1.7170000000     0.3285500000
    5      C       3.0433600000     0.2935100000     0.8030000000
    6      C       1.9442300000    -0.5929900000     0.1526200000
    7      O       1.6284000000     0.1366300000    -1.0437600000
    8      H       3.3723400000     2.1378200000    -0.3519500000
    9      H       2.4823600000     2.4248800000     1.1465100000
   10      H       4.0218200000     0.0099400000     0.4116100000
   11      H       3.0735900000     0.1873800000     1.8892800000
   12      H       1.0327000000     2.1994300000    -1.0806400000
   13      H       2.2433900000    -1.6149600000     0.0478600000
   14      H       0.8169300000    -0.4890500000     2.0488700000
   15      H      -0.1252400000    -1.1535600000     0.8184300000
   16      H      -0.7467300000     1.0681100000     0.1336500000
   17      H       0.1555200000     1.7261700000     1.4082800000
   18      GH      2.9994200000     2.6613700000     3.1328700000
   19      GH      3.4029800000     1.2029600000     3.5456300000
   20      GH      4.1068000000     3.0162300000     2.1120100000
   21      GH      5.4074200000     3.3334900000     2.8754700000
   22      GH      5.8200800000     1.9100000000     3.3499200000
   23      GH      4.7209500000     1.0235000000     2.6995400000
   24      GH      4.4051200000     1.7531200000     1.5031600000
   25      GH      6.1490600000     3.7543100000     2.1949700000
   26      GH      5.2590800000     4.0413700000     3.6934300000
   27      GH      6.7985400000     1.6264300000     2.9585300000
   28      GH      5.8503100000     1.8038700000     4.4362000000
   29      GH      3.8094200000     3.8159200000     1.4662800000
   30      GH      5.0201100000     0.0015300000     2.5947800000
   31      GH      3.5936500000     1.1274400000     4.5957900000
   32      GH      2.6514800000     0.4629300000     3.3653500000
   33      GH      2.0299900000     2.6846000000     2.6805700000
   34      GH      2.9322400000     3.3426600000     3.9552000000
 ----------------------------------------------------------------

   12    -309.9600315207      6.40E-09 Convergence criterion met
 Total energy in the final basis set = -309.96003152

                    Orbital Energies (a.u.)
 --------------------------------------------------------------

 Alpha MOs
 -- Occupied --
-19.123 -10.221 -10.218 -10.168 -10.167 -10.165 -10.163  -1.050
 -0.798  -0.749  -0.747  -0.614  -0.578  -0.574  -0.527  -0.478
 -0.465  -0.431  -0.406  -0.395  -0.364  -0.360  -0.351  -0.339
 -0.317  -0.304  -0.264

          Ground-State Mulliken Net Atomic Charges

     Atom                 Charge (a.u.)
  ----------------------------------------
      1 C                    -0.333498
      2 C                    -0.344578
      3 C                    -0.218075
      4 C                    -0.193199
      5 C                    -0.212378
      6 C                    -0.195415
      7 O                    -0.111309
      8 H                     0.196629
      9 H                     0.054861
     10 H                     0.192703
     11 H                     0.053800
     12 H                     0.227564
     13 H                     0.225185
     14 H                     0.097140
     15 H                     0.191474
     16 H                     0.182880
     17 H                     0.109941
     18 GH                   -0.023006
     19 GH                   -0.017660
     20 GH                    0.010063
     21 GH                    0.008441
     22 GH                    0.001331
     23 GH                    0.012645
     24 GH                    0.042520
     25 GH                   -0.000160
     26 GH                    0.000577
     27 GH                    0.000066
     28 GH                    0.000473
     29 GH                    0.006735
     30 GH                    0.005184
     31 GH                   -0.001947
     32 GH                    0.022901
     33 GH                    0.008795
     34 GH                   -0.000681
  ----------------------------------------
  Sum of atomic charges =    -0.000000

                    Cartesian Multipole Moments
 -----------------------------------------------------------------
    Charge (ESU x 10^10)
                -0.0000
    Dipole Moment (Debye)
         X      -0.0148      Y       0.5148      Z       1.7149
       Tot       1.7906
    Quadrupole Moments (Debye-Ang)
        XX     -43.2387     XY      -0.0533     YY     -40.6351
        XZ       2.7822     YZ      -0.8474     ZZ     -46.2087

 Total job time:  170.37s(wall), 677.61s(cpu)
        *  Thank you very much for using Q-Chem.  Have a nice day.  *
