 Q-Chem 5.0, Q-Chem, Inc., Pleasanton, CA (2017)
 Q-Chem 5.0.1 for Intel X86 EM64T Linux

User input:
--------------------------------------------------------------
$molecule
0  1
--
0  1
C        +0.20553000        +1.04146000        +0.58269000
C        +0.65000000        -0.38925000        +1.00740000
C        +1.32948000        +1.41743000        -0.40725000
C        +2.62919000        +1.72756000        +0.36622000
C        +3.06783000        +0.29650000        +0.79479000
C        +1.94651000        -0.57906000        +0.17708000
O        +1.63056000        +0.15702000        -1.03120000
H        +3.36767000        +2.18673000        -0.29348000
H        +2.46319000        +2.40269000        +1.20873000
H        +4.03298000        +0.02999000        +0.35944000
H        +3.13919000        +0.17160000        +1.87760000
H        +1.05575000        +2.14422000        -1.17046000
C        +2.32428000        -2.00466000        -0.15206000
H        +3.19961000        -2.02906000        -0.80581000
H        +1.50021000        -2.51513000        -0.65630000
H        +2.56254000        -2.55434000        +0.76296000
H        -0.76025000        +1.02051000        +0.07473000
H        +0.13481000        +1.74083000        +1.41846000
H        +0.82947000        -0.48542000        +2.08050000
H        -0.09122000        -1.13848000        +0.72072000
--
0  1
C        +0.22049000        +2.21720000        +4.51046000
C        +0.66496000        +0.78649000        +4.93517000
C        +1.34444000        +2.59317000        +3.52052000
C        +2.64415000        +2.90330000        +4.29399000
C        +3.08279000        +1.47224000        +4.72256000
C        +1.96147000        +0.59668000        +4.10485000
O        +1.64552000        +1.33276000        +2.89657000
H        +3.38263000        +3.36247000        +3.63429000
H        +2.47815000        +3.57843000        +5.13650000
H        +4.04794000        +1.20573000        +4.28721000
H        +3.15415000        +1.34734000        +5.80537000
H        +1.07071000        +3.31996000        +2.75731000
C        +2.33924000        -0.82892000        +3.77571000
H        +3.21457000        -0.85332000        +3.12196000
H        +1.51517000        -1.33939000        +3.27147000
H        +2.57750000        -1.37860000        +4.69073000
H        -0.74529000        +2.19625000        +4.00250000
H        +0.14977000        +2.91657000        +5.34623000
H        +0.84443000        +0.69032000        +6.00827000
H        -0.07626000        +0.03726000        +4.64849000
$end

$rem
JOBTYPE                   SP
METHOD                    B3LYP
DFT_D                     d3_op
BASIS                     6-311++G(d,p)
SYMMETRY                  False
THRESH                    12
SCF_CONVERGENCE           8
MAX_SUB_FILE_NUM          128
MEM_STATIC                400
MEM_TOTAL                 4000
$end
--------------------------------------------------------------

             Standard Nuclear Orientation (Angstroms)
    I     Atom           X                Y                Z
 ----------------------------------------------------------------
    1      C       1.3105122416     1.2536966668    -1.2627803080
    2      C       1.4678884995    -0.2955276491    -1.2628204991
    3      C       2.1132505813     1.6313440802     0.0011784873
    4      C       1.3125624034     1.2514529510     1.2654030376
    5      C       1.4663517141    -0.2978443871     1.2593512347
    6      C       2.3404972877    -0.5265467807    -0.0012415748
    7      O       3.1737250387     0.6597540864    -0.0005379261
    8      H       1.7685771610     1.6907813612     2.1544671400
    9      H       0.2738094863     1.5860731048     1.2184845249
   10      H       1.9939531751    -0.6479454301     2.1488104429
   11      H       0.5127219318    -0.8273801325     1.2014557400
   12      H       2.5389703441     2.6335434077     0.0018944528
   13      C       3.1922283975    -1.7747174622     0.0004134029
   14      H       3.8284964609    -1.8045487055     0.8883661492
   15      H       3.8310471081    -1.8065616996    -0.8854904084
   16      H       2.5582857700    -2.6659491374     0.0010270524
   17      H       1.7646482493     1.6968400274    -2.1507992948
   18      H       0.2712315562     1.5851583610    -1.2112050179
   19      H       0.5151070465    -0.8268026033    -1.2084496827
   20      H       1.9973814409    -0.6423848085    -2.1529134378
   21      C      -2.7689644291     0.8440192168    -1.2627276285
   22      C      -2.6115881712    -0.7052050991    -1.2627678196
   23      C      -1.9662260894     1.2216666302     0.0012311668
   24      C      -2.7669142672     0.8417755010     1.2654557172
   25      C      -2.6131249565    -0.7075218371     1.2594039142
   26      C      -1.7389793829    -0.9362242307    -0.0011888953
   27      O      -0.9057516320     0.2500766364    -0.0004852466
   28      H      -2.3108995096     1.2811039112     2.1545198195
   29      H      -3.8056671843     1.1763956548     1.2185372044
   30      H      -2.0855234955    -1.0576228801     2.1488631224
   31      H      -3.5667547388    -1.2370575825     1.2015084195
   32      H      -1.5405063265     2.2238659577     0.0019471323
   33      C      -0.8872482732    -2.1843949122     0.0004660824
   34      H      -0.2509802097    -2.2142261556     0.8884188287
   35      H      -0.2484295626    -2.2162391496    -0.8854377289
   36      H      -1.5211909007    -3.0756265874     0.0010797319
   37      H      -2.3148284214     1.2871625774    -2.1507466153
   38      H      -3.8082451144     1.1754809110    -1.2111523384
   39      H      -3.5643696242    -1.2364800533    -1.2083970032
   40      H      -2.0820952297    -1.0520622586    -2.1528607583
 ----------------------------------------------------------------

   13    -698.5816084627      6.78E-09 Convergence criterion met
 Total energy in the final basis set = -698.58160846

                    Orbital Energies (a.u.)
 --------------------------------------------------------------

 Alpha MOs
 -- Occupied --
-19.123 -19.100 -10.235 -10.228 -10.209 -10.201 -10.178 -10.178
-10.177 -10.177 -10.169 -10.151 -10.148 -10.148 -10.146 -10.145
 -1.060  -1.029  -0.812  -0.790  -0.779  -0.760  -0.758  -0.732
 -0.692  -0.666  -0.623  -0.596  -0.588  -0.570  -0.555  -0.537
 -0.512  -0.500  -0.485  -0.479  -0.462  -0.459  -0.439  -0.429
 -0.420  -0.415  -0.401  -0.401  -0.388  -0.384  -0.377  -0.371
 -0.360  -0.358  -0.353  -0.350  -0.336  -0.332  -0.327  -0.325
 -0.313  -0.311  -0.298  -0.285  -0.273  -0.243

          Ground-State Mulliken Net Atomic Charges

     Atom                 Charge (a.u.)
  ----------------------------------------
      1 C                    -0.304714
      2 C                     0.030772
      3 C                    -0.175945
      4 C                    -0.307072
      5 C                     0.034363
      6 C                    -0.372194
      7 O                    -0.051433
      8 H                     0.183579
      9 H                     0.080185
     10 H                     0.205649
     11 H                    -0.009406
     12 H                     0.224032
     13 C                    -0.544575
     14 H                     0.149600
     15 H                     0.149438
     16 H                     0.138302
     17 H                     0.183749
     18 H                     0.079102
     19 H                    -0.008486
     20 H                     0.205629
     21 C                    -0.621458
     22 C                    -0.315245
     23 C                     0.315506
     24 C                    -0.624255
     25 C                    -0.310768
     26 C                    -0.030071
     27 O                     0.106987
     28 H                     0.155874
     29 H                     0.149265
     30 H                     0.170316
     31 H                     0.150605
     32 H                     0.236801
     33 C                    -0.470643
     34 H                     0.198698
     35 H                     0.198488
     36 H                     0.173092
     37 H                     0.156348
     38 H                     0.148919
     39 H                     0.150512
     40 H                     0.170457
  ----------------------------------------
  Sum of atomic charges =     0.000000

                    Cartesian Multipole Moments
 -----------------------------------------------------------------
    Charge (ESU x 10^10)
                -0.0000
    Dipole Moment (Debye)
         X      -4.3464      Y      -0.7263      Z       0.0047
       Tot       4.4067
    Quadrupole Moments (Debye-Ang)
        XX    -107.6025     XY      -2.4855     YY     -97.1562
        XZ      -0.0027     YZ       0.0056     ZZ    -101.2411

 Total job time:  278.51s(wall), 1099.64s(cpu)
        *  Thank you very much for using Q-Chem.  Have a nice day.  *
