 Q-Chem 5.0, Q-Chem, Inc., Pleasanton, CA (2017)
 Q-Chem 5.0.1 for Intel X86 EM64T Linux

User input:
--------------------------------------------------------------
$molecule
0  1
--
0  1
C        +0.22270000        +1.04488000        +0.58595000
C        +0.62626000        -0.41353000        +0.99871000
C        +1.33008000        +1.39974000        -0.43491000
C        +2.63070000        +1.71700000        +0.32855000
C        +3.04336000        +0.29351000        +0.80300000
C        +1.94423000        -0.59299000        +0.15262000
O        +1.62840000        +0.13663000        -1.04376000
H        +3.37234000        +2.13782000        -0.35195000
H        +2.48236000        +2.42488000        +1.14651000
H        +4.02182000        +0.00994000        +0.41161000
H        +3.07359000        +0.18738000        +1.88928000
H        +1.03270000        +2.19943000        -1.08064000
C        +2.35450000        -2.01267000        -0.16812000
H        +3.25743000        -2.00195000        -0.74215000
H        +1.57951000        -2.48932000        -0.73123000
H        +2.51687000        -2.55129000        +0.74206000
H        -0.74673000        +1.06811000        +0.13365000
H        +0.15552000        +1.72617000        +1.40828000
H        +0.81693000        -0.48905000        +2.04887000
H        -0.12524000        -1.15356000        +0.81843000
--
0  1
C        +3.18772000        +2.50632000        +3.01141000
C        +3.59128000        +1.04791000        +3.42417000
C        +4.29510000        +2.86118000        +1.99055000
C        +5.59572000        +3.17844000        +2.75401000
C        +6.00838000        +1.75495000        +3.22846000
C        +4.90925000        +0.86845000        +2.57808000
O        +4.59342000        +1.59807000        +1.38170000
H        +6.33736000        +3.59926000        +2.07351000
H        +5.44738000        +3.88632000        +3.57197000
H        +6.98684000        +1.47138000        +2.83707000
H        +6.03861000        +1.64882000        +4.31474000
H        +3.99772000        +3.66087000        +1.34482000
C        +5.31952000        -0.55123000        +2.25734000
H        +6.22245000        -0.54051000        +1.68331000
H        +4.54453000        -1.02788000        +1.69423000
H        +5.48189000        -1.08985000        +3.16752000
H        +2.21829000        +2.52955000        +2.55911000
H        +3.12054000        +3.18761000        +3.83374000
H        +3.78195000        +0.97239000        +4.47433000
H        +2.83978000        +0.30788000        +3.24389000
$end

$rem
JOBTYPE                   SP
METHOD                    B3LYP
DFT_D                     d3_op
BASIS                     6-311++G(d,p)
SYMMETRY                  False
THRESH                    12
SCF_CONVERGENCE           8
MAX_SUB_FILE_NUM          128
MEM_STATIC                400
MEM_TOTAL                 4000
$end
--------------------------------------------------------------

             Standard Nuclear Orientation (Angstroms)
    I     Atom           X                Y                Z
 ----------------------------------------------------------------
    1      C       2.5762486701    -1.5482410640     0.7620932524
    2      C       2.6456297084    -0.0621219278     1.2589105265
    3      C       2.1771281198    -1.3646666949    -0.7216097034
    4      C       0.6778605092    -1.0157639190    -0.7964491869
    5      C       0.6927615303     0.4452469235    -0.2607812525
    6      C       2.2130535368     0.6959503002    -0.0538436216
    7      O       2.8020560591    -0.1240078327    -1.0756869201
    8      H       0.3346335962    -1.0543696046    -1.8312943440
    9      H       0.0536745994    -1.6911588391    -0.2078992200
   10      H       0.3033265848     1.1461861399    -1.0010559899
   11      H       0.1208437708     0.5782733991     0.6597597305
   12      H       2.4237562335    -2.2250264015    -1.3080071302
   13      C       2.6620564610     2.1340503209    -0.1840420374
   14      H       2.3084998154     2.5355802289    -1.1106915805
   15      H       3.7309320367     2.1774335112    -0.1612276295
   16      H       2.2644459198     2.7067243438     0.6276558588
   17      H       3.5248547031    -2.0347591467     0.8535054890
   18      H       1.9009047648    -2.1619339374     1.3208306793
   19      H       1.9633169896     0.1184483383     2.0631107985
   20      H       3.5950543652     0.2335800716     1.6539430290
   21      C      -1.5143682030    -1.3883584535     0.9885835043
   22      C      -1.4449871647     0.0977606827     1.4854007784
   23      C      -1.9134887532    -1.2047840845    -0.4951194515
   24      C      -3.4127563639    -0.8558813085    -0.5699589350
   25      C      -3.3978553428     0.6051295340    -0.0342910007
   26      C      -1.8775633363     0.8558329107     0.1726466302
   27      O      -1.2885608140     0.0358747778    -0.8491966683
   28      H      -3.7559832769    -0.8944869941    -1.6048040922
   29      H      -4.0369422737    -1.5312762286     0.0185910318
   30      H      -3.7872902883     1.3060687504    -0.7745657380
   31      H      -3.9697731023     0.7381560096     0.8862499823
   32      H      -1.6668606396    -2.0651437910    -1.0815168784
   33      C      -1.4285604121     2.2939329314     0.0424482144
   34      H      -1.7821170577     2.6954628394    -0.8842013286
   35      H      -0.3596848364     2.3373161217     0.0652626223
   36      H      -1.8261709533     2.8666069543     0.8541461106
   37      H      -0.5657621699    -1.8748765363     1.0799957409
   38      H      -2.1897121082    -2.0020513269     1.5473209312
   39      H      -2.1272998835     0.2783309488     2.2896010504
   40      H      -0.4955625079     0.3934626821     1.8804332808
 ----------------------------------------------------------------

   13    -698.4776555077      8.60E-09 Convergence criterion met
 Total energy in the final basis set = -698.47765551

                    Orbital Energies (a.u.)
 --------------------------------------------------------------

 Alpha MOs
 -- Occupied --
-19.122 -19.100 -10.236 -10.226 -10.201 -10.195 -10.176 -10.175
-10.174 -10.173 -10.159 -10.152 -10.151 -10.143 -10.137 -10.132
 -1.070  -1.030  -0.813  -0.794  -0.788  -0.764  -0.759  -0.731
 -0.695  -0.671  -0.636  -0.607  -0.585  -0.578  -0.556  -0.549
 -0.516  -0.508  -0.493  -0.485  -0.457  -0.452  -0.438  -0.431
 -0.427  -0.420  -0.416  -0.398  -0.394  -0.386  -0.381  -0.376
 -0.362  -0.357  -0.353  -0.349  -0.338  -0.332  -0.323  -0.322
 -0.315  -0.304  -0.293  -0.280  -0.264  -0.227

          Ground-State Mulliken Net Atomic Charges

     Atom                 Charge (a.u.)
  ----------------------------------------
      1 C                    -0.488508
      2 C                    -0.091705
      3 C                    -0.073205
      4 C                    -0.087761
      5 C                    -0.186042
      6 C                    -0.332409
      7 O                    -0.012000
      8 H                     0.187433
      9 H                     0.070513
     10 H                     0.207678
     11 H                    -0.159687
     12 H                     0.228226
     13 C                    -0.601103
     14 H                     0.149938
     15 H                     0.164404
     16 H                     0.150170
     17 H                     0.175392
     18 H                     0.107585
     19 H                     0.100934
     20 H                     0.171594
     21 C                    -0.414066
     22 C                    -0.423970
     23 C                     0.150067
     24 C                    -0.657787
     25 C                    -0.467046
     26 C                     0.420235
     27 O                     0.175239
     28 H                     0.161872
     29 H                     0.131136
     30 H                     0.162746
     31 H                     0.133309
     32 H                     0.243933
     33 C                    -0.512678
     34 H                     0.165135
     35 H                     0.136911
     36 H                     0.149512
     37 H                     0.128656
     38 H                     0.194552
     39 H                     0.184575
     40 H                     0.256221
  ----------------------------------------
  Sum of atomic charges =    -0.000000

                    Cartesian Multipole Moments
 -----------------------------------------------------------------
    Charge (ESU x 10^10)
                -0.0000
    Dipole Moment (Debye)
         X      -3.5013      Y      -0.5864      Z       2.2832
       Tot       4.2209
    Quadrupole Moments (Debye-Ang)
        XX    -105.5542     XY       0.3317     YY     -95.9861
        XZ       3.6617     YZ       1.3777     ZZ    -103.4559

 Total job time:  288.79s(wall), 1147.01s(cpu)
        *  Thank you very much for using Q-Chem.  Have a nice day.  *
