 Q-Chem 5.0, Q-Chem, Inc., Pleasanton, CA (2017)
 Q-Chem 5.0.1 for Intel X86 EM64T Linux

User input:
--------------------------------------------------------------
$molecule
0  1
C        +0.22270000        +1.04488000        +0.58595000
C        +0.62626000        -0.41353000        +0.99871000
C        +1.33008000        +1.39974000        -0.43491000
C        +2.63070000        +1.71700000        +0.32855000
C        +3.04336000        +0.29351000        +0.80300000
C        +1.94423000        -0.59299000        +0.15262000
O        +1.62840000        +0.13663000        -1.04376000
H        +3.37234000        +2.13782000        -0.35195000
H        +2.48236000        +2.42488000        +1.14651000
H        +4.02182000        +0.00994000        +0.41161000
H        +3.07359000        +0.18738000        +1.88928000
H        +1.03270000        +2.19943000        -1.08064000
C        +2.35450000        -2.01267000        -0.16812000
H        +3.25743000        -2.00195000        -0.74215000
H        +1.57951000        -2.48932000        -0.73123000
H        +2.51687000        -2.55129000        +0.74206000
H        -0.74673000        +1.06811000        +0.13365000
H        +0.15552000        +1.72617000        +1.40828000
H        +0.81693000        -0.48905000        +2.04887000
H        -0.12524000        -1.15356000        +0.81843000
@C        +4.05553000        +2.93405000        +3.72130000
@C        +4.45909000        +1.47564000        +4.13406000
@C        +5.16291000        +3.28891000        +2.70044000
@C        +6.46353000        +3.60617000        +3.46390000
@C        +6.87619000        +2.18268000        +3.93835000
@C        +5.77706000        +1.29618000        +3.28797000
@O        +5.46123000        +2.02580000        +2.09159000
@H        +7.20517000        +4.02699000        +2.78340000
@H        +6.31519000        +4.31405000        +4.28186000
@H        +7.85465000        +1.89911000        +3.54696000
@H        +6.90642000        +2.07655000        +5.02463000
@H        +4.86553000        +4.08860000        +2.05471000
@C        +6.18733000        -0.12350000        +2.96723000
@H        +7.09026000        -0.11278000        +2.39320000
@H        +5.41234000        -0.60015000        +2.40412000
@H        +6.34970000        -0.66212000        +3.87741000
@H        +3.08610000        +2.95728000        +3.26900000
@H        +3.98835000        +3.61534000        +4.54363000
@H        +4.64976000        +1.40012000        +5.18422000
@H        +3.70759000        +0.73561000        +3.95378000
$end

$rem
JOBTYPE                   SP
METHOD                    B3LYP
DFT_D                     d3_op
BASIS                     6-311++G(d,p)
SYMMETRY                  False
THRESH                    12
SCF_CONVERGENCE           8
MAX_SUB_FILE_NUM          128
MEM_STATIC                400
MEM_TOTAL                 4000
$end
--------------------------------------------------------------

             Standard Nuclear Orientation (Angstroms)
    I     Atom           X                Y                Z
 ----------------------------------------------------------------
    1      C       0.2227000000     1.0448800000     0.5859500000
    2      C       0.6262600000    -0.4135300000     0.9987100000
    3      C       1.3300800000     1.3997400000    -0.4349100000
    4      C       2.6307000000     1.7170000000     0.3285500000
    5      C       3.0433600000     0.2935100000     0.8030000000
    6      C       1.9442300000    -0.5929900000     0.1526200000
    7      O       1.6284000000     0.1366300000    -1.0437600000
    8      H       3.3723400000     2.1378200000    -0.3519500000
    9      H       2.4823600000     2.4248800000     1.1465100000
   10      H       4.0218200000     0.0099400000     0.4116100000
   11      H       3.0735900000     0.1873800000     1.8892800000
   12      H       1.0327000000     2.1994300000    -1.0806400000
   13      C       2.3545000000    -2.0126700000    -0.1681200000
   14      H       3.2574300000    -2.0019500000    -0.7421500000
   15      H       1.5795100000    -2.4893200000    -0.7312300000
   16      H       2.5168700000    -2.5512900000     0.7420600000
   17      H      -0.7467300000     1.0681100000     0.1336500000
   18      H       0.1555200000     1.7261700000     1.4082800000
   19      H       0.8169300000    -0.4890500000     2.0488700000
   20      H      -0.1252400000    -1.1535600000     0.8184300000
   21      GH      4.0555300000     2.9340500000     3.7213000000
   22      GH      4.4590900000     1.4756400000     4.1340600000
   23      GH      5.1629100000     3.2889100000     2.7004400000
   24      GH      6.4635300000     3.6061700000     3.4639000000
   25      GH      6.8761900000     2.1826800000     3.9383500000
   26      GH      5.7770600000     1.2961800000     3.2879700000
   27      GH      5.4612300000     2.0258000000     2.0915900000
   28      GH      7.2051700000     4.0269900000     2.7834000000
   29      GH      6.3151900000     4.3140500000     4.2818600000
   30      GH      7.8546500000     1.8991100000     3.5469600000
   31      GH      6.9064200000     2.0765500000     5.0246300000
   32      GH      4.8655300000     4.0886000000     2.0547100000
   33      GH      6.1873300000    -0.1235000000     2.9672300000
   34      GH      7.0902600000    -0.1127800000     2.3932000000
   35      GH      5.4123400000    -0.6001500000     2.4041200000
   36      GH      6.3497000000    -0.6621200000     3.8774100000
   37      GH      3.0861000000     2.9572800000     3.2690000000
   38      GH      3.9883500000     3.6153400000     4.5436300000
   39      GH      4.6497600000     1.4001200000     5.1842200000
   40      GH      3.7075900000     0.7356100000     3.9537800000
 ----------------------------------------------------------------

   13    -349.2962606227      2.61E-09 Convergence criterion met
 Total energy in the final basis set = -349.29626062

                    Orbital Energies (a.u.)
 --------------------------------------------------------------

 Alpha MOs
 -- Occupied --
-19.119 -10.225 -10.216 -10.166 -10.166 -10.163 -10.162 -10.154
 -1.049  -0.798  -0.775  -0.748  -0.684  -0.615  -0.575  -0.556
 -0.503  -0.482  -0.465  -0.441  -0.418  -0.405  -0.392  -0.378
 -0.360  -0.348  -0.344  -0.336  -0.316  -0.301  -0.262

          Ground-State Mulliken Net Atomic Charges

     Atom                 Charge (a.u.)
  ----------------------------------------
      1 C                    -0.664580
      2 C                    -0.222833
      3 C                     0.349284
      4 C                    -0.570159
      5 C                    -0.073112
      6 C                    -0.066822
      7 O                    -0.055696
      8 H                     0.187795
      9 H                     0.085854
     10 H                     0.176473
     11 H                     0.026799
     12 H                     0.253501
     13 C                    -0.496658
     14 H                     0.144499
     15 H                     0.163315
     16 H                     0.145063
     17 H                     0.173243
     18 H                     0.116639
     19 H                     0.134746
     20 H                     0.171068
     21 GH                    0.003987
     22 GH                    0.009803
     23 GH                   -0.019476
     24 GH                    0.006786
     25 GH                   -0.015430
     26 GH                   -0.001397
     27 GH                    0.014811
     28 GH                   -0.000504
     29 GH                    0.000359
     30 GH                   -0.000289
     31 GH                   -0.000057
     32 GH                    0.002799
     33 GH                   -0.012046
     34 GH                    0.002945
     35 GH                    0.007721
     36 GH                   -0.001743
     37 GH                    0.016797
     38 GH                   -0.002103
     39 GH                   -0.000656
     40 GH                    0.009275
  ----------------------------------------
  Sum of atomic charges =    -0.000000

                    Cartesian Multipole Moments
 -----------------------------------------------------------------
    Charge (ESU x 10^10)
                -0.0000
    Dipole Moment (Debye)
         X      -0.0070      Y       0.4044      Z       1.6157
       Tot       1.6655
    Quadrupole Moments (Debye-Ang)
        XX     -49.7967     XY      -0.0693     YY     -47.6132
        XZ       2.5600     YZ      -0.6723     ZZ     -52.6514

 Total job time:  234.89s(wall), 931.10s(cpu)
        *  Thank you very much for using Q-Chem.  Have a nice day.  *
