 Q-Chem 5.0, Q-Chem, Inc., Pleasanton, CA (2017)
 Q-Chem 5.0.1 for Intel X86 EM64T Linux

User input:
--------------------------------------------------------------
$molecule
0  1
C        +0.20553000        +1.04146000        +0.58269000
C        +0.65000000        -0.38925000        +1.00740000
C        +1.32948000        +1.41743000        -0.40725000
C        +2.62919000        +1.72756000        +0.36622000
C        +3.06783000        +0.29650000        +0.79479000
C        +1.94651000        -0.57906000        +0.17708000
O        +1.63056000        +0.15702000        -1.03120000
H        +3.36767000        +2.18673000        -0.29348000
H        +2.46319000        +2.40269000        +1.20873000
H        +4.03298000        +0.02999000        +0.35944000
H        +3.13919000        +0.17160000        +1.87760000
H        +1.05575000        +2.14422000        -1.17046000
C        +2.32428000        -2.00466000        -0.15206000
H        +3.19961000        -2.02906000        -0.80581000
H        +1.50021000        -2.51513000        -0.65630000
H        +2.56254000        -2.55434000        +0.76296000
H        -0.76025000        +1.02051000        +0.07473000
H        +0.13481000        +1.74083000        +1.41846000
H        +0.82947000        -0.48542000        +2.08050000
H        -0.09122000        -1.13848000        +0.72072000
@C        +0.22049000        +2.21720000        +4.51046000
@C        +0.66496000        +0.78649000        +4.93517000
@C        +1.34444000        +2.59317000        +3.52052000
@C        +2.64415000        +2.90330000        +4.29399000
@C        +3.08279000        +1.47224000        +4.72256000
@C        +1.96147000        +0.59668000        +4.10485000
@O        +1.64552000        +1.33276000        +2.89657000
@H        +3.38263000        +3.36247000        +3.63429000
@H        +2.47815000        +3.57843000        +5.13650000
@H        +4.04794000        +1.20573000        +4.28721000
@H        +3.15415000        +1.34734000        +5.80537000
@H        +1.07071000        +3.31996000        +2.75731000
@C        +2.33924000        -0.82892000        +3.77571000
@H        +3.21457000        -0.85332000        +3.12196000
@H        +1.51517000        -1.33939000        +3.27147000
@H        +2.57750000        -1.37860000        +4.69073000
@H        -0.74529000        +2.19625000        +4.00250000
@H        +0.14977000        +2.91657000        +5.34623000
@H        +0.84443000        +0.69032000        +6.00827000
@H        -0.07626000        +0.03726000        +4.64849000
$end

$rem
JOBTYPE                   SP
METHOD                    B3LYP
DFT_D                     d3_op
BASIS                     6-311++G(d,p)
SYMMETRY                  False
THRESH                    12
SCF_CONVERGENCE           8
MAX_SUB_FILE_NUM          128
MEM_STATIC                400
MEM_TOTAL                 4000
$end
--------------------------------------------------------------

             Standard Nuclear Orientation (Angstroms)
    I     Atom           X                Y                Z
 ----------------------------------------------------------------
    1      C       0.2055300000     1.0414600000     0.5826900000
    2      C       0.6500000000    -0.3892500000     1.0074000000
    3      C       1.3294800000     1.4174300000    -0.4072500000
    4      C       2.6291900000     1.7275600000     0.3662200000
    5      C       3.0678300000     0.2965000000     0.7947900000
    6      C       1.9465100000    -0.5790600000     0.1770800000
    7      O       1.6305600000     0.1570200000    -1.0312000000
    8      H       3.3676700000     2.1867300000    -0.2934800000
    9      H       2.4631900000     2.4026900000     1.2087300000
   10      H       4.0329800000     0.0299900000     0.3594400000
   11      H       3.1391900000     0.1716000000     1.8776000000
   12      H       1.0557500000     2.1442200000    -1.1704600000
   13      C       2.3242800000    -2.0046600000    -0.1520600000
   14      H       3.1996100000    -2.0290600000    -0.8058100000
   15      H       1.5002100000    -2.5151300000    -0.6563000000
   16      H       2.5625400000    -2.5543400000     0.7629600000
   17      H      -0.7602500000     1.0205100000     0.0747300000
   18      H       0.1348100000     1.7408300000     1.4184600000
   19      H       0.8294700000    -0.4854200000     2.0805000000
   20      H      -0.0912200000    -1.1384800000     0.7207200000
   21      GH      0.2204900000     2.2172000000     4.5104600000
   22      GH      0.6649600000     0.7864900000     4.9351700000
   23      GH      1.3444400000     2.5931700000     3.5205200000
   24      GH      2.6441500000     2.9033000000     4.2939900000
   25      GH      3.0827900000     1.4722400000     4.7225600000
   26      GH      1.9614700000     0.5966800000     4.1048500000
   27      GH      1.6455200000     1.3327600000     2.8965700000
   28      GH      3.3826300000     3.3624700000     3.6342900000
   29      GH      2.4781500000     3.5784300000     5.1365000000
   30      GH      4.0479400000     1.2057300000     4.2872100000
   31      GH      3.1541500000     1.3473400000     5.8053700000
   32      GH      1.0707100000     3.3199600000     2.7573100000
   33      GH      2.3392400000    -0.8289200000     3.7757100000
   34      GH      3.2145700000    -0.8533200000     3.1219600000
   35      GH      1.5151700000    -1.3393900000     3.2714700000
   36      GH      2.5775000000    -1.3786000000     4.6907300000
   37      GH     -0.7452900000     2.1962500000     4.0025000000
   38      GH      0.1497700000     2.9165700000     5.3462300000
   39      GH      0.8444300000     0.6903200000     6.0082700000
   40      GH     -0.0762600000     0.0372600000     4.6484900000
 ----------------------------------------------------------------

   13    -349.3034742520      2.96E-09 Convergence criterion met
 Total energy in the final basis set = -349.30347425

                    Orbital Energies (a.u.)
 --------------------------------------------------------------

 Alpha MOs
 -- Occupied --
-19.115 -10.224 -10.217 -10.168 -10.168 -10.168 -10.168 -10.161
 -1.045  -0.799  -0.773  -0.750  -0.679  -0.613  -0.573  -0.554
 -0.498  -0.481  -0.467  -0.434  -0.414  -0.405  -0.391  -0.371
 -0.362  -0.346  -0.344  -0.339  -0.319  -0.302  -0.262

          Ground-State Mulliken Net Atomic Charges

     Atom                 Charge (a.u.)
  ----------------------------------------
      1 C                    -0.334144
      2 C                    -0.078314
      3 C                    -0.120161
      4 C                    -0.342272
      5 C                    -0.071291
      6 C                    -0.337352
      7 O                    -0.043374
      8 H                     0.197534
      9 H                     0.142505
     10 H                     0.218696
     11 H                     0.056996
     12 H                     0.237238
     13 C                    -0.563322
     14 H                     0.151578
     15 H                     0.151465
     16 H                     0.146145
     17 H                     0.197409
     18 H                     0.142096
     19 H                     0.056632
     20 H                     0.219295
     21 GH                    0.000273
     22 GH                   -0.007831
     23 GH                   -0.100364
     24 GH                   -0.000082
     25 GH                   -0.007690
     26 GH                    0.011795
     27 GH                    0.009840
     28 GH                    0.003838
     29 GH                   -0.000788
     30 GH                    0.003117
     31 GH                    0.000286
     32 GH                   -0.002528
     33 GH                    0.019640
     34 GH                    0.022017
     35 GH                    0.022059
     36 GH                   -0.007533
     37 GH                    0.003842
     38 GH                   -0.000771
     39 GH                    0.000248
     40 GH                    0.003273
  ----------------------------------------
  Sum of atomic charges =     0.000000

                    Cartesian Multipole Moments
 -----------------------------------------------------------------
    Charge (ESU x 10^10)
                 0.0000
    Dipole Moment (Debye)
         X       0.0428      Y       0.3636      Z       1.6092
       Tot       1.6503
    Quadrupole Moments (Debye-Ang)
        XX     -49.7646     XY       0.0311     YY     -48.0937
        XZ       2.7799     YZ      -0.5569     ZZ     -52.5880

 Total job time:  240.82s(wall), 955.06s(cpu)
        *  Thank you very much for using Q-Chem.  Have a nice day.  *
