 Q-Chem 5.0, Q-Chem, Inc., Pleasanton, CA (2017)
 Q-Chem 5.0.1 for Intel X86 EM64T Linux

User input:
--------------------------------------------------------------
$molecule
0  1
C        +3.18772000        +2.50632000        +3.01141000
C        +3.59128000        +1.04791000        +3.42417000
C        +4.29510000        +2.86118000        +1.99055000
C        +5.59572000        +3.17844000        +2.75401000
C        +6.00838000        +1.75495000        +3.22846000
C        +4.90925000        +0.86845000        +2.57808000
O        +4.59342000        +1.59807000        +1.38170000
H        +6.33736000        +3.59926000        +2.07351000
H        +5.44738000        +3.88632000        +3.57197000
H        +6.98684000        +1.47138000        +2.83707000
H        +6.03861000        +1.64882000        +4.31474000
H        +3.99772000        +3.66087000        +1.34482000
C        +5.31952000        -0.55123000        +2.25734000
H        +6.22245000        -0.54051000        +1.68331000
H        +4.54453000        -1.02788000        +1.69423000
H        +5.48189000        -1.08985000        +3.16752000
H        +2.21829000        +2.52955000        +2.55911000
H        +3.12054000        +3.18761000        +3.83374000
H        +3.78195000        +0.97239000        +4.47433000
H        +2.83978000        +0.30788000        +3.24389000
@C        +0.22270000        +1.04488000        +0.58595000
@C        +0.62626000        -0.41353000        +0.99871000
@C        +1.33008000        +1.39974000        -0.43491000
@C        +2.63070000        +1.71700000        +0.32855000
@C        +3.04336000        +0.29351000        +0.80300000
@C        +1.94423000        -0.59299000        +0.15262000
@O        +1.62840000        +0.13663000        -1.04376000
@H        +3.37234000        +2.13782000        -0.35195000
@H        +2.48236000        +2.42488000        +1.14651000
@H        +4.02182000        +0.00994000        +0.41161000
@H        +3.07359000        +0.18738000        +1.88928000
@H        +1.03270000        +2.19943000        -1.08064000
@C        +2.35450000        -2.01267000        -0.16812000
@H        +3.25743000        -2.00195000        -0.74215000
@H        +1.57951000        -2.48932000        -0.73123000
@H        +2.51687000        -2.55129000        +0.74206000
@H        -0.74673000        +1.06811000        +0.13365000
@H        +0.15552000        +1.72617000        +1.40828000
@H        +0.81693000        -0.48905000        +2.04887000
@H        -0.12524000        -1.15356000        +0.81843000
$end

$rem
JOBTYPE                   SP
METHOD                    B3LYP
DFT_D                     d3_op
BASIS                     6-311++G(d,p)
SYMMETRY                  False
THRESH                    12
SCF_CONVERGENCE           8
MAX_SUB_FILE_NUM          128
MEM_STATIC                400
MEM_TOTAL                 4000
$end
--------------------------------------------------------------

             Standard Nuclear Orientation (Angstroms)
    I     Atom           X                Y                Z
 ----------------------------------------------------------------
    1      C       3.1877200000     2.5063200000     3.0114100000
    2      C       3.5912800000     1.0479100000     3.4241700000
    3      C       4.2951000000     2.8611800000     1.9905500000
    4      C       5.5957200000     3.1784400000     2.7540100000
    5      C       6.0083800000     1.7549500000     3.2284600000
    6      C       4.9092500000     0.8684500000     2.5780800000
    7      O       4.5934200000     1.5980700000     1.3817000000
    8      H       6.3373600000     3.5992600000     2.0735100000
    9      H       5.4473800000     3.8863200000     3.5719700000
   10      H       6.9868400000     1.4713800000     2.8370700000
   11      H       6.0386100000     1.6488200000     4.3147400000
   12      H       3.9977200000     3.6608700000     1.3448200000
   13      C       5.3195200000    -0.5512300000     2.2573400000
   14      H       6.2224500000    -0.5405100000     1.6833100000
   15      H       4.5445300000    -1.0278800000     1.6942300000
   16      H       5.4818900000    -1.0898500000     3.1675200000
   17      H       2.2182900000     2.5295500000     2.5591100000
   18      H       3.1205400000     3.1876100000     3.8337400000
   19      H       3.7819500000     0.9723900000     4.4743300000
   20      H       2.8397800000     0.3078800000     3.2438900000
   21      GH      0.2227000000     1.0448800000     0.5859500000
   22      GH      0.6262600000    -0.4135300000     0.9987100000
   23      GH      1.3300800000     1.3997400000    -0.4349100000
   24      GH      2.6307000000     1.7170000000     0.3285500000
   25      GH      3.0433600000     0.2935100000     0.8030000000
   26      GH      1.9442300000    -0.5929900000     0.1526200000
   27      GH      1.6284000000     0.1366300000    -1.0437600000
   28      GH      3.3723400000     2.1378200000    -0.3519500000
   29      GH      2.4823600000     2.4248800000     1.1465100000
   30      GH      4.0218200000     0.0099400000     0.4116100000
   31      GH      3.0735900000     0.1873800000     1.8892800000
   32      GH      1.0327000000     2.1994300000    -1.0806400000
   33      GH      2.3545000000    -2.0126700000    -0.1681200000
   34      GH      3.2574300000    -2.0019500000    -0.7421500000
   35      GH      1.5795100000    -2.4893200000    -0.7312300000
   36      GH      2.5168700000    -2.5512900000     0.7420600000
   37      GH     -0.7467300000     1.0681100000     0.1336500000
   38      GH      0.1555200000     1.7261700000     1.4082800000
   39      GH      0.8169300000    -0.4890500000     2.0488700000
   40      GH     -0.1252400000    -1.1535600000     0.8184300000
 ----------------------------------------------------------------

   13    -349.2975118924      2.62E-09 Convergence criterion met
 Total energy in the final basis set = -349.29751189

                    Orbital Energies (a.u.)
 --------------------------------------------------------------

 Alpha MOs
 -- Occupied --
-19.119 -10.225 -10.216 -10.166 -10.166 -10.163 -10.162 -10.154
 -1.049  -0.798  -0.775  -0.748  -0.683  -0.614  -0.575  -0.556
 -0.503  -0.482  -0.464  -0.440  -0.418  -0.405  -0.392  -0.377
 -0.360  -0.348  -0.343  -0.336  -0.316  -0.301  -0.262

          Ground-State Mulliken Net Atomic Charges

     Atom                 Charge (a.u.)
  ----------------------------------------
      1 C                    -0.312038
      2 C                    -0.543699
      3 C                     0.243877
      4 C                    -0.687773
      5 C                    -0.423852
      6 C                     0.516576
      7 O                     0.005501
      8 H                     0.157374
      9 H                     0.127971
     10 H                     0.159026
     11 H                     0.132021
     12 H                     0.223314
     13 C                    -0.497357
     14 H                     0.150112
     15 H                     0.093759
     16 H                     0.152883
     17 H                     0.125133
     18 H                     0.191086
     19 H                     0.183364
     20 H                     0.199396
     21 GH                   -0.014861
     22 GH                   -0.011153
     23 GH                   -0.108961
     24 GH                    0.083387
     25 GH                   -0.006899
     26 GH                   -0.129051
     27 GH                   -0.005567
     28 GH                   -0.000195
     29 GH                    0.001517
     30 GH                    0.051644
     31 GH                   -0.080063
     32 GH                   -0.002996
     33 GH                    0.026069
     34 GH                   -0.003931
     35 GH                   -0.000452
     36 GH                    0.008224
     37 GH                   -0.000267
     38 GH                    0.001822
     39 GH                   -0.004410
     40 GH                   -0.000529
  ----------------------------------------
  Sum of atomic charges =     0.000000

                    Cartesian Multipole Moments
 -----------------------------------------------------------------
    Charge (ESU x 10^10)
                 0.0000
    Dipole Moment (Debye)
         X      -0.0119      Y       0.3941      Z       1.5959
       Tot       1.6439
    Quadrupole Moments (Debye-Ang)
        XX     -49.8902     XY       1.0691     YY     -46.4983
        XZ       7.2493     YZ       2.6386     ZZ     -44.8598

 Total job time:  274.53s(wall), 1090.32s(cpu)
        *  Thank you very much for using Q-Chem.  Have a nice day.  *
