 Q-Chem 5.0, Q-Chem, Inc., Pleasanton, CA (2017)
 Q-Chem 5.0.1 for Intel X86 EM64T Linux

User input:
--------------------------------------------------------------
$molecule
0  1
--
0  1
C        +0.22270000        +1.04488000        +0.58595000
C        +0.62626000        -0.41353000        +0.99871000
C        +1.33008000        +1.39974000        -0.43491000
C        +2.63070000        +1.71700000        +0.32855000
C        +3.04336000        +0.29351000        +0.80300000
C        +1.94423000        -0.59299000        +0.15262000
O        +1.62840000        +0.13663000        -1.04376000
H        +3.37234000        +2.13782000        -0.35195000
H        +2.48236000        +2.42488000        +1.14651000
H        +4.02182000        +0.00994000        +0.41161000
H        +3.07359000        +0.18738000        +1.88928000
H        +1.03270000        +2.19943000        -1.08064000
C        +2.35450000        -2.01267000        -0.16812000
H        +3.25743000        -2.00195000        -0.74215000
H        +1.57951000        -2.48932000        -0.73123000
H        +2.51687000        -2.55129000        +0.74206000
H        -0.74673000        +1.06811000        +0.13365000
H        +0.15552000        +1.72617000        +1.40828000
H        +0.81693000        -0.48905000        +2.04887000
H        -0.12524000        -1.15356000        +0.81843000
--
0  1
C        +4.05553000        +2.93405000        +3.72130000
C        +4.45909000        +1.47564000        +4.13406000
C        +5.16291000        +3.28891000        +2.70044000
C        +6.46353000        +3.60617000        +3.46390000
C        +6.87619000        +2.18268000        +3.93835000
C        +5.77706000        +1.29618000        +3.28797000
O        +5.46123000        +2.02580000        +2.09159000
H        +7.20517000        +4.02699000        +2.78340000
H        +6.31519000        +4.31405000        +4.28186000
H        +7.85465000        +1.89911000        +3.54696000
H        +6.90642000        +2.07655000        +5.02463000
H        +4.86553000        +4.08860000        +2.05471000
C        +6.18733000        -0.12350000        +2.96723000
H        +7.09026000        -0.11278000        +2.39320000
H        +5.41234000        -0.60015000        +2.40412000
H        +6.34970000        -0.66212000        +3.87741000
H        +3.08610000        +2.95728000        +3.26900000
H        +3.98835000        +3.61534000        +4.54363000
H        +4.64976000        +1.40012000        +5.18422000
H        +3.70759000        +0.73561000        +3.95378000
$end

$rem
JOBTYPE                   SP
METHOD                    B3LYP
DFT_D                     d3_op
BASIS                     6-311++G(d,p)
SYMMETRY                  False
THRESH                    12
SCF_CONVERGENCE           8
MAX_SUB_FILE_NUM          128
MEM_STATIC                400
MEM_TOTAL                 4000
$end
--------------------------------------------------------------

             Standard Nuclear Orientation (Angstroms)
    I     Atom           X                Y                Z
 ----------------------------------------------------------------
    1      C       3.1853289320    -1.5123964646     0.8047238590
    2      C       3.2176421967    -0.0233759795     1.2966233072
    3      C       2.8156187011    -1.3416403828    -0.6881016263
    4      C       1.3124390518    -1.0196109160    -0.7971219371
    5      C       1.2898852256     0.4434913965    -0.2674637394
    6      C       2.8006327899     0.7218515801    -0.0284646671
    7      O       3.4262105834    -0.0914943941    -1.0337207480
    8      H       0.9926844373    -1.0682771333    -1.8390375756
    9      H       0.6875038979    -1.7036675835    -0.2194715752
   10      H       0.9044718215     1.1345681172    -1.0190297861
   11      H       0.6956967357     0.5699296761     0.6398041748
   12      H       3.0901347278    -2.1997584928    -1.2653194827
   13      C       3.2269915110     2.1671576851    -0.1549376942
   14      H       2.8867938467     2.5587896955    -1.0907784187
   15      H       4.2941819167     2.2295339330    -0.1089873244
   16      H       2.8016845358     2.7358354336     0.6454514293
   17      H       4.1401242145    -1.9816978230     0.9188801175
   18      H       2.5088224427    -2.1357814280     1.3511906948
   19      H       2.5148125144     0.1481960066     2.0849683054
   20      H       4.1528373523     0.2906007746     1.7110218451
   21      C      -2.1104989248    -1.3981763851     0.9811602643
   22      C      -2.0781856600     0.0908441000     1.4730597126
   23      C      -2.4802091557    -1.2274203033    -0.5116652209
   24      C      -3.9833888049    -0.9053908365    -0.6206855317
   25      C      -4.0059426311     0.5577114760    -0.0910273340
   26      C      -2.4951950669     0.8360716596     0.1479717383
   27      O      -1.8696172734     0.0227256853    -0.8572843426
   28      H      -4.3031434194    -0.9540570539    -1.6626011702
   29      H      -4.6083239589    -1.5894475040    -0.0430351698
   30      H      -4.3913560353     1.2487881967    -0.8425933807
   31      H      -4.6001311210     0.6841497556     0.8162405802
   32      H      -2.2056931290    -2.0855384133    -1.0888830773
   33      C      -2.0688363457     2.2813777646     0.0214987112
   34      H      -2.4090340101     2.6730097750    -0.9143420134
   35      H      -1.0016459401     2.3437540125     0.0674490809
   36      H      -2.4941433210     2.8500555130     0.8218878346
   37      H      -1.1557036423    -1.8674777436     1.0953165229
   38      H      -2.7870054141    -2.0215613485     1.5276271002
   39      H      -2.7810153423     0.2624160861     2.2614047108
   40      H      -1.1429905045     0.4048208541     1.8874582505
 ----------------------------------------------------------------

   13    -698.5958936919      6.29E-09 Convergence criterion met
 Total energy in the final basis set = -698.59589369

                    Orbital Energies (a.u.)
 --------------------------------------------------------------

 Alpha MOs
 -- Occupied --
-19.122 -19.112 -10.229 -10.220 -10.218 -10.209 -10.169 -10.169
-10.167 -10.167 -10.158 -10.158 -10.157 -10.157 -10.156 -10.150
 -1.053  -1.043  -0.802  -0.792  -0.779  -0.769  -0.752  -0.741
 -0.687  -0.678  -0.619  -0.608  -0.579  -0.569  -0.560  -0.549
 -0.507  -0.497  -0.487  -0.475  -0.468  -0.457  -0.444  -0.434
 -0.421  -0.413  -0.409  -0.397  -0.396  -0.386  -0.381  -0.372
 -0.364  -0.354  -0.351  -0.347  -0.342  -0.339  -0.336  -0.329
 -0.319  -0.309  -0.304  -0.294  -0.267  -0.254

          Ground-State Mulliken Net Atomic Charges

     Atom                 Charge (a.u.)
  ----------------------------------------
      1 C                    -0.670186
      2 C                    -0.226712
      3 C                     0.345196
      4 C                    -0.512032
      5 C                    -0.080269
      6 C                    -0.096208
      7 O                    -0.058645
      8 H                     0.200311
      9 H                     0.055637
     10 H                     0.185045
     11 H                    -0.022760
     12 H                     0.250073
     13 C                    -0.484261
     14 H                     0.146893
     15 H                     0.161483
     16 H                     0.142780
     17 H                     0.170802
     18 H                     0.114098
     19 H                     0.130062
     20 H                     0.168768
     21 C                    -0.388852
     22 C                    -0.344875
     23 C                     0.180008
     24 C                    -0.683189
     25 C                    -0.436425
     26 C                     0.201147
     27 O                     0.019704
     28 H                     0.164839
     29 H                     0.128743
     30 H                     0.155576
     31 H                     0.138931
     32 H                     0.234210
     33 C                    -0.349754
     34 H                     0.158109
     35 H                     0.142018
     36 H                     0.139454
     37 H                     0.125476
     38 H                     0.163555
     39 H                     0.159804
     40 H                     0.171448
  ----------------------------------------
  Sum of atomic charges =     0.000000

                    Cartesian Multipole Moments
 -----------------------------------------------------------------
    Charge (ESU x 10^10)
                 0.0000
    Dipole Moment (Debye)
         X      -2.5116      Y      -0.6193      Z       2.2449
       Tot       3.4251
    Quadrupole Moments (Debye-Ang)
        XX    -104.1624     XY      -0.1028     YY     -95.4547
        XZ       3.3302     YZ       1.5623     ZZ    -103.1730

 Total job time:  217.55s(wall), 864.87s(cpu)
        *  Thank you very much for using Q-Chem.  Have a nice day.  *
