 Q-Chem 5.0, Q-Chem, Inc., Pleasanton, CA (2017)
 Q-Chem 5.0.1 for Intel X86 EM64T Linux

User input:
--------------------------------------------------------------
$molecule
0  1
--
0  1
C        +0.22270000        +1.04488000        +0.58595000
C        +0.62626000        -0.41353000        +0.99871000
C        +1.33008000        +1.39974000        -0.43491000
C        +2.63070000        +1.71700000        +0.32855000
C        +3.04336000        +0.29351000        +0.80300000
C        +1.94423000        -0.59299000        +0.15262000
O        +1.62840000        +0.13663000        -1.04376000
H        +3.37234000        +2.13782000        -0.35195000
H        +2.48236000        +2.42488000        +1.14651000
H        +4.02182000        +0.00994000        +0.41161000
H        +3.07359000        +0.18738000        +1.88928000
C        +0.90028000        +2.39077000        -1.49430000
C        +2.35450000        -2.01267000        -0.16812000
H        +3.26311000        -2.00678000        -0.77366000
H        +2.54990000        -2.57059000        +0.75079000
H        +1.57335000        -2.52896000        -0.72872000
H        +1.71845000        +2.58186000        -2.15686000
H        +0.59919000        +3.30478000        -1.02650000
H        +0.07925000        +1.98653000        -2.04874000
H        +0.81693000        -0.48905000        +2.04887000
H        -0.12524000        -1.15356000        +0.81843000
H        -0.74673000        +1.06811000        +0.13365000
H        +0.15552000        +1.72617000        +1.40828000
--
0  1
C        +3.30005000        +2.68971000        +2.73873000
C        +3.70361000        +1.23130000        +3.15149000
C        +4.40743000        +3.04457000        +1.71787000
C        +5.70805000        +3.36183000        +2.48133000
C        +6.12071000        +1.93834000        +2.95578000
C        +5.02158000        +1.05184000        +2.30540000
O        +4.70575000        +1.78146000        +1.10902000
H        +6.44969000        +3.78265000        +1.80083000
H        +5.55971000        +4.06971000        +3.29929000
H        +7.09917000        +1.65477000        +2.56439000
H        +6.15094000        +1.83221000        +4.04206000
C        +3.97763000        +4.03560000        +0.65848000
C        +5.43185000        -0.36784000        +1.98466000
H        +6.34046000        -0.36195000        +1.37912000
H        +5.62725000        -0.92576000        +2.90357000
H        +4.65070000        -0.88413000        +1.42406000
H        +4.79580000        +4.22669000        -0.00408000
H        +3.67654000        +4.94961000        +1.12628000
H        +3.15660000        +3.63136000        +0.10404000
H        +3.89428000        +1.15578000        +4.20165000
H        +2.95211000        +0.49127000        +2.97121000
H        +2.33062000        +2.71294000        +2.28643000
H        +3.23287000        +3.37100000        +3.56106000
$end

$rem
JOBTYPE                   SP
METHOD                    B3LYP
DFT_D                     d3_op
BASIS                     6-311++G(d,p)
SYMMETRY                  False
THRESH                    12
SCF_CONVERGENCE           8
MAX_SUB_FILE_NUM          128
MEM_STATIC                400
MEM_TOTAL                 4000
$end
--------------------------------------------------------------

             Standard Nuclear Orientation (Angstroms)
    I     Atom           X                Y                Z
 ----------------------------------------------------------------
    1      C       2.5703154862    -0.8061032228     1.2985523194
    2      C       2.6361786024     0.7608323995     1.3223435943
    3      C       2.0995593405    -1.0783134894    -0.1501234364
    4      C       0.5924534564    -0.7726282632    -0.2517396765
    5      C       0.6061544727     0.7818750286    -0.1806998568
    6      C       2.1297017883     1.0878315010    -0.1342524118
    7      O       2.6851684606     0.0003937505    -0.8907938531
    8      H       0.2023130202    -1.1216193842    -1.2089205630
    9      H       0.0083916974    -1.2417300984     0.5425982500
   10      H       0.1703520392     1.2266313708    -1.0769420583
   11      H       0.0752941135     1.1837610905     0.6846651185
   12      C       2.5681650328    -2.4015896026    -0.7145033674
   13      C       2.5464741683     2.4216165057    -0.7121843001
   14      H       2.1567455328     2.5224265971    -1.7271889464
   15      H       2.1548824713     3.2405028109    -0.1039634221
   16      H       3.6335995833     2.5082201764    -0.7531865312
   17      H       2.2023441378    -2.5127076757    -1.7138687347
   18      H       2.1957170659    -3.2001743199    -0.1075014981
   19      H       3.6378266158    -2.4277094319    -0.7212712649
   20      H       1.9888131120     1.1727479816     2.0680900793
   21      H       3.5974916658     1.1645144513     1.5627921848
   22      H       3.5306626969    -1.2397335155     1.4845831014
   23      H       1.9326756319    -1.2254771112     2.0485101872
   24      C      -1.5286122611    -0.8065011681     1.3923693976
   25      C      -1.4627491448     0.7604344542     1.4161606724
   26      C      -1.9993684068    -1.0787114348    -0.0563063583
   27      C      -3.5064742909    -0.7730262086    -0.1579225984
   28      C      -3.4927732746     0.7814770833    -0.0868827787
   29      C      -1.9692259589     1.0874335557    -0.0404353337
   30      O      -1.4137592867    -0.0000041949    -0.7969767749
   31      H      -3.8966147270    -1.1220173295    -1.1151034849
   32      H      -4.0905360498    -1.2421280437     0.6364153282
   33      H      -3.9285757081     1.2262334255    -0.9831249802
   34      H      -4.0236336338     1.1833631452     0.7784821966
   35      C      -1.5307627145    -2.4019875479    -0.6206862893
   36      C      -1.5524535790     2.4212185604    -0.6183672220
   37      H      -1.9421822145     2.5220286517    -1.6333718683
   38      H      -1.9440452760     3.2401048655    -0.0101463439
   39      H      -0.4653281640     2.5078222311    -0.6593694531
   40      H      -1.8965836095    -2.5131056210    -1.6200516565
   41      H      -1.9032106814    -3.2005722653    -0.0136844200
   42      H      -0.4611011314    -2.4281073772    -0.6274541867
   43      H      -2.1101146353     1.1723500363     2.1619071575
   44      H      -0.5014360815     1.1641165059     1.6566092629
   45      H      -0.5682650503    -1.2401314608     1.5784001796
   46      H      -2.1662521153    -1.2258750565     2.1423272653
 ----------------------------------------------------------------

   13    -777.0865748436      7.62E-09 Convergence criterion met
 Total energy in the final basis set = -777.08657484

                    Orbital Energies (a.u.)
 --------------------------------------------------------------

 Alpha MOs
 -- Occupied --
-19.120 -19.097 -10.235 -10.231 -10.204 -10.200 -10.175 -10.174
-10.174 -10.173 -10.161 -10.153 -10.151 -10.151 -10.150 -10.141
-10.128 -10.125  -1.069  -1.030  -0.817  -0.809  -0.795  -0.774
 -0.767  -0.738  -0.719  -0.706  -0.668  -0.658  -0.633  -0.600
 -0.581  -0.576  -0.552  -0.546  -0.523  -0.496  -0.483  -0.465
 -0.461  -0.458  -0.444  -0.441  -0.435  -0.432  -0.418  -0.416
 -0.412  -0.398  -0.393  -0.385  -0.376  -0.371  -0.369  -0.358
 -0.356  -0.349  -0.347  -0.344  -0.334  -0.326  -0.323  -0.318
 -0.301  -0.298  -0.276  -0.271  -0.264  -0.230

          Ground-State Mulliken Net Atomic Charges

     Atom                 Charge (a.u.)
  ----------------------------------------
      1 C                    -0.386874
      2 C                    -0.379593
      3 C                    -0.374592
      4 C                    -0.348827
      5 C                    -0.308411
      6 C                    -0.408873
      7 O                     0.090850
      8 H                     0.221315
      9 H                     0.008940
     10 H                     0.208203
     11 H                     0.093818
     12 C                    -0.179512
     13 C                    -0.241916
     14 H                     0.151952
     15 H                     0.152546
     16 H                     0.167108
     17 H                     0.143892
     18 H                     0.148714
     19 H                     0.165000
     20 H                     0.112924
     21 H                     0.171838
     22 H                     0.157185
     23 H                     0.123571
     24 C                    -0.377625
     25 C                    -0.346829
     26 C                     0.162809
     27 C                    -0.388582
     28 C                    -0.422728
     29 C                     0.212943
     30 O                     0.222957
     31 H                     0.158695
     32 H                     0.139712
     33 H                     0.165309
     34 H                     0.134450
     35 C                    -0.433311
     36 C                    -0.435779
     37 H                     0.158783
     38 H                     0.153951
     39 H                     0.174727
     40 H                     0.158332
     41 H                     0.151544
     42 H                     0.173618
     43 H                     0.201439
     44 H                     0.161289
     45 H                     0.182218
     46 H                     0.202819
  ----------------------------------------
  Sum of atomic charges =     0.000000

                    Cartesian Multipole Moments
 -----------------------------------------------------------------
    Charge (ESU x 10^10)
                 0.0000
    Dipole Moment (Debye)
         X      -3.1729      Y       0.0524      Z       2.3624
       Tot       3.9561
    Quadrupole Moments (Debye-Ang)
        XX    -117.9189     XY       0.1300     YY    -110.8312
        XZ       2.8486     YZ      -0.2325     ZZ    -116.3606

 Total job time:  411.29s(wall), 1630.47s(cpu)
        *  Thank you very much for using Q-Chem.  Have a nice day.  *
