 Q-Chem 5.0, Q-Chem, Inc., Pleasanton, CA (2017)
 Q-Chem 5.0.1 for Intel X86 EM64T Linux

User input:
--------------------------------------------------------------
$molecule
0  1
C        +0.21707000        +2.21777000        +4.49521000
C        +0.66979000        +0.79618000        +4.92810000
C        +1.32568000        +2.60790000        +3.48311000
C        +2.62557000        +2.91980000        +4.26837000
C        +3.07941000        +1.49974000        +4.70460000
C        +1.96481000        +0.61063000        +4.09565000
O        +1.64141000        +1.33051000        +2.88359000
H        +3.36039000        +3.38529000        +3.60780000
H        +2.44907000        +3.59916000        +5.10536000
H        +4.04504000        +1.24008000        +4.26589000
H        +3.15774000        +1.37985000        +5.78763000
C        +0.93340000        +3.61394000        +2.42565000
C        +2.35388000        -0.81577000        +3.78199000
H        +3.22853000        -0.84103000        +3.12730000
H        +2.59760000        -1.35285000        +4.70310000
H        +1.53327000        -1.33874000        +3.28486000
H        +1.75021000        +3.76266000        +1.71533000
H        +0.69862000        +4.57736000        +2.88737000
H        +0.05274000        +3.27158000        +1.87698000
H        +0.85164000        +0.70466000        +6.00135000
H        -0.06699000        +0.04061000        +4.64617000
H        -0.75280000        +2.18941000        +3.99378000
H        +0.14809000        +2.92547000        +5.32412000
@C        +0.20186000        +1.01419000        +0.57588000
@C        +0.65458000        -0.40740000        +1.00877000
@C        +1.31047000        +1.40432000        -0.43622000
@C        +2.61036000        +1.71622000        +0.34904000
@C        +3.06420000        +0.29616000        +0.78527000
@C        +1.94960000        -0.59295000        +0.17632000
@O        +1.62620000        +0.12693000        -1.03574000
@H        +3.34518000        +2.18171000        -0.31153000
@H        +2.43386000        +2.39558000        +1.18603000
@H        +4.02983000        +0.03650000        +0.34656000
@H        +3.14253000        +0.17627000        +1.86830000
@C        +0.91819000        +2.41036000        -1.49368000
@C        +2.33867000        -2.01935000        -0.13734000
@H        +3.21332000        -2.04461000        -0.79203000
@H        +2.58239000        -2.55643000        +0.78377000
@H        +1.51806000        -2.54232000        -0.63447000
@H        +1.73500000        +2.55908000        -2.20400000
@H        +0.68341000        +3.37378000        -1.03196000
@H        +0.03753000        +2.06800000        -2.04235000
@H        +0.83643000        -0.49892000        +2.08202000
@H        -0.08220000        -1.16297000        +0.72684000
@H        -0.76801000        +0.98583000        +0.07445000
@H        +0.13288000        +1.72189000        +1.40479000
$end

$rem
JOBTYPE                   SP
METHOD                    B3LYP
DFT_D                     d3_op
BASIS                     6-311++G(d,p)
SYMMETRY                  False
THRESH                    12
SCF_CONVERGENCE           8
MAX_SUB_FILE_NUM          128
MEM_STATIC                400
MEM_TOTAL                 4000
$end
--------------------------------------------------------------

             Standard Nuclear Orientation (Angstroms)
    I     Atom           X                Y                Z
 ----------------------------------------------------------------
    1      C       0.2170700000     2.2177700000     4.4952100000
    2      C       0.6697900000     0.7961800000     4.9281000000
    3      C       1.3256800000     2.6079000000     3.4831100000
    4      C       2.6255700000     2.9198000000     4.2683700000
    5      C       3.0794100000     1.4997400000     4.7046000000
    6      C       1.9648100000     0.6106300000     4.0956500000
    7      O       1.6414100000     1.3305100000     2.8835900000
    8      H       3.3603900000     3.3852900000     3.6078000000
    9      H       2.4490700000     3.5991600000     5.1053600000
   10      H       4.0450400000     1.2400800000     4.2658900000
   11      H       3.1577400000     1.3798500000     5.7876300000
   12      C       0.9334000000     3.6139400000     2.4256500000
   13      C       2.3538800000    -0.8157700000     3.7819900000
   14      H       3.2285300000    -0.8410300000     3.1273000000
   15      H       2.5976000000    -1.3528500000     4.7031000000
   16      H       1.5332700000    -1.3387400000     3.2848600000
   17      H       1.7502100000     3.7626600000     1.7153300000
   18      H       0.6986200000     4.5773600000     2.8873700000
   19      H       0.0527400000     3.2715800000     1.8769800000
   20      H       0.8516400000     0.7046600000     6.0013500000
   21      H      -0.0669900000     0.0406100000     4.6461700000
   22      H      -0.7528000000     2.1894100000     3.9937800000
   23      H       0.1480900000     2.9254700000     5.3241200000
   24      GH      0.2018600000     1.0141900000     0.5758800000
   25      GH      0.6545800000    -0.4074000000     1.0087700000
   26      GH      1.3104700000     1.4043200000    -0.4362200000
   27      GH      2.6103600000     1.7162200000     0.3490400000
   28      GH      3.0642000000     0.2961600000     0.7852700000
   29      GH      1.9496000000    -0.5929500000     0.1763200000
   30      GH      1.6262000000     0.1269300000    -1.0357400000
   31      GH      3.3451800000     2.1817100000    -0.3115300000
   32      GH      2.4338600000     2.3955800000     1.1860300000
   33      GH      4.0298300000     0.0365000000     0.3465600000
   34      GH      3.1425300000     0.1762700000     1.8683000000
   35      GH      0.9181900000     2.4103600000    -1.4936800000
   36      GH      2.3386700000    -2.0193500000    -0.1373400000
   37      GH      3.2133200000    -2.0446100000    -0.7920300000
   38      GH      2.5823900000    -2.5564300000     0.7837700000
   39      GH      1.5180600000    -2.5423200000    -0.6344700000
   40      GH      1.7350000000     2.5590800000    -2.2040000000
   41      GH      0.6834100000     3.3737800000    -1.0319600000
   42      GH      0.0375300000     2.0680000000    -2.0423500000
   43      GH      0.8364300000    -0.4989200000     2.0820200000
   44      GH     -0.0822000000    -1.1629700000     0.7268400000
   45      GH     -0.7680100000     0.9858300000     0.0744500000
   46      GH      0.1328800000     1.7218900000     1.4047900000
 ----------------------------------------------------------------

   12    -388.6393068369      3.21E-09 Convergence criterion met
 Total energy in the final basis set = -388.63930684

                    Orbital Energies (a.u.)
 --------------------------------------------------------------

 Alpha MOs
 -- Occupied --
-19.113 -10.223 -10.223 -10.166 -10.166 -10.166 -10.166 -10.160
-10.160  -1.043  -0.799  -0.788  -0.749  -0.716  -0.650  -0.613
 -0.557  -0.553  -0.484  -0.475  -0.466  -0.440  -0.417  -0.408
 -0.404  -0.402  -0.383  -0.359  -0.344  -0.343  -0.341  -0.335
 -0.317  -0.298  -0.260

          Ground-State Mulliken Net Atomic Charges

     Atom                 Charge (a.u.)
  ----------------------------------------
      1 C                    -0.369451
      2 C                    -0.379895
      3 C                     0.109167
      4 C                    -0.377420
      5 C                    -0.371087
      6 C                     0.116457
      7 O                     0.179467
      8 H                     0.161070
      9 H                     0.150304
     10 H                     0.160690
     11 H                     0.150134
     12 C                    -0.527691
     13 C                    -0.532532
     14 H                     0.171581
     15 H                     0.180120
     16 H                     0.171400
     17 H                     0.170723
     18 H                     0.180532
     19 H                     0.171115
     20 H                     0.150195
     21 H                     0.161245
     22 H                     0.160323
     23 H                     0.150271
     24 GH                    0.030871
     25 GH                    0.029685
     26 GH                   -0.051374
     27 GH                    0.028757
     28 GH                    0.032026
     29 GH                   -0.053694
     30 GH                   -0.004062
     31 GH                    0.001835
     32 GH                   -0.040137
     33 GH                    0.002159
     34 GH                   -0.043089
     35 GH                    0.005796
     36 GH                    0.005659
     37 GH                   -0.000105
     38 GH                   -0.000323
     39 GH                   -0.000093
     40 GH                   -0.000095
     41 GH                   -0.000348
     42 GH                   -0.000103
     43 GH                   -0.041671
     44 GH                    0.001933
     45 GH                    0.002140
     46 GH                   -0.042486
  ----------------------------------------
  Sum of atomic charges =     0.000000

                    Cartesian Multipole Moments
 -----------------------------------------------------------------
    Charge (ESU x 10^10)
                 0.0000
    Dipole Moment (Debye)
         X       0.0083      Y       0.4506      Z       1.4612
       Tot       1.5291
    Quadrupole Moments (Debye-Ang)
        XX     -56.6194     XY       0.2046     YY     -53.8517
        XZ       2.5935     YZ       2.9011     ZZ     -47.6640

 Total job time:  364.00s(wall), 1439.57s(cpu)
        *  Thank you very much for using Q-Chem.  Have a nice day.  *
