 Q-Chem 5.0, Q-Chem, Inc., Pleasanton, CA (2017)
 Q-Chem 5.0.1 for Intel X86 EM64T Linux

User input:
--------------------------------------------------------------
$molecule
0  1
C        +3.30005000        +2.68971000        +2.73873000
C        +3.70361000        +1.23130000        +3.15149000
C        +4.40743000        +3.04457000        +1.71787000
C        +5.70805000        +3.36183000        +2.48133000
C        +6.12071000        +1.93834000        +2.95578000
C        +5.02158000        +1.05184000        +2.30540000
O        +4.70575000        +1.78146000        +1.10902000
H        +6.44969000        +3.78265000        +1.80083000
H        +5.55971000        +4.06971000        +3.29929000
H        +7.09917000        +1.65477000        +2.56439000
H        +6.15094000        +1.83221000        +4.04206000
C        +3.97763000        +4.03560000        +0.65848000
C        +5.43185000        -0.36784000        +1.98466000
H        +6.34046000        -0.36195000        +1.37912000
H        +5.62725000        -0.92576000        +2.90357000
H        +4.65070000        -0.88413000        +1.42406000
H        +4.79580000        +4.22669000        -0.00408000
H        +3.67654000        +4.94961000        +1.12628000
H        +3.15660000        +3.63136000        +0.10404000
H        +3.89428000        +1.15578000        +4.20165000
H        +2.95211000        +0.49127000        +2.97121000
H        +2.33062000        +2.71294000        +2.28643000
H        +3.23287000        +3.37100000        +3.56106000
@C        +0.22270000        +1.04488000        +0.58595000
@C        +0.62626000        -0.41353000        +0.99871000
@C        +1.33008000        +1.39974000        -0.43491000
@C        +2.63070000        +1.71700000        +0.32855000
@C        +3.04336000        +0.29351000        +0.80300000
@C        +1.94423000        -0.59299000        +0.15262000
@O        +1.62840000        +0.13663000        -1.04376000
@H        +3.37234000        +2.13782000        -0.35195000
@H        +2.48236000        +2.42488000        +1.14651000
@H        +4.02182000        +0.00994000        +0.41161000
@H        +3.07359000        +0.18738000        +1.88928000
@C        +0.90028000        +2.39077000        -1.49430000
@C        +2.35450000        -2.01267000        -0.16812000
@H        +3.26311000        -2.00678000        -0.77366000
@H        +2.54990000        -2.57059000        +0.75079000
@H        +1.57335000        -2.52896000        -0.72872000
@H        +1.71845000        +2.58186000        -2.15686000
@H        +0.59919000        +3.30478000        -1.02650000
@H        +0.07925000        +1.98653000        -2.04874000
@H        +0.81693000        -0.48905000        +2.04887000
@H        -0.12524000        -1.15356000        +0.81843000
@H        -0.74673000        +1.06811000        +0.13365000
@H        +0.15552000        +1.72617000        +1.40828000
$end

$rem
JOBTYPE                   SP
METHOD                    B3LYP
DFT_D                     d3_op
BASIS                     6-311++G(d,p)
SYMMETRY                  False
THRESH                    12
SCF_CONVERGENCE           8
MAX_SUB_FILE_NUM          128
MEM_STATIC                400
MEM_TOTAL                 4000
$end
--------------------------------------------------------------

             Standard Nuclear Orientation (Angstroms)
    I     Atom           X                Y                Z
 ----------------------------------------------------------------
    1      C       3.3000500000     2.6897100000     2.7387300000
    2      C       3.7036100000     1.2313000000     3.1514900000
    3      C       4.4074300000     3.0445700000     1.7178700000
    4      C       5.7080500000     3.3618300000     2.4813300000
    5      C       6.1207100000     1.9383400000     2.9557800000
    6      C       5.0215800000     1.0518400000     2.3054000000
    7      O       4.7057500000     1.7814600000     1.1090200000
    8      H       6.4496900000     3.7826500000     1.8008300000
    9      H       5.5597100000     4.0697100000     3.2992900000
   10      H       7.0991700000     1.6547700000     2.5643900000
   11      H       6.1509400000     1.8322100000     4.0420600000
   12      C       3.9776300000     4.0356000000     0.6584800000
   13      C       5.4318500000    -0.3678400000     1.9846600000
   14      H       6.3404600000    -0.3619500000     1.3791200000
   15      H       5.6272500000    -0.9257600000     2.9035700000
   16      H       4.6507000000    -0.8841300000     1.4240600000
   17      H       4.7958000000     4.2266900000    -0.0040800000
   18      H       3.6765400000     4.9496100000     1.1262800000
   19      H       3.1566000000     3.6313600000     0.1040400000
   20      H       3.8942800000     1.1557800000     4.2016500000
   21      H       2.9521100000     0.4912700000     2.9712100000
   22      H       2.3306200000     2.7129400000     2.2864300000
   23      H       3.2328700000     3.3710000000     3.5610600000
   24      GH      0.2227000000     1.0448800000     0.5859500000
   25      GH      0.6262600000    -0.4135300000     0.9987100000
   26      GH      1.3300800000     1.3997400000    -0.4349100000
   27      GH      2.6307000000     1.7170000000     0.3285500000
   28      GH      3.0433600000     0.2935100000     0.8030000000
   29      GH      1.9442300000    -0.5929900000     0.1526200000
   30      GH      1.6284000000     0.1366300000    -1.0437600000
   31      GH      3.3723400000     2.1378200000    -0.3519500000
   32      GH      2.4823600000     2.4248800000     1.1465100000
   33      GH      4.0218200000     0.0099400000     0.4116100000
   34      GH      3.0735900000     0.1873800000     1.8892800000
   35      GH      0.9002800000     2.3907700000    -1.4943000000
   36      GH      2.3545000000    -2.0126700000    -0.1681200000
   37      GH      3.2631100000    -2.0067800000    -0.7736600000
   38      GH      2.5499000000    -2.5705900000     0.7507900000
   39      GH      1.5733500000    -2.5289600000    -0.7287200000
   40      GH      1.7184500000     2.5818600000    -2.1568600000
   41      GH      0.5991900000     3.3047800000    -1.0265000000
   42      GH      0.0792500000     1.9865300000    -2.0487400000
   43      GH      0.8169300000    -0.4890500000     2.0488700000
   44      GH     -0.1252400000    -1.1535600000     0.8184300000
   45      GH     -0.7467300000     1.0681100000     0.1336500000
   46      GH      0.1555200000     1.7261700000     1.4082800000
 ----------------------------------------------------------------

   12    -388.6343953003      7.03E-09 Convergence criterion met
 Total energy in the final basis set = -388.63439530

                    Orbital Energies (a.u.)
 --------------------------------------------------------------

 Alpha MOs
 -- Occupied --
-19.115 -10.224 -10.221 -10.166 -10.165 -10.162 -10.161 -10.160
-10.151  -1.049  -0.799  -0.788  -0.748  -0.717  -0.652  -0.616
 -0.562  -0.555  -0.486  -0.474  -0.464  -0.444  -0.420  -0.410
 -0.406  -0.402  -0.383  -0.360  -0.346  -0.343  -0.340  -0.333
 -0.316  -0.299  -0.261

          Ground-State Mulliken Net Atomic Charges

     Atom                 Charge (a.u.)
  ----------------------------------------
      1 C                    -0.399183
      2 C                    -0.376335
      3 C                     0.264427
      4 C                    -0.373901
      5 C                    -0.402413
      6 C                     0.292384
      7 O                     0.106809
      8 H                     0.152293
      9 H                     0.137809
     10 H                     0.159172
     11 H                     0.132296
     12 C                    -0.457209
     13 C                    -0.459938
     14 H                     0.147922
     15 H                     0.157587
     16 H                     0.103332
     17 H                     0.149777
     18 H                     0.155045
     19 H                     0.087538
     20 H                     0.196302
     21 H                     0.144114
     22 H                     0.164471
     23 H                     0.197339
     24 GH                   -0.026992
     25 GH                   -0.007926
     26 GH                   -0.099956
     27 GH                    0.002741
     28 GH                   -0.073234
     29 GH                   -0.128981
     30 GH                   -0.007392
     31 GH                    0.024568
     32 GH                   -0.061580
     33 GH                    0.065483
     34 GH                    0.002233
     35 GH                    0.029377
     36 GH                   -0.003963
     37 GH                   -0.002684
     38 GH                    0.004280
     39 GH                    0.000169
     40 GH                   -0.001939
     41 GH                    0.005072
     42 GH                   -0.000101
     43 GH                    0.001901
     44 GH                   -0.000914
     45 GH                   -0.001087
     46 GH                    0.001291
  ----------------------------------------
  Sum of atomic charges =     0.000000

                    Cartesian Multipole Moments
 -----------------------------------------------------------------
    Charge (ESU x 10^10)
                 0.0000
    Dipole Moment (Debye)
         X      -0.0369      Y       0.4267      Z       1.4937
       Tot       1.5539
    Quadrupole Moments (Debye-Ang)
        XX     -56.7142     XY       1.4022     YY     -53.4193
        XZ       6.9073     YZ       2.9019     ZZ     -52.6370

 Total job time:  357.77s(wall), 1417.26s(cpu)
        *  Thank you very much for using Q-Chem.  Have a nice day.  *
