 Q-Chem 5.0, Q-Chem, Inc., Pleasanton, CA (2017)
 Q-Chem 5.0.1 for Intel X86 EM64T Linux

User input:
--------------------------------------------------------------
$molecule
0  1
C        +4.20073000        +3.17112000        +3.36882000
C        +4.60429000        +1.71271000        +3.78158000
C        +5.30811000        +3.52598000        +2.34796000
C        +6.60873000        +3.84324000        +3.11142000
C        +7.02139000        +2.41975000        +3.58587000
C        +5.92226000        +1.53325000        +2.93549000
O        +5.60643000        +2.26287000        +1.73911000
H        +7.35037000        +4.26406000        +2.43092000
H        +6.46039000        +4.55112000        +3.92938000
H        +7.99985000        +2.13618000        +3.19448000
H        +7.05162000        +2.31362000        +4.67215000
C        +4.87831000        +4.51701000        +1.28857000
C        +6.33253000        +0.11357000        +2.61475000
H        +7.24114000        +0.11946000        +2.00921000
H        +6.52793000        -0.44435000        +3.53366000
H        +5.55138000        -0.40272000        +2.05415000
H        +5.69648000        +4.70810000        +0.62601000
H        +4.57722000        +5.43102000        +1.75637000
H        +4.05728000        +4.11277000        +0.73413000
H        +4.79496000        +1.63719000        +4.83174000
H        +3.85279000        +0.97268000        +3.60130000
H        +3.23130000        +3.19435000        +2.91652000
H        +4.13355000        +3.85241000        +4.19115000
@C        +0.22270000        +1.04488000        +0.58595000
@C        +0.62626000        -0.41353000        +0.99871000
@C        +1.33008000        +1.39974000        -0.43491000
@C        +2.63070000        +1.71700000        +0.32855000
@C        +3.04336000        +0.29351000        +0.80300000
@C        +1.94423000        -0.59299000        +0.15262000
@O        +1.62840000        +0.13663000        -1.04376000
@H        +3.37234000        +2.13782000        -0.35195000
@H        +2.48236000        +2.42488000        +1.14651000
@H        +4.02182000        +0.00994000        +0.41161000
@H        +3.07359000        +0.18738000        +1.88928000
@C        +0.90028000        +2.39077000        -1.49430000
@C        +2.35450000        -2.01267000        -0.16812000
@H        +3.26311000        -2.00678000        -0.77366000
@H        +2.54990000        -2.57059000        +0.75079000
@H        +1.57335000        -2.52896000        -0.72872000
@H        +1.71845000        +2.58186000        -2.15686000
@H        +0.59919000        +3.30478000        -1.02650000
@H        +0.07925000        +1.98653000        -2.04874000
@H        +0.81693000        -0.48905000        +2.04887000
@H        -0.12524000        -1.15356000        +0.81843000
@H        -0.74673000        +1.06811000        +0.13365000
@H        +0.15552000        +1.72617000        +1.40828000
$end

$rem
JOBTYPE                   SP
METHOD                    B3LYP
DFT_D                     d3_op
BASIS                     6-311++G(d,p)
SYMMETRY                  False
THRESH                    12
SCF_CONVERGENCE           8
MAX_SUB_FILE_NUM          128
MEM_STATIC                400
MEM_TOTAL                 4000
$end
--------------------------------------------------------------

             Standard Nuclear Orientation (Angstroms)
    I     Atom           X                Y                Z
 ----------------------------------------------------------------
    1      C       4.2007300000     3.1711200000     3.3688200000
    2      C       4.6042900000     1.7127100000     3.7815800000
    3      C       5.3081100000     3.5259800000     2.3479600000
    4      C       6.6087300000     3.8432400000     3.1114200000
    5      C       7.0213900000     2.4197500000     3.5858700000
    6      C       5.9222600000     1.5332500000     2.9354900000
    7      O       5.6064300000     2.2628700000     1.7391100000
    8      H       7.3503700000     4.2640600000     2.4309200000
    9      H       6.4603900000     4.5511200000     3.9293800000
   10      H       7.9998500000     2.1361800000     3.1944800000
   11      H       7.0516200000     2.3136200000     4.6721500000
   12      C       4.8783100000     4.5170100000     1.2885700000
   13      C       6.3325300000     0.1135700000     2.6147500000
   14      H       7.2411400000     0.1194600000     2.0092100000
   15      H       6.5279300000    -0.4443500000     3.5336600000
   16      H       5.5513800000    -0.4027200000     2.0541500000
   17      H       5.6964800000     4.7081000000     0.6260100000
   18      H       4.5772200000     5.4310200000     1.7563700000
   19      H       4.0572800000     4.1127700000     0.7341300000
   20      H       4.7949600000     1.6371900000     4.8317400000
   21      H       3.8527900000     0.9726800000     3.6013000000
   22      H       3.2313000000     3.1943500000     2.9165200000
   23      H       4.1335500000     3.8524100000     4.1911500000
   24      GH      0.2227000000     1.0448800000     0.5859500000
   25      GH      0.6262600000    -0.4135300000     0.9987100000
   26      GH      1.3300800000     1.3997400000    -0.4349100000
   27      GH      2.6307000000     1.7170000000     0.3285500000
   28      GH      3.0433600000     0.2935100000     0.8030000000
   29      GH      1.9442300000    -0.5929900000     0.1526200000
   30      GH      1.6284000000     0.1366300000    -1.0437600000
   31      GH      3.3723400000     2.1378200000    -0.3519500000
   32      GH      2.4823600000     2.4248800000     1.1465100000
   33      GH      4.0218200000     0.0099400000     0.4116100000
   34      GH      3.0735900000     0.1873800000     1.8892800000
   35      GH      0.9002800000     2.3907700000    -1.4943000000
   36      GH      2.3545000000    -2.0126700000    -0.1681200000
   37      GH      3.2631100000    -2.0067800000    -0.7736600000
   38      GH      2.5499000000    -2.5705900000     0.7507900000
   39      GH      1.5733500000    -2.5289600000    -0.7287200000
   40      GH      1.7184500000     2.5818600000    -2.1568600000
   41      GH      0.5991900000     3.3047800000    -1.0265000000
   42      GH      0.0792500000     1.9865300000    -2.0487400000
   43      GH      0.8169300000    -0.4890500000     2.0488700000
   44      GH     -0.1252400000    -1.1535600000     0.8184300000
   45      GH     -0.7467300000     1.0681100000     0.1336500000
   46      GH      0.1555200000     1.7261700000     1.4082800000
 ----------------------------------------------------------------

   12    -388.6333380895      6.96E-09 Convergence criterion met
 Total energy in the final basis set = -388.63333809

                    Orbital Energies (a.u.)
 --------------------------------------------------------------

 Alpha MOs
 -- Occupied --
-19.115 -10.224 -10.221 -10.166 -10.165 -10.162 -10.161 -10.160
-10.151  -1.049  -0.799  -0.789  -0.749  -0.717  -0.652  -0.616
 -0.562  -0.555  -0.486  -0.474  -0.464  -0.444  -0.420  -0.410
 -0.406  -0.402  -0.384  -0.360  -0.346  -0.343  -0.340  -0.333
 -0.316  -0.299  -0.261

          Ground-State Mulliken Net Atomic Charges

     Atom                 Charge (a.u.)
  ----------------------------------------
      1 C                    -0.325738
      2 C                    -0.330887
      3 C                     0.130726
      4 C                    -0.587166
      5 C                    -0.521257
      6 C                     0.138888
      7 O                     0.037696
      8 H                     0.155787
      9 H                     0.138122
     10 H                     0.158946
     11 H                     0.136053
     12 C                    -0.236525
     13 C                    -0.319606
     14 H                     0.155250
     15 H                     0.148614
     16 H                     0.142372
     17 H                     0.150432
     18 H                     0.145993
     19 H                     0.131254
     20 H                     0.166324
     21 H                     0.157039
     22 H                     0.138619
     23 H                     0.179778
     24 GH                   -0.003300
     25 GH                    0.001173
     26 GH                   -0.040817
     27 GH                   -0.012606
     28 GH                    0.003027
     29 GH                   -0.041885
     30 GH                    0.000746
     31 GH                    0.010944
     32 GH                   -0.018108
     33 GH                    0.014694
     34 GH                   -0.016579
     35 GH                    0.005581
     36 GH                    0.000573
     37 GH                   -0.000779
     38 GH                    0.001219
     39 GH                    0.000125
     40 GH                   -0.000545
     41 GH                    0.001262
     42 GH                    0.000129
     43 GH                    0.002054
     44 GH                   -0.000082
     45 GH                   -0.000334
     46 GH                    0.002793
  ----------------------------------------
  Sum of atomic charges =     0.000000

                    Cartesian Multipole Moments
 -----------------------------------------------------------------
    Charge (ESU x 10^10)
                 0.0000
    Dipole Moment (Debye)
         X      -0.0331      Y       0.4294      Z       1.5035
       Tot       1.5640
    Quadrupole Moments (Debye-Ang)
        XX     -56.7334     XY       1.7783     YY     -52.9813
        XZ       8.2627     YZ       3.8993     ZZ     -50.7270

 Total job time:  287.00s(wall), 1134.07s(cpu)
        *  Thank you very much for using Q-Chem.  Have a nice day.  *
