 Q-Chem 5.0, Q-Chem, Inc., Pleasanton, CA (2017)
 Q-Chem 5.0.1 for Intel X86 EM64T Linux

User input:
--------------------------------------------------------------
$molecule
0  1
--
0  1
C        +0.20186000        +1.01419000        +0.57588000
C        +0.65458000        -0.40740000        +1.00877000
C        +1.31047000        +1.40432000        -0.43622000
C        +2.61036000        +1.71622000        +0.34904000
C        +3.06420000        +0.29616000        +0.78527000
C        +1.94960000        -0.59295000        +0.17632000
O        +1.62620000        +0.12693000        -1.03574000
H        +3.34518000        +2.18171000        -0.31153000
H        +2.43386000        +2.39558000        +1.18603000
H        +4.02983000        +0.03650000        +0.34656000
H        +3.14253000        +0.17627000        +1.86830000
C        +0.91819000        +2.41036000        -1.49368000
C        +2.33867000        -2.01935000        -0.13734000
H        +3.21332000        -2.04461000        -0.79203000
H        +2.58239000        -2.55643000        +0.78377000
H        +1.51806000        -2.54232000        -0.63447000
H        +1.73500000        +2.55908000        -2.20400000
H        +0.68341000        +3.37378000        -1.03196000
H        +0.03753000        +2.06800000        -2.04235000
H        +0.83643000        -0.49892000        +2.08202000
H        -0.08220000        -1.16297000        +0.72684000
H        -0.76801000        +0.98583000        +0.07445000
H        +0.13288000        +1.72189000        +1.40479000
--
0  1
C        +0.21707000        +2.21777000        +4.49521000
C        +0.66979000        +0.79618000        +4.92810000
C        +1.32568000        +2.60790000        +3.48311000
C        +2.62557000        +2.91980000        +4.26837000
C        +3.07941000        +1.49974000        +4.70460000
C        +1.96481000        +0.61063000        +4.09565000
O        +1.64141000        +1.33051000        +2.88359000
H        +3.36039000        +3.38529000        +3.60780000
H        +2.44907000        +3.59916000        +5.10536000
H        +4.04504000        +1.24008000        +4.26589000
H        +3.15774000        +1.37985000        +5.78763000
C        +0.93340000        +3.61394000        +2.42565000
C        +2.35388000        -0.81577000        +3.78199000
H        +3.22853000        -0.84103000        +3.12730000
H        +2.59760000        -1.35285000        +4.70310000
H        +1.53327000        -1.33874000        +3.28486000
H        +1.75021000        +3.76266000        +1.71533000
H        +0.69862000        +4.57736000        +2.88737000
H        +0.05274000        +3.27158000        +1.87698000
H        +0.85164000        +0.70466000        +6.00135000
H        -0.06699000        +0.04061000        +4.64617000
H        -0.75280000        +2.18941000        +3.99378000
H        +0.14809000        +2.92547000        +5.32412000
$end

$rem
JOBTYPE                   SP
METHOD                    B3LYP
DFT_D                     d3_op
BASIS                     6-311++G(d,p)
SYMMETRY                  False
THRESH                    12
SCF_CONVERGENCE           8
MAX_SUB_FILE_NUM          128
MEM_STATIC                400
MEM_TOTAL                 4000
$end
--------------------------------------------------------------

             Standard Nuclear Orientation (Angstroms)
    I     Atom           X                Y                Z
 ----------------------------------------------------------------
    1      C       1.3101331114     0.7769509055    -1.2591328672
    2      C       1.3118029157    -0.7765158275    -1.2614992523
    3      C       2.1591127384     1.0919115107     0.0000721872
    4      C       1.3121271663     0.7768620529     1.2598293739
    5      C       1.3101509475    -0.7764674340     1.2586623966
    6      C       2.1572898993    -1.0927568730    -0.0006971397
    7      O       3.1059217395    -0.0009685113    -0.0008489756
    8      H       1.8043144085     1.1719363234     2.1512676146
    9      H       0.3132833366     1.2157589642     1.2058384042
   10      H       1.8021926151    -1.1740693967     2.1486841679
   11      H       0.3097024499    -1.2117960990     1.2033908941
   12      C       2.8762320172     2.4223105754     0.0000826447
   13      C       2.8742830282    -2.4232798690     0.0014077721
   14      H       3.5043448377    -2.5195295899     0.8891170678
   15      H       2.1504406377    -3.2432489529     0.0023523199
   16      H       3.5060026246    -2.5221477926    -0.8847028955
   17      H       3.5086328284     2.5176345685     0.8859908043
   18      H       2.1529917452     3.2429197170     0.0031238343
   19      H       3.5044432677     2.5205825338    -0.8884579684
   20      H       0.3119983494    -1.2134894233    -1.2090035276
   21      H       1.8057460885    -1.1727779451    -2.1515620559
   22      H       1.8013696487     1.1752566558    -2.1495953005
   23      H       0.3103021748     1.2125286721    -1.2016922378
   24      C      -2.7898648850     0.7773537515    -1.2588560103
   25      C      -2.7881950807    -0.7761129815    -1.2612223954
   26      C      -1.9408852580     1.0923143567     0.0003490441
   27      C      -2.7878708301     0.7772648989     1.2601062308
   28      C      -2.7898470489    -0.7760645880     1.2589392535
   29      C      -1.9427080971    -1.0923540271    -0.0004202828
   30      O      -0.9940762569    -0.0005656653    -0.0005721187
   31      H      -2.2956835879     1.1723391693     2.1515444715
   32      H      -3.7867146598     1.2161618102     1.2061152610
   33      H      -2.2978053813    -1.1736665507     2.1489610248
   34      H      -3.7902955465    -1.2113932530     1.2036677510
   35      C      -1.2237659792     2.4227134214     0.0003595015
   36      C      -1.2257149682    -2.4228770231     0.0016846290
   37      H      -0.5956531586    -2.5191267439     0.8893939247
   38      H      -1.9495573587    -3.2428461069     0.0026291768
   39      H      -0.5939953718    -2.5217449467    -0.8844260386
   40      H      -0.5913651680     2.5180374145     0.8862676612
   41      H      -1.9470062512     3.2433225630     0.0034006912
   42      H      -0.5955547287     2.5209853798    -0.8881811115
   43      H      -3.7879996470    -1.2130865774    -1.2087266707
   44      H      -2.2942519079    -1.1723750991    -2.1512851990
   45      H      -2.2986283477     1.1756595018    -2.1493184436
   46      H      -3.7896958216     1.2129315181    -1.2014153809
 ----------------------------------------------------------------

   13    -777.2398966628      6.23E-09 Convergence criterion met
 Total energy in the final basis set = -777.23989666

                    Orbital Energies (a.u.)
 --------------------------------------------------------------

 Alpha MOs
 -- Occupied --
-19.120 -19.098 -10.233 -10.233 -10.207 -10.207 -10.175 -10.175
-10.175 -10.175 -10.168 -10.168 -10.150 -10.150 -10.144 -10.144
-10.143 -10.143  -1.059  -1.027  -0.811  -0.803  -0.782  -0.774
 -0.760  -0.731  -0.729  -0.704  -0.664  -0.636  -0.624  -0.598
 -0.571  -0.569  -0.544  -0.535  -0.505  -0.487  -0.480  -0.465
 -0.460  -0.458  -0.454  -0.441  -0.426  -0.424  -0.413  -0.407
 -0.401  -0.395  -0.395  -0.392  -0.383  -0.372  -0.365  -0.357
 -0.354  -0.352  -0.347  -0.345  -0.330  -0.322  -0.322  -0.316
 -0.309  -0.305  -0.296  -0.281  -0.271  -0.241

          Ground-State Mulliken Net Atomic Charges

     Atom                 Charge (a.u.)
  ----------------------------------------
      1 C                    -0.013287
      2 C                    -0.018413
      3 C                    -0.748853
      4 C                    -0.019080
      5 C                    -0.013294
      6 C                    -0.748343
      7 O                     0.073693
      8 H                     0.205208
      9 H                     0.009488
     10 H                     0.205640
     11 H                     0.005571
     12 C                    -0.206652
     13 C                    -0.205830
     14 H                     0.145599
     15 H                     0.144232
     16 H                     0.145418
     17 H                     0.145679
     18 H                     0.144259
     19 H                     0.145376
     20 H                     0.008430
     21 H                     0.205357
     22 H                     0.205419
     23 H                     0.005712
     24 C                    -0.376864
     25 C                    -0.382068
     26 C                     0.141630
     27 C                    -0.381542
     28 C                    -0.378067
     29 C                     0.143778
     30 O                     0.172421
     31 H                     0.166498
     32 H                     0.154728
     33 H                     0.166492
     34 H                     0.154777
     35 C                    -0.611687
     36 C                    -0.613650
     37 H                     0.208325
     38 H                     0.173479
     39 H                     0.207742
     40 H                     0.208002
     41 H                     0.173615
     42 H                     0.208601
     43 H                     0.154638
     44 H                     0.166654
     45 H                     0.166405
     46 H                     0.154763
  ----------------------------------------
  Sum of atomic charges =    -0.000000

                    Cartesian Multipole Moments
 -----------------------------------------------------------------
    Charge (ESU x 10^10)
                -0.0000
    Dipole Moment (Debye)
         X      -4.2952      Y       0.0024      Z       0.0054
       Tot       4.2952
    Quadrupole Moments (Debye-Ang)
        XX    -120.5307     XY      -0.0034     YY    -110.1527
        XZ      -0.0003     YZ       0.0032     ZZ    -114.7160

 Total job time:  414.35s(wall), 1636.77s(cpu)
        *  Thank you very much for using Q-Chem.  Have a nice day.  *
