 Q-Chem 5.0, Q-Chem, Inc., Pleasanton, CA (2017)
 Q-Chem 5.0.1 for Intel X86 EM64T Linux

User input:
--------------------------------------------------------------
$molecule
0  1
--
0  1
C        +0.22270000        +1.04488000        +0.58595000
C        +0.62626000        -0.41353000        +0.99871000
C        +1.33008000        +1.39974000        -0.43491000
C        +2.63070000        +1.71700000        +0.32855000
C        +3.04336000        +0.29351000        +0.80300000
C        +1.94423000        -0.59299000        +0.15262000
O        +1.62840000        +0.13663000        -1.04376000
H        +3.37234000        +2.13782000        -0.35195000
H        +2.48236000        +2.42488000        +1.14651000
H        +4.02182000        +0.00994000        +0.41161000
H        +3.07359000        +0.18738000        +1.88928000
C        +0.90028000        +2.39077000        -1.49430000
C        +2.35450000        -2.01267000        -0.16812000
H        +3.26311000        -2.00678000        -0.77366000
H        +2.54990000        -2.57059000        +0.75079000
H        +1.57335000        -2.52896000        -0.72872000
H        +1.71845000        +2.58186000        -2.15686000
H        +0.59919000        +3.30478000        -1.02650000
H        +0.07925000        +1.98653000        -2.04874000
H        +0.81693000        -0.48905000        +2.04887000
H        -0.12524000        -1.15356000        +0.81843000
H        -0.74673000        +1.06811000        +0.13365000
H        +0.15552000        +1.72617000        +1.40828000
--
0  1
C        +4.20073000        +3.17112000        +3.36882000
C        +4.60429000        +1.71271000        +3.78158000
C        +5.30811000        +3.52598000        +2.34796000
C        +6.60873000        +3.84324000        +3.11142000
C        +7.02139000        +2.41975000        +3.58587000
C        +5.92226000        +1.53325000        +2.93549000
O        +5.60643000        +2.26287000        +1.73911000
H        +7.35037000        +4.26406000        +2.43092000
H        +6.46039000        +4.55112000        +3.92938000
H        +7.99985000        +2.13618000        +3.19448000
H        +7.05162000        +2.31362000        +4.67215000
C        +4.87831000        +4.51701000        +1.28857000
C        +6.33253000        +0.11357000        +2.61475000
H        +7.24114000        +0.11946000        +2.00921000
H        +6.52793000        -0.44435000        +3.53366000
H        +5.55138000        -0.40272000        +2.05415000
H        +5.69648000        +4.70810000        +0.62601000
H        +4.57722000        +5.43102000        +1.75637000
H        +4.05728000        +4.11277000        +0.73413000
H        +4.79496000        +1.63719000        +4.83174000
H        +3.85279000        +0.97268000        +3.60130000
H        +3.23130000        +3.19435000        +2.91652000
H        +4.13355000        +3.85241000        +4.19115000
$end

$rem
JOBTYPE                   SP
METHOD                    B3LYP
DFT_D                     d3_op
BASIS                     6-311++G(d,p)
SYMMETRY                  False
THRESH                    12
SCF_CONVERGENCE           8
MAX_SUB_FILE_NUM          128
MEM_STATIC                400
MEM_TOTAL                 4000
$end
--------------------------------------------------------------

             Standard Nuclear Orientation (Angstroms)
    I     Atom           X                Y                Z
 ----------------------------------------------------------------
    1      C       3.1582357517    -0.8062005504     1.3137540317
    2      C       3.2239531953     0.7607318779     1.3381507966
    3      C       2.7007350290    -1.0783851783    -0.1391671089
    4      C       1.1946360595    -0.7726278832    -0.2545613637
    5      C       1.2077608858     0.7818745969    -0.1833951056
    6      C       2.7308342835     1.0877583377    -0.1230153589
    7      O       3.2931447777     0.0002957784    -0.8744480757
    8      H       0.8132491037    -1.1215982931    -1.2152711299
    9      H       0.6033118437    -1.2417036281     0.5344006310
   10      H       0.7801943553     1.2266536916    -1.0835842343
   11      H       0.6690277763     1.1837840552     0.6770798169
   12      C       3.1744195464    -2.4016823833    -0.6992413525
   13      C       3.1529381996     2.4215247484    -0.6971080070
   14      H       2.7725132806     2.5223556584    -1.7156341600
   15      H       2.7558394806     3.2404283779    -0.0924916596
   16      H       4.2403972578     2.5080766853    -0.7281661079
   17      H       2.8177482427    -2.5127808118    -1.7019107950
   18      H       2.7963978349    -3.2002506844    -0.0956731606
   19      H       4.2440970455    -2.4278531893    -0.6962265628
   20      H       2.5698142626     1.1726766742     2.0779467728
   21      H       4.1830462941     1.1643675719     1.5873819819
   22      H       4.1168208135    -1.2398770337     1.5085586384
   23      H       2.5137439238    -1.2255456966     2.0578479623
   24      C      -2.1412624610    -0.8064594361     1.3865776723
   25      C      -2.0755450173     0.7604729922     1.4109744372
   26      C      -2.5987631836    -1.0786440640    -0.0663434682
   27      C      -4.1048621532    -0.7728867689    -0.1817377230
   28      C      -4.0917373268     0.7816157113    -0.1105714649
   29      C      -2.5686639291     1.0874994520    -0.0501917183
   30      O      -2.0063534349     0.0000368927    -0.8016244351
   31      H      -4.4862491089    -1.1218571788    -1.1424474893
   32      H      -4.6961863689    -1.2419625138     0.6072242716
   33      H      -4.5193038573     1.2263948059    -1.0107605937
   34      H      -4.6304704364     1.1835251695     0.7499034575
   35      C      -2.1250786662    -2.4019412690    -0.6264177119
   36      C      -2.1465600130     2.4212658627    -0.6242843664
   37      H      -2.5269849320     2.5220967727    -1.6428105194
   38      H      -2.5436587320     3.2401694922    -0.0196680190
   39      H      -1.0591009548     2.5078177996    -0.6553424672
   40      H      -2.4817499700    -2.5130396974    -1.6290871543
   41      H      -2.5031003778    -3.2005095701    -0.0228495200
   42      H      -1.0554011671    -2.4281120750    -0.6234029222
   43      H      -2.7296839500     1.1724177885     2.1507704134
   44      H      -1.1164519186     1.1641086862     1.6602056225
   45      H      -1.1826773991    -1.2401359194     1.5813822790
   46      H      -2.7857542889    -1.2258045823     2.1306716029
 ----------------------------------------------------------------

   13    -777.2683985834      5.39E-09 Convergence criterion met
 Total energy in the final basis set = -777.26839858

                    Orbital Energies (a.u.)
 --------------------------------------------------------------

 Alpha MOs
 -- Occupied --
-19.117 -19.110 -10.227 -10.223 -10.219 -10.215 -10.168 -10.168
-10.166 -10.164 -10.162 -10.159 -10.158 -10.158 -10.157 -10.156
-10.153 -10.148  -1.052  -1.044  -0.802  -0.794  -0.791  -0.784
 -0.752  -0.743  -0.720  -0.714  -0.655  -0.648  -0.620  -0.611
 -0.565  -0.560  -0.558  -0.549  -0.490  -0.483  -0.476  -0.470
 -0.468  -0.458  -0.448  -0.439  -0.423  -0.415  -0.414  -0.411
 -0.406  -0.404  -0.402  -0.394  -0.389  -0.378  -0.363  -0.356
 -0.350  -0.347  -0.345  -0.341  -0.340  -0.335  -0.334  -0.328
 -0.318  -0.311  -0.301  -0.293  -0.265  -0.255

          Ground-State Mulliken Net Atomic Charges

     Atom                 Charge (a.u.)
  ----------------------------------------
      1 C                    -0.425179
      2 C                    -0.471785
      3 C                    -0.057645
      4 C                    -0.220377
      5 C                    -0.151641
      6 C                    -0.073901
      7 O                     0.040700
      8 H                     0.197194
      9 H                    -0.021081
     10 H                     0.172786
     11 H                     0.001486
     12 C                    -0.307268
     13 C                    -0.312088
     14 H                     0.153378
     15 H                     0.150672
     16 H                     0.157808
     17 H                     0.142573
     18 H                     0.146955
     19 H                     0.156400
     20 H                     0.130039
     21 H                     0.173611
     22 H                     0.161591
     23 H                     0.141537
     24 C                    -0.296558
     25 C                    -0.313549
     26 C                     0.061397
     27 C                    -0.593876
     28 C                    -0.527713
     29 C                     0.086470
     30 O                     0.060206
     31 H                     0.156934
     32 H                     0.138353
     33 H                     0.159975
     34 H                     0.136400
     35 C                    -0.196355
     36 C                    -0.284724
     37 H                     0.157458
     38 H                     0.148040
     39 H                     0.145145
     40 H                     0.153344
     41 H                     0.145115
     42 H                     0.135350
     43 H                     0.166539
     44 H                     0.159083
     45 H                     0.136057
     46 H                     0.181147
  ----------------------------------------
  Sum of atomic charges =     0.000000

                    Cartesian Multipole Moments
 -----------------------------------------------------------------
    Charge (ESU x 10^10)
                 0.0000
    Dipole Moment (Debye)
         X      -2.1339      Y       0.0200      Z       2.3050
       Tot       3.1412
    Quadrupole Moments (Debye-Ang)
        XX    -116.2868     XY       0.1955     YY    -109.8741
        XZ       2.5882     YZ      -0.2205     ZZ    -116.2877

 Total job time:  314.80s(wall), 1246.15s(cpu)
        *  Thank you very much for using Q-Chem.  Have a nice day.  *
