 Q-Chem 5.0, Q-Chem, Inc., Pleasanton, CA (2017)
 Q-Chem 5.0.1 for Intel X86 EM64T Linux

User input:
--------------------------------------------------------------
$molecule
0  1
C        +0.22270000        +1.04488000        +0.58595000
C        +0.62626000        -0.41353000        +0.99871000
C        +1.33008000        +1.39974000        -0.43491000
C        +2.63070000        +1.71700000        +0.32855000
C        +3.04336000        +0.29351000        +0.80300000
C        +1.94423000        -0.59299000        +0.15262000
O        +1.62840000        +0.13663000        -1.04376000
H        +3.37234000        +2.13782000        -0.35195000
H        +2.48236000        +2.42488000        +1.14651000
H        +4.02182000        +0.00994000        +0.41161000
H        +3.07359000        +0.18738000        +1.88928000
C        +0.90028000        +2.39077000        -1.49430000
C        +2.35450000        -2.01267000        -0.16812000
H        +3.26311000        -2.00678000        -0.77366000
H        +2.54990000        -2.57059000        +0.75079000
H        +1.57335000        -2.52896000        -0.72872000
H        +1.71845000        +2.58186000        -2.15686000
H        +0.59919000        +3.30478000        -1.02650000
H        +0.07925000        +1.98653000        -2.04874000
H        +0.81693000        -0.48905000        +2.04887000
H        -0.12524000        -1.15356000        +0.81843000
H        -0.74673000        +1.06811000        +0.13365000
H        +0.15552000        +1.72617000        +1.40828000
@C        +3.30005000        +2.68971000        +2.73873000
@C        +3.70361000        +1.23130000        +3.15149000
@C        +4.40743000        +3.04457000        +1.71787000
@C        +5.70805000        +3.36183000        +2.48133000
@C        +6.12071000        +1.93834000        +2.95578000
@C        +5.02158000        +1.05184000        +2.30540000
@O        +4.70575000        +1.78146000        +1.10902000
@H        +6.44969000        +3.78265000        +1.80083000
@H        +5.55971000        +4.06971000        +3.29929000
@H        +7.09917000        +1.65477000        +2.56439000
@H        +6.15094000        +1.83221000        +4.04206000
@C        +3.97763000        +4.03560000        +0.65848000
@C        +5.43185000        -0.36784000        +1.98466000
@H        +6.34046000        -0.36195000        +1.37912000
@H        +5.62725000        -0.92576000        +2.90357000
@H        +4.65070000        -0.88413000        +1.42406000
@H        +4.79580000        +4.22669000        -0.00408000
@H        +3.67654000        +4.94961000        +1.12628000
@H        +3.15660000        +3.63136000        +0.10404000
@H        +3.89428000        +1.15578000        +4.20165000
@H        +2.95211000        +0.49127000        +2.97121000
@H        +2.33062000        +2.71294000        +2.28643000
@H        +3.23287000        +3.37100000        +3.56106000
$end

$rem
JOBTYPE                   SP
METHOD                    B3LYP
DFT_D                     d3_op
BASIS                     6-311++G(d,p)
SYMMETRY                  False
THRESH                    12
SCF_CONVERGENCE           8
MAX_SUB_FILE_NUM          128
MEM_STATIC                400
MEM_TOTAL                 4000
$end
--------------------------------------------------------------

             Standard Nuclear Orientation (Angstroms)
    I     Atom           X                Y                Z
 ----------------------------------------------------------------
    1      C       0.2227000000     1.0448800000     0.5859500000
    2      C       0.6262600000    -0.4135300000     0.9987100000
    3      C       1.3300800000     1.3997400000    -0.4349100000
    4      C       2.6307000000     1.7170000000     0.3285500000
    5      C       3.0433600000     0.2935100000     0.8030000000
    6      C       1.9442300000    -0.5929900000     0.1526200000
    7      O       1.6284000000     0.1366300000    -1.0437600000
    8      H       3.3723400000     2.1378200000    -0.3519500000
    9      H       2.4823600000     2.4248800000     1.1465100000
   10      H       4.0218200000     0.0099400000     0.4116100000
   11      H       3.0735900000     0.1873800000     1.8892800000
   12      C       0.9002800000     2.3907700000    -1.4943000000
   13      C       2.3545000000    -2.0126700000    -0.1681200000
   14      H       3.2631100000    -2.0067800000    -0.7736600000
   15      H       2.5499000000    -2.5705900000     0.7507900000
   16      H       1.5733500000    -2.5289600000    -0.7287200000
   17      H       1.7184500000     2.5818600000    -2.1568600000
   18      H       0.5991900000     3.3047800000    -1.0265000000
   19      H       0.0792500000     1.9865300000    -2.0487400000
   20      H       0.8169300000    -0.4890500000     2.0488700000
   21      H      -0.1252400000    -1.1535600000     0.8184300000
   22      H      -0.7467300000     1.0681100000     0.1336500000
   23      H       0.1555200000     1.7261700000     1.4082800000
   24      GH      3.3000500000     2.6897100000     2.7387300000
   25      GH      3.7036100000     1.2313000000     3.1514900000
   26      GH      4.4074300000     3.0445700000     1.7178700000
   27      GH      5.7080500000     3.3618300000     2.4813300000
   28      GH      6.1207100000     1.9383400000     2.9557800000
   29      GH      5.0215800000     1.0518400000     2.3054000000
   30      GH      4.7057500000     1.7814600000     1.1090200000
   31      GH      6.4496900000     3.7826500000     1.8008300000
   32      GH      5.5597100000     4.0697100000     3.2992900000
   33      GH      7.0991700000     1.6547700000     2.5643900000
   34      GH      6.1509400000     1.8322100000     4.0420600000
   35      GH      3.9776300000     4.0356000000     0.6584800000
   36      GH      5.4318500000    -0.3678400000     1.9846600000
   37      GH      6.3404600000    -0.3619500000     1.3791200000
   38      GH      5.6272500000    -0.9257600000     2.9035700000
   39      GH      4.6507000000    -0.8841300000     1.4240600000
   40      GH      4.7958000000     4.2266900000    -0.0040800000
   41      GH      3.6765400000     4.9496100000     1.1262800000
   42      GH      3.1566000000     3.6313600000     0.1040400000
   43      GH      3.8942800000     1.1557800000     4.2016500000
   44      GH      2.9521100000     0.4912700000     2.9712100000
   45      GH      2.3306200000     2.7129400000     2.2864300000
   46      GH      3.2328700000     3.3710000000     3.5610600000
 ----------------------------------------------------------------

   12    -388.6337151512      7.02E-09 Convergence criterion met
 Total energy in the final basis set = -388.63371515

                    Orbital Energies (a.u.)
 --------------------------------------------------------------

 Alpha MOs
 -- Occupied --
-19.115 -10.224 -10.221 -10.166 -10.166 -10.162 -10.161 -10.160
-10.151  -1.049  -0.799  -0.789  -0.748  -0.717  -0.652  -0.616
 -0.562  -0.555  -0.486  -0.474  -0.464  -0.444  -0.420  -0.410
 -0.406  -0.402  -0.384  -0.360  -0.346  -0.343  -0.340  -0.333
 -0.316  -0.299  -0.261

          Ground-State Mulliken Net Atomic Charges

     Atom                 Charge (a.u.)
  ----------------------------------------
      1 C                    -0.381778
      2 C                    -0.398212
      3 C                    -0.354832
      4 C                    -0.397100
      5 C                    -0.280825
      6 C                    -0.345828
      7 O                     0.094940
      8 H                     0.216536
      9 H                     0.124730
     10 H                     0.205027
     11 H                     0.134582
     12 C                    -0.137991
     13 C                    -0.218239
     14 H                     0.152460
     15 H                     0.161223
     16 H                     0.170329
     17 H                     0.144562
     18 H                     0.157509
     19 H                     0.167942
     20 H                     0.132167
     21 H                     0.177388
     22 H                     0.162870
     23 H                     0.139280
     24 GH                    0.051997
     25 GH                    0.044336
     26 GH                   -0.040614
     27 GH                   -0.025561
     28 GH                    0.001941
     29 GH                   -0.016240
     30 GH                    0.055271
     31 GH                   -0.000553
     32 GH                    0.000044
     33 GH                    0.000354
     34 GH                   -0.000034
     35 GH                    0.015286
     36 GH                   -0.021308
     37 GH                    0.000561
     38 GH                   -0.001239
     39 GH                    0.046671
     40 GH                   -0.000509
     41 GH                   -0.000652
     42 GH                    0.058697
     43 GH                    0.003167
     44 GH                   -0.004271
     45 GH                    0.004058
     46 GH                    0.001855
  ----------------------------------------
  Sum of atomic charges =     0.000000

                    Cartesian Multipole Moments
 -----------------------------------------------------------------
    Charge (ESU x 10^10)
                 0.0000
    Dipole Moment (Debye)
         X      -0.0289      Y       0.4287      Z       1.5013
       Tot       1.5615
    Quadrupole Moments (Debye-Ang)
        XX     -56.4547     XY       0.1528     YY     -54.7987
        XZ       2.4075     YZ      -0.4809     ZZ     -59.0877

 Total job time:  375.36s(wall), 1486.57s(cpu)
        *  Thank you very much for using Q-Chem.  Have a nice day.  *
