 Q-Chem 5.0, Q-Chem, Inc., Pleasanton, CA (2017)
 Q-Chem 5.0.1 for Intel X86 EM64T Linux

User input:
--------------------------------------------------------------
$molecule
0  1
--
0  1
C        -0.54444000        -0.68370000        -0.06689000
C        -0.55709000        +0.71878000        +0.05493000
C        -1.74320000        -1.41616000        -0.12552000
C        -2.93952000        -0.70056000        -0.05285000
C        -2.95313000        +0.68255000        +0.06934000
C        -1.77161000        +1.42404000        +0.12810000
H        -3.90354000        +1.20325000        +0.11710000
H        -3.87892000        -1.24211000        -0.08988000
C        -1.83960000        +2.92746000        +0.24839000
H        -1.24214000        +3.42352000        -0.52065000
H        -1.45503000        +3.26427000        +1.21284000
H        -2.87211000        +3.26623000        +0.14638000
H        -1.73878000        -2.44393000        -0.21875000
H        +0.35825000        -1.18166000        -0.11386000
H        +0.33551000        +1.23549000        +0.09097000
--
0  1
C        -0.50797000        -1.14582000        +5.21280000
C        -0.52062000        +0.25666000        +5.33462000
C        -1.70673000        -1.87828000        +5.15417000
C        -2.90305000        -1.16268000        +5.22684000
C        -2.91666000        +0.22043000        +5.34903000
C        -1.73514000        +0.96192000        +5.40779000
H        -3.86707000        +0.74113000        +5.39679000
H        -3.84245000        -1.70423000        +5.18981000
C        -1.80313000        +2.46534000        +5.52808000
H        -1.20567000        +2.96140000        +4.75904000
H        -1.41856000        +2.80215000        +6.49253000
H        -2.83564000        +2.80411000        +5.42607000
H        -1.70231000        -2.90605000        +5.06094000
H        +0.39472000        -1.64378000        +5.16583000
H        +0.37198000        +0.77337000        +5.37066000
$end

$rem
JOBTYPE                   SP
METHOD                    B3LYP
DFT_D                     d3_op
BASIS                     6-311++G(d,p)
SYMMETRY                  False
THRESH                    12
SCF_CONVERGENCE           8
MAX_SUB_FILE_NUM          128
MEM_STATIC                400
MEM_TOTAL                 4000
$end
--------------------------------------------------------------

             Standard Nuclear Orientation (Angstroms)
    I     Atom           X                Y                Z
 ----------------------------------------------------------------
    1      C       2.6464836032    -1.2309517149     1.1901483443
    2      C       2.6486718204     0.1765781138     1.2185257723
    3      C       2.6487396765    -1.9304980864    -0.0295198279
    4      C       2.6476480881    -1.1767351781    -1.2044181715
    5      C       2.6477694933     0.2115689575    -1.1775758051
    6      C       2.6462984680     0.9206199451     0.0251270681
    7      H       2.6526279307     0.7619144736    -2.1123404194
    8      H       2.6433909517    -1.6918466606    -2.1592804761
    9      C       2.6592796599     2.4301305815     0.0011865579
   10      H       3.4648295454     2.8388255777     0.6164216989
   11      H       1.7255710225     2.8393330145     0.3913665329
   12      H       2.7978801038     2.7885163630    -1.0203796914
   13      H       2.6511117964    -2.9621764276    -0.0551462883
   14      H       2.6431712104    -1.7571958232     2.0778846482
   15      H       2.6520537260     0.6682328715     2.1258774283
   16      C      -2.6535156425    -1.2265468789     1.1899384619
   17      C      -2.6513274253     0.1809829498     1.2183158899
   18      C      -2.6512595692    -1.9260932504    -0.0297297104
   19      C      -2.6523511576    -1.1723303421    -1.2046280540
   20      C      -2.6522297525     0.2159737935    -1.1777856875
   21      C      -2.6537007777     0.9250247811     0.0249171856
   22      H      -2.6473713150     0.7663193096    -2.1125503019
   23      H      -2.6566082941    -1.6874418246    -2.1594903586
   24      C      -2.6407195859     2.4345354175     0.0009766754
   25      H      -1.8351697003     2.8432304137     0.6162118164
   26      H      -3.5744282232     2.8437378505     0.3911566504
   27      H      -2.5021191419     2.7929211991    -1.0205895738
   28      H      -2.6488874494    -2.9577715916    -0.0553561707
   29      H      -2.6568280353    -1.7527909872     2.0776747657
   30      H      -2.6479455197     0.6726377075     2.1256675458
 ----------------------------------------------------------------

   13    -543.2877595974      5.23E-09 Convergence criterion met
 Total energy in the final basis set = -543.28775960

                    Orbital Energies (a.u.)
 --------------------------------------------------------------

 Alpha MOs
 -- Occupied --
-10.182 -10.182 -10.171 -10.171 -10.169 -10.169 -10.168 -10.168
-10.168 -10.168 -10.166 -10.166 -10.166 -10.166  -0.855  -0.855
 -0.773  -0.773  -0.744  -0.744  -0.689  -0.689  -0.608  -0.608
 -0.588  -0.588  -0.518  -0.518  -0.462  -0.462  -0.460  -0.460
 -0.423  -0.421  -0.420  -0.420  -0.415  -0.415  -0.388  -0.388
 -0.355  -0.353  -0.348  -0.348  -0.340  -0.339  -0.252  -0.250
 -0.245  -0.243

          Ground-State Mulliken Net Atomic Charges

     Atom                 Charge (a.u.)
  ----------------------------------------
      1 C                    -0.053495
      2 C                    -0.423304
      3 C                    -0.320477
      4 C                    -0.099487
      5 C                    -0.645804
      6 C                     0.953065
      7 H                     0.142275
      8 H                     0.167201
      9 C                    -0.633697
     10 H                     0.146170
     11 H                     0.153928
     12 H                     0.145012
     13 H                     0.148524
     14 H                     0.157270
     15 H                     0.162394
     16 C                    -0.111790
     17 C                    -0.379704
     18 C                    -0.300331
     19 C                    -0.165560
     20 C                    -0.524304
     21 C                     0.894711
     22 H                     0.142949
     23 H                     0.168455
     24 C                    -0.644482
     25 H                     0.148116
     26 H                     0.157816
     27 H                     0.145171
     28 H                     0.148638
     29 H                     0.158691
     30 H                     0.162045
  ----------------------------------------
  Sum of atomic charges =     0.000000

                    Cartesian Multipole Moments
 -----------------------------------------------------------------
    Charge (ESU x 10^10)
                 0.0000
    Dipole Moment (Debye)
         X      -0.0072      Y       0.6657      Z       0.1320
       Tot       0.6787
    Quadrupole Moments (Debye-Ang)
        XX     -93.9177     XY       0.0405     YY     -77.1274
        XZ      -0.0304     YZ       0.0592     ZZ     -78.3946

 Total job time:  83.85s(wall), 334.31s(cpu)
        *  Thank you very much for using Q-Chem.  Have a nice day.  *
