 Q-Chem 5.0, Q-Chem, Inc., Pleasanton, CA (2017)
 Q-Chem 5.0.1 for Intel X86 EM64T Linux

User input:
--------------------------------------------------------------
$molecule
0  1
C        -0.55335000        -0.66344000        -0.04955000
C        -0.58369000        +0.72363000        +0.07143000
C        -1.74416000        -1.38805000        -0.12104000
C        -2.96100000        -0.71253000        -0.06974000
C        -2.98560000        +0.67733000        +0.05133000
C        -1.80096000        +1.41593000        +0.12202000
H        -3.93869000        +1.19496000        +0.09042000
H        -3.89285000        -1.26490000        -0.12448000
C        -1.82561000        +2.92062000        +0.24749000
H        -1.30124000        +3.39464000        -0.58804000
H        -1.33421000        +3.24931000        +1.16844000
H        -2.84892000        +3.30103000        +0.25949000
H        -1.72216000        -2.46788000        -0.21620000
H        +0.39889000        -1.18111000        -0.08841000
H        +0.34820000        +1.27792000        +0.12648000
@C        -0.58049000        -1.01999000        +4.03483000
@C        -0.61083000        +0.36708000        +4.15581000
@C        -1.77130000        -1.74460000        +3.96334000
@C        -2.98814000        -1.06908000        +4.01464000
@C        -3.01274000        +0.32078000        +4.13571000
@C        -1.82810000        +1.05938000        +4.20640000
@H        -3.96583000        +0.83841000        +4.17480000
@H        -3.91999000        -1.62145000        +3.95990000
@C        -1.85275000        +2.56407000        +4.33187000
@H        -1.32838000        +3.03809000        +3.49634000
@H        -1.36135000        +2.89276000        +5.25282000
@H        -2.87606000        +2.94448000        +4.34387000
@H        -1.74930000        -2.82443000        +3.86818000
@H        +0.37175000        -1.53766000        +3.99597000
@H        +0.32106000        +0.92137000        +4.21086000
$end

$rem
JOBTYPE                   SP
METHOD                    B3LYP
DFT_D                     d3_op
BASIS                     6-311++G(d,p)
SYMMETRY                  False
THRESH                    12
SCF_CONVERGENCE           8
MAX_SUB_FILE_NUM          128
MEM_STATIC                400
MEM_TOTAL                 4000
$end
--------------------------------------------------------------

             Standard Nuclear Orientation (Angstroms)
    I     Atom           X                Y                Z
 ----------------------------------------------------------------
    1      C      -0.5533500000    -0.6634400000    -0.0495500000
    2      C      -0.5836900000     0.7236300000     0.0714300000
    3      C      -1.7441600000    -1.3880500000    -0.1210400000
    4      C      -2.9610000000    -0.7125300000    -0.0697400000
    5      C      -2.9856000000     0.6773300000     0.0513300000
    6      C      -1.8009600000     1.4159300000     0.1220200000
    7      H      -3.9386900000     1.1949600000     0.0904200000
    8      H      -3.8928500000    -1.2649000000    -0.1244800000
    9      C      -1.8256100000     2.9206200000     0.2474900000
   10      H      -1.3012400000     3.3946400000    -0.5880400000
   11      H      -1.3342100000     3.2493100000     1.1684400000
   12      H      -2.8489200000     3.3010300000     0.2594900000
   13      H      -1.7221600000    -2.4678800000    -0.2162000000
   14      H       0.3988900000    -1.1811100000    -0.0884100000
   15      H       0.3482000000     1.2779200000     0.1264800000
   16      GH     -0.5804900000    -1.0199900000     4.0348300000
   17      GH     -0.6108300000     0.3670800000     4.1558100000
   18      GH     -1.7713000000    -1.7446000000     3.9633400000
   19      GH     -2.9881400000    -1.0690800000     4.0146400000
   20      GH     -3.0127400000     0.3207800000     4.1357100000
   21      GH     -1.8281000000     1.0593800000     4.2064000000
   22      GH     -3.9658300000     0.8384100000     4.1748000000
   23      GH     -3.9199900000    -1.6214500000     3.9599000000
   24      GH     -1.8527500000     2.5640700000     4.3318700000
   25      GH     -1.3283800000     3.0380900000     3.4963400000
   26      GH     -1.3613500000     2.8927600000     5.2528200000
   27      GH     -2.8760600000     2.9444800000     4.3438700000
   28      GH     -1.7493000000    -2.8244300000     3.8681800000
   29      GH      0.3717500000    -1.5376600000     3.9959700000
   30      GH      0.3210600000     0.9213700000     4.2108600000
 ----------------------------------------------------------------

   13    -271.6505134981      9.00E-10 Convergence criterion met
 Total energy in the final basis set = -271.65051350

                    Orbital Energies (a.u.)
 --------------------------------------------------------------

 Alpha MOs
 -- Occupied --
-10.185 -10.176 -10.175 -10.173 -10.173 -10.173 -10.170  -0.860
 -0.775  -0.748  -0.689  -0.608  -0.587  -0.515  -0.464  -0.457
 -0.424  -0.423  -0.412  -0.389  -0.359  -0.346  -0.343  -0.257
 -0.248

          Ground-State Mulliken Net Atomic Charges

     Atom                 Charge (a.u.)
  ----------------------------------------
      1 C                    -0.207821
      2 C                    -0.195515
      3 C                    -0.309592
      4 C                    -0.263820
      5 C                    -0.221123
      6 C                     0.611428
      7 H                     0.160866
      8 H                     0.173536
      9 C                    -0.721579
     10 H                     0.154484
     11 H                     0.168379
     12 H                     0.140027
     13 H                     0.153764
     14 H                     0.169209
     15 H                     0.180326
     16 GH                   -0.017328
     17 GH                    0.017538
     18 GH                    0.010947
     19 GH                   -0.009758
     20 GH                   -0.013486
     21 GH                   -0.006859
     22 GH                    0.003225
     23 GH                    0.002751
     24 GH                    0.015615
     25 GH                   -0.007579
     26 GH                   -0.000283
     27 GH                    0.001964
     28 GH                    0.003491
     29 GH                    0.003278
     30 GH                    0.003915
  ----------------------------------------
  Sum of atomic charges =     0.000000

                    Cartesian Multipole Moments
 -----------------------------------------------------------------
    Charge (ESU x 10^10)
                 0.0000
    Dipole Moment (Debye)
         X       0.0352      Y       0.4010      Z       0.0399
       Tot       0.4045
    Quadrupole Moments (Debye-Ang)
        XX     -39.2715     XY      -0.6414     YY     -38.4241
        XZ      -0.0166     YZ       0.7061     ZZ     -46.4655

 Total job time:  100.76s(wall), 398.80s(cpu)
        *  Thank you very much for using Q-Chem.  Have a nice day.  *
