 Q-Chem 5.0, Q-Chem, Inc., Pleasanton, CA (2017)
 Q-Chem 5.0.1 for Intel X86 EM64T Linux

User input:
--------------------------------------------------------------
$molecule
0  1
C        -0.72558000        -1.06264000        +5.21644000
C        -0.73823000        +0.33984000        +5.33826000
C        -1.92434000        -1.79510000        +5.15781000
C        -3.12066000        -1.07950000        +5.23048000
C        -3.13427000        +0.30361000        +5.35267000
C        -1.95275000        +1.04510000        +5.41143000
H        -4.08468000        +0.82431000        +5.40043000
H        -4.06006000        -1.62105000        +5.19345000
C        -2.02074000        +2.54852000        +5.53172000
H        -1.42328000        +3.04458000        +4.76268000
H        -1.63617000        +2.88533000        +6.49617000
H        -3.05325000        +2.88729000        +5.42971000
H        -1.91992000        -2.82287000        +5.06458000
H        +0.17711000        -1.56060000        +5.16947000
H        +0.15437000        +0.85655000        +5.37430000
@C        -0.54444000        -0.68370000        -0.06689000
@C        -0.55709000        +0.71878000        +0.05493000
@C        -1.74320000        -1.41616000        -0.12552000
@C        -2.93952000        -0.70056000        -0.05285000
@C        -2.95313000        +0.68255000        +0.06934000
@C        -1.77161000        +1.42404000        +0.12810000
@H        -3.90354000        +1.20325000        +0.11710000
@H        -3.87892000        -1.24211000        -0.08988000
@C        -1.83960000        +2.92746000        +0.24839000
@H        -1.24214000        +3.42352000        -0.52065000
@H        -1.45503000        +3.26427000        +1.21284000
@H        -2.87211000        +3.26623000        +0.14638000
@H        -1.73878000        -2.44393000        -0.21875000
@H        +0.35825000        -1.18166000        -0.11386000
@H        +0.33551000        +1.23549000        +0.09097000
$end

$rem
JOBTYPE                   SP
METHOD                    B3LYP
DFT_D                     d3_op
BASIS                     6-311++G(d,p)
SYMMETRY                  False
THRESH                    12
SCF_CONVERGENCE           8
MAX_SUB_FILE_NUM          128
MEM_STATIC                400
MEM_TOTAL                 4000
$end
--------------------------------------------------------------

             Standard Nuclear Orientation (Angstroms)
    I     Atom           X                Y                Z
 ----------------------------------------------------------------
    1      C      -0.7255800000    -1.0626400000     5.2164400000
    2      C      -0.7382300000     0.3398400000     5.3382600000
    3      C      -1.9243400000    -1.7951000000     5.1578100000
    4      C      -3.1206600000    -1.0795000000     5.2304800000
    5      C      -3.1342700000     0.3036100000     5.3526700000
    6      C      -1.9527500000     1.0451000000     5.4114300000
    7      H      -4.0846800000     0.8243100000     5.4004300000
    8      H      -4.0600600000    -1.6210500000     5.1934500000
    9      C      -2.0207400000     2.5485200000     5.5317200000
   10      H      -1.4232800000     3.0445800000     4.7626800000
   11      H      -1.6361700000     2.8853300000     6.4961700000
   12      H      -3.0532500000     2.8872900000     5.4297100000
   13      H      -1.9199200000    -2.8228700000     5.0645800000
   14      H       0.1771100000    -1.5606000000     5.1694700000
   15      H       0.1543700000     0.8565500000     5.3743000000
   16      GH     -0.5444400000    -0.6837000000    -0.0668900000
   17      GH     -0.5570900000     0.7187800000     0.0549300000
   18      GH     -1.7432000000    -1.4161600000    -0.1255200000
   19      GH     -2.9395200000    -0.7005600000    -0.0528500000
   20      GH     -2.9531300000     0.6825500000     0.0693400000
   21      GH     -1.7716100000     1.4240400000     0.1281000000
   22      GH     -3.9035400000     1.2032500000     0.1171000000
   23      GH     -3.8789200000    -1.2421100000    -0.0898800000
   24      GH     -1.8396000000     2.9274600000     0.2483900000
   25      GH     -1.2421400000     3.4235200000    -0.5206500000
   26      GH     -1.4550300000     3.2642700000     1.2128400000
   27      GH     -2.8721100000     3.2662300000     0.1463800000
   28      GH     -1.7387800000    -2.4439300000    -0.2187500000
   29      GH      0.3582500000    -1.1816600000    -0.1138600000
   30      GH      0.3355100000     1.2354900000     0.0909700000
 ----------------------------------------------------------------

   12    -271.6437255371      9.65E-09 Convergence criterion met
 Total energy in the final basis set = -271.64372554

                    Orbital Energies (a.u.)
 --------------------------------------------------------------

 Alpha MOs
 -- Occupied --
-10.185 -10.174 -10.172 -10.171 -10.170 -10.169 -10.169  -0.858
 -0.776  -0.747  -0.691  -0.611  -0.591  -0.521  -0.465  -0.462
 -0.424  -0.423  -0.418  -0.390  -0.358  -0.350  -0.342  -0.255
 -0.247

          Ground-State Mulliken Net Atomic Charges

     Atom                 Charge (a.u.)
  ----------------------------------------
      1 C                    -0.110405
      2 C                    -0.374500
      3 C                    -0.314600
      4 C                    -0.155541
      5 C                    -0.530748
      6 C                     0.884829
      7 H                     0.145436
      8 H                     0.171948
      9 C                    -0.640384
     10 H                     0.152125
     11 H                     0.158713
     12 H                     0.146313
     13 H                     0.149891
     14 H                     0.161120
     15 H                     0.164853
     16 GH                   -0.011337
     17 GH                    0.010117
     18 GH                    0.012451
     19 GH                   -0.010026
     20 GH                   -0.006472
     21 GH                   -0.006096
     22 GH                   -0.000887
     23 GH                   -0.000357
     24 GH                    0.005064
     25 GH                   -0.000229
     26 GH                   -0.001729
     27 GH                    0.000649
     28 GH                    0.001127
     29 GH                   -0.000930
     30 GH                   -0.000395
  ----------------------------------------
  Sum of atomic charges =     0.000000

                    Cartesian Multipole Moments
 -----------------------------------------------------------------
    Charge (ESU x 10^10)
                 0.0000
    Dipole Moment (Debye)
         X       0.0621      Y       0.3868      Z       0.0343
       Tot       0.3933
    Quadrupole Moments (Debye-Ang)
        XX     -39.3784     XY      -0.7230     YY     -38.3661
        XZ       0.2344     YZ       2.7591     ZZ     -46.0552

 Total job time:  76.26s(wall), 303.23s(cpu)
        *  Thank you very much for using Q-Chem.  Have a nice day.  *
