 Q-Chem 5.0, Q-Chem, Inc., Pleasanton, CA (2017)
 Q-Chem 5.0.1 for Intel X86 EM64T Linux

User input:
--------------------------------------------------------------
$molecule
0  1
--
0  1
C        -0.54444000        -0.68370000        -0.06689000
C        -0.55709000        +0.71878000        +0.05493000
C        -1.74320000        -1.41616000        -0.12552000
C        -2.93952000        -0.70056000        -0.05285000
C        -2.95313000        +0.68255000        +0.06934000
C        -1.77161000        +1.42404000        +0.12810000
H        -3.90354000        +1.20325000        +0.11710000
H        -3.87892000        -1.24211000        -0.08988000
C        -1.83960000        +2.92746000        +0.24839000
H        -1.24214000        +3.42352000        -0.52065000
H        -1.45503000        +3.26427000        +1.21284000
H        -2.87211000        +3.26623000        +0.14638000
H        -1.73878000        -2.44393000        -0.21875000
H        +0.35825000        -1.18166000        -0.11386000
H        +0.33551000        +1.23549000        +0.09097000
--
0  1
C        -0.51623000        -1.04119000        +4.01740000
C        -0.52888000        +0.36129000        +4.13922000
C        -1.71499000        -1.77365000        +3.95877000
C        -2.91131000        -1.05805000        +4.03144000
C        -2.92492000        +0.32506000        +4.15363000
C        -1.74340000        +1.06655000        +4.21239000
H        -3.87533000        +0.84576000        +4.20139000
H        -3.85071000        -1.59960000        +3.99441000
C        -1.81139000        +2.56997000        +4.33268000
H        -1.21393000        +3.06603000        +3.56364000
H        -1.42682000        +2.90678000        +5.29713000
H        -2.84390000        +2.90874000        +4.23067000
H        -1.71057000        -2.80142000        +3.86554000
H        +0.38646000        -1.53915000        +3.97043000
H        +0.36372000        +0.87800000        +4.17526000
$end

$rem
JOBTYPE                   SP
METHOD                    B3LYP
DFT_D                     d3_op
BASIS                     6-311++G(d,p)
SYMMETRY                  False
THRESH                    12
SCF_CONVERGENCE           8
MAX_SUB_FILE_NUM          128
MEM_STATIC                400
MEM_TOTAL                 4000
$end
--------------------------------------------------------------

             Standard Nuclear Orientation (Angstroms)
    I     Atom           X                Y                Z
 ----------------------------------------------------------------
    1      C       2.0448615840    -1.2330794731     1.1901967662
    2      C       2.0488563066     0.1744463899     1.2185740880
    3      C       2.0462614567    -1.9326283766    -0.0294712370
    4      C       2.0461783995    -1.1788648919    -1.2043697149
    5      C       2.0480816760     0.2094379478    -1.1775275236
    6      C       2.0474796421     0.9184904485     0.0251752064
    7      H       2.0536791258     0.7597766089    -2.1122920407
    8      H       2.0412927645    -1.6939706486    -2.1592320995
    9      C       2.0624000967     2.4279831661     0.0012349496
   10      H       2.8684528952     2.8356434807     0.6164978615
   11      H       1.1292042325     2.8383843567     0.3913826208
   12      H       2.2014959347     2.7861904904    -1.0203265580
   13      H       2.0473096242    -2.9643089178    -0.0550974821
   14      H       2.0408427519    -1.7593187398     2.0779330231
   15      H       2.0528382305     0.6660965568     2.1259257968
   16      C      -2.0551316371    -1.2244076512     1.1898901130
   17      C      -2.0511369145     0.1831182119     1.2182674348
   18      C      -2.0537317645    -1.9239565547    -0.0297778902
   19      C      -2.0538148217    -1.1701930699    -1.2046763681
   20      C      -2.0519115452     0.2181097697    -1.1778341769
   21      C      -2.0525135791     0.9271622704     0.0248685532
   22      H      -2.0463140954     0.7684484308    -2.1125986939
   23      H      -2.0587004567    -1.6852988266    -2.1595387527
   24      C      -2.0375931244     2.4366549881     0.0009282964
   25      H      -1.2315403260     2.8443153026     0.6161912083
   26      H      -2.9707889886     2.8470561787     0.3910759676
   27      H      -1.8984972865     2.7948623124    -1.0206332112
   28      H      -2.0526835970    -2.9556370959    -0.0554041353
   29      H      -2.0591504692    -1.7506469179     2.0776263699
   30      H      -2.0471549907     0.6747683788     2.1256191435
 ----------------------------------------------------------------

   13    -543.2898333123      5.93E-09 Convergence criterion met
 Total energy in the final basis set = -543.28983331

                    Orbital Energies (a.u.)
 --------------------------------------------------------------

 Alpha MOs
 -- Occupied --
-10.181 -10.181 -10.169 -10.169 -10.168 -10.167 -10.167 -10.167
-10.166 -10.166 -10.165 -10.165 -10.165 -10.164  -0.854  -0.853
 -0.773  -0.771  -0.743  -0.742  -0.689  -0.687  -0.607  -0.606
 -0.587  -0.586  -0.517  -0.516  -0.462  -0.461  -0.459  -0.458
 -0.429  -0.419  -0.418  -0.415  -0.414  -0.413  -0.388  -0.387
 -0.359  -0.347  -0.346  -0.346  -0.339  -0.338  -0.255  -0.248
 -0.244  -0.237

          Ground-State Mulliken Net Atomic Charges

     Atom                 Charge (a.u.)
  ----------------------------------------
      1 C                    -0.169237
      2 C                    -0.325454
      3 C                    -0.249690
      4 C                    -0.309347
      5 C                    -0.225498
      6 C                     0.721040
      7 H                     0.156806
      8 H                     0.163102
      9 C                    -0.687690
     10 H                     0.148980
     11 H                     0.159860
     12 H                     0.141510
     13 H                     0.146639
     14 H                     0.158874
     15 H                     0.164796
     16 C                    -0.257465
     17 C                    -0.121140
     18 C                    -0.294154
     19 C                    -0.232318
     20 C                    -0.282691
     21 C                     0.621538
     22 H                     0.152780
     23 H                     0.172344
     24 C                    -0.659980
     25 H                     0.134081
     26 H                     0.158444
     27 H                     0.136779
     28 H                     0.143502
     29 H                     0.160392
     30 H                     0.173192
  ----------------------------------------
  Sum of atomic charges =     0.000000

                    Cartesian Multipole Moments
 -----------------------------------------------------------------
    Charge (ESU x 10^10)
                 0.0000
    Dipole Moment (Debye)
         X      -0.0139      Y       0.5864      Z       0.1162
       Tot       0.5980
    Quadrupole Moments (Debye-Ang)
        XX     -94.2486     XY       0.0489     YY     -77.5515
        XZ      -0.0313     YZ       0.0184     ZZ     -78.6282

 Total job time:  100.76s(wall), 401.71s(cpu)
        *  Thank you very much for using Q-Chem.  Have a nice day.  *
