 Q-Chem 5.0, Q-Chem, Inc., Pleasanton, CA (2017)
 Q-Chem 5.0.1 for Intel X86 EM64T Linux

User input:
--------------------------------------------------------------
$molecule
0  1
C        -0.54444000        -0.68370000        -0.06689000
C        -0.55709000        +0.71878000        +0.05493000
C        -1.74320000        -1.41616000        -0.12552000
C        -2.93952000        -0.70056000        -0.05285000
C        -2.95313000        +0.68255000        +0.06934000
C        -1.77161000        +1.42404000        +0.12810000
H        -3.90354000        +1.20325000        +0.11710000
H        -3.87892000        -1.24211000        -0.08988000
C        -1.83960000        +2.92746000        +0.24839000
H        -1.24214000        +3.42352000        -0.52065000
H        -1.45503000        +3.26427000        +1.21284000
H        -2.87211000        +3.26623000        +0.14638000
H        -1.73878000        -2.44393000        -0.21875000
H        +0.35825000        -1.18166000        -0.11386000
H        +0.33551000        +1.23549000        +0.09097000
@C        -0.68457000        -0.97684000        +4.02022000
@C        -0.69722000        +0.42564000        +4.14204000
@C        -1.88333000        -1.70930000        +3.96159000
@C        -3.07965000        -0.99370000        +4.03426000
@C        -3.09326000        +0.38941000        +4.15645000
@C        -1.91174000        +1.13090000        +4.21521000
@H        -4.04367000        +0.91011000        +4.20421000
@H        -4.01905000        -1.53525000        +3.99723000
@C        -1.97973000        +2.63432000        +4.33550000
@H        -1.38227000        +3.13038000        +3.56646000
@H        -1.59516000        +2.97113000        +5.29995000
@H        -3.01224000        +2.97309000        +4.23349000
@H        -1.87891000        -2.73707000        +3.86836000
@H        +0.21812000        -1.47480000        +3.97325000
@H        +0.19538000        +0.94235000        +4.17808000
$end

$rem
JOBTYPE                   SP
METHOD                    B3LYP
DFT_D                     d3_op
BASIS                     6-311++G(d,p)
SYMMETRY                  False
THRESH                    12
SCF_CONVERGENCE           8
MAX_SUB_FILE_NUM          128
MEM_STATIC                400
MEM_TOTAL                 4000
$end
--------------------------------------------------------------

             Standard Nuclear Orientation (Angstroms)
    I     Atom           X                Y                Z
 ----------------------------------------------------------------
    1      C      -0.5444400000    -0.6837000000    -0.0668900000
    2      C      -0.5570900000     0.7187800000     0.0549300000
    3      C      -1.7432000000    -1.4161600000    -0.1255200000
    4      C      -2.9395200000    -0.7005600000    -0.0528500000
    5      C      -2.9531300000     0.6825500000     0.0693400000
    6      C      -1.7716100000     1.4240400000     0.1281000000
    7      H      -3.9035400000     1.2032500000     0.1171000000
    8      H      -3.8789200000    -1.2421100000    -0.0898800000
    9      C      -1.8396000000     2.9274600000     0.2483900000
   10      H      -1.2421400000     3.4235200000    -0.5206500000
   11      H      -1.4550300000     3.2642700000     1.2128400000
   12      H      -2.8721100000     3.2662300000     0.1463800000
   13      H      -1.7387800000    -2.4439300000    -0.2187500000
   14      H       0.3582500000    -1.1816600000    -0.1138600000
   15      H       0.3355100000     1.2354900000     0.0909700000
   16      GH     -0.6845700000    -0.9768400000     4.0202200000
   17      GH     -0.6972200000     0.4256400000     4.1420400000
   18      GH     -1.8833300000    -1.7093000000     3.9615900000
   19      GH     -3.0796500000    -0.9937000000     4.0342600000
   20      GH     -3.0932600000     0.3894100000     4.1564500000
   21      GH     -1.9117400000     1.1309000000     4.2152100000
   22      GH     -4.0436700000     0.9101100000     4.2042100000
   23      GH     -4.0190500000    -1.5352500000     3.9972300000
   24      GH     -1.9797300000     2.6343200000     4.3355000000
   25      GH     -1.3822700000     3.1303800000     3.5664600000
   26      GH     -1.5951600000     2.9711300000     5.2999500000
   27      GH     -3.0122400000     2.9730900000     4.2334900000
   28      GH     -1.8789100000    -2.7370700000     3.8683600000
   29      GH      0.2181200000    -1.4748000000     3.9732500000
   30      GH      0.1953800000     0.9423500000     4.1780800000
 ----------------------------------------------------------------

   13    -271.6437312806      1.51E-09 Convergence criterion met
 Total energy in the final basis set = -271.64373128

                    Orbital Energies (a.u.)
 --------------------------------------------------------------

 Alpha MOs
 -- Occupied --
-10.185 -10.174 -10.172 -10.171 -10.170 -10.169 -10.169  -0.858
 -0.776  -0.747  -0.691  -0.611  -0.591  -0.521  -0.465  -0.462
 -0.424  -0.423  -0.418  -0.390  -0.358  -0.350  -0.342  -0.255
 -0.247

          Ground-State Mulliken Net Atomic Charges

     Atom                 Charge (a.u.)
  ----------------------------------------
      1 C                    -0.198778
      2 C                    -0.233442
      3 C                    -0.281330
      4 C                    -0.260032
      5 C                    -0.252106
      6 C                     0.669160
      7 H                     0.156408
      8 H                     0.168452
      9 C                    -0.725888
     10 H                     0.150034
     11 H                     0.171209
     12 H                     0.141903
     13 H                     0.147830
     14 H                     0.161440
     15 H                     0.171062
     16 GH                    0.000208
     17 GH                    0.017895
     18 GH                    0.015759
     19 GH                   -0.021381
     20 GH                   -0.028141
     21 GH                   -0.009242
     22 GH                    0.001295
     23 GH                    0.003314
     24 GH                    0.024145
     25 GH                   -0.004633
     26 GH                   -0.000461
     27 GH                    0.001172
     28 GH                    0.002962
     29 GH                    0.004958
     30 GH                    0.006230
  ----------------------------------------
  Sum of atomic charges =     0.000000

                    Cartesian Multipole Moments
 -----------------------------------------------------------------
    Charge (ESU x 10^10)
                 0.0000
    Dipole Moment (Debye)
         X       0.0586      Y       0.3894      Z       0.0430
       Tot       0.3961
    Quadrupole Moments (Debye-Ang)
        XX     -39.3884     XY      -0.6316     YY     -38.1135
        XZ      -0.1088     YZ       0.7199     ZZ     -46.3712

 Total job time:  95.52s(wall), 380.07s(cpu)
        *  Thank you very much for using Q-Chem.  Have a nice day.  *
