 Q-Chem 5.0, Q-Chem, Inc., Pleasanton, CA (2017)
 Q-Chem 5.0.1 for Intel X86 EM64T Linux

User input:
--------------------------------------------------------------
$molecule
0  1
--
0  1
C        -0.54444000        -0.68370000        -0.06689000
C        -0.55709000        +0.71878000        +0.05493000
C        -1.74320000        -1.41616000        -0.12552000
C        -2.93952000        -0.70056000        -0.05285000
C        -2.95313000        +0.68255000        +0.06934000
C        -1.77161000        +1.42404000        +0.12810000
H        -3.90354000        +1.20325000        +0.11710000
H        -3.87892000        -1.24211000        -0.08988000
C        -1.83960000        +2.92746000        +0.24839000
H        -1.24214000        +3.42352000        -0.52065000
H        -1.45503000        +3.26427000        +1.21284000
H        -2.87211000        +3.26623000        +0.14638000
H        -1.73878000        -2.44393000        -0.21875000
H        +0.35825000        -1.18166000        -0.11386000
H        +0.33551000        +1.23549000        +0.09097000
--
0  1
C        -0.72558000        -1.06264000        +5.21644000
C        -0.73823000        +0.33984000        +5.33826000
C        -1.92434000        -1.79510000        +5.15781000
C        -3.12066000        -1.07950000        +5.23048000
C        -3.13427000        +0.30361000        +5.35267000
C        -1.95275000        +1.04510000        +5.41143000
H        -4.08468000        +0.82431000        +5.40043000
H        -4.06006000        -1.62105000        +5.19345000
C        -2.02074000        +2.54852000        +5.53172000
H        -1.42328000        +3.04458000        +4.76268000
H        -1.63617000        +2.88533000        +6.49617000
H        -3.05325000        +2.88729000        +5.42971000
H        -1.91992000        -2.82287000        +5.06458000
H        +0.17711000        -1.56060000        +5.16947000
H        +0.15437000        +0.85655000        +5.37430000
$end

$rem
JOBTYPE                   SP
METHOD                    B3LYP
DFT_D                     d3_op
BASIS                     6-311++G(d,p)
SYMMETRY                  False
THRESH                    12
SCF_CONVERGENCE           8
MAX_SUB_FILE_NUM          128
MEM_STATIC                400
MEM_TOTAL                 4000
$end
--------------------------------------------------------------

             Standard Nuclear Orientation (Angstroms)
    I     Atom           X                Y                Z
 ----------------------------------------------------------------
    1      C       2.7344191785    -1.2058110354     1.1706568364
    2      C       2.7020571938     0.2013638076     1.1982602466
    3      C       2.6963643266    -1.9071077743    -0.0474135139
    4      C       2.6200336142    -1.1555786760    -1.2212633630
    5      C       2.5860250176     0.2323215580    -1.1950859662
    6      C       2.6238124948     0.9431114908     0.0059966480
    7      H       2.5322727504     0.7810516665    -2.1292672320
    8      H       2.5833960748    -1.6722244176    -2.1746021547
    9      C       2.5971322529     2.4524213789    -0.0192193555
   10      H       3.4204121932     2.8825153936     0.5567023190
   11      H       1.6729551250     2.8383742358     0.4148726762
   12      H       2.6776839659     2.8125137666    -1.0463965296
   13      H       2.7238248021    -2.9384327667    -0.0726568181
   14      H       2.7868583426    -1.7304867080     2.0577786721
   15      H       2.7361539008     0.6944588906     2.1041948576
   16      C      -2.5652856865    -1.2470948178     1.2081682370
   17      C      -2.5976476712     0.1600800253     1.2357716472
   18      C      -2.6033405384    -1.9483915566    -0.0099021133
   19      C      -2.6796712508    -1.1968624583    -1.1837519624
   20      C      -2.7136798474     0.1910377757    -1.1575745656
   21      C      -2.6758923702     0.9018277084     0.0435080486
   22      H      -2.7674321147     0.7397678842    -2.0917558315
   23      H      -2.7163087902    -1.7135081999    -2.1370907541
   24      C      -2.7025726121     2.4111375966     0.0182920450
   25      H      -1.8792926718     2.8412316112     0.5942137196
   26      H      -3.6267497401     2.7970904534     0.4523840768
   27      H      -2.6220208991     2.7712299842    -1.0088851290
   28      H      -2.5758800629    -2.9797165491    -0.0351454175
   29      H      -2.5128465224    -1.7717704903     2.0952900727
   30      H      -2.5635509642     0.6531751083     2.1417062582
 ----------------------------------------------------------------

   13    -543.2877610978      5.94E-09 Convergence criterion met
 Total energy in the final basis set = -543.28776110

                    Orbital Energies (a.u.)
 --------------------------------------------------------------

 Alpha MOs
 -- Occupied --
-10.182 -10.182 -10.171 -10.171 -10.169 -10.169 -10.168 -10.168
-10.168 -10.168 -10.166 -10.166 -10.166 -10.166  -0.855  -0.855
 -0.773  -0.773  -0.744  -0.744  -0.689  -0.689  -0.608  -0.608
 -0.588  -0.588  -0.518  -0.518  -0.462  -0.462  -0.460  -0.460
 -0.423  -0.421  -0.420  -0.420  -0.415  -0.415  -0.388  -0.388
 -0.355  -0.353  -0.348  -0.348  -0.340  -0.339  -0.252  -0.250
 -0.245  -0.243

          Ground-State Mulliken Net Atomic Charges

     Atom                 Charge (a.u.)
  ----------------------------------------
      1 C                    -0.049445
      2 C                    -0.427535
      3 C                    -0.326747
      4 C                    -0.094386
      5 C                    -0.648047
      6 C                     0.964958
      7 H                     0.141573
      8 H                     0.167363
      9 C                    -0.641636
     10 H                     0.145852
     11 H                     0.153528
     12 H                     0.145216
     13 H                     0.148412
     14 H                     0.157607
     15 H                     0.162471
     16 C                    -0.113254
     17 C                    -0.363577
     18 C                    -0.298382
     19 C                    -0.167210
     20 C                    -0.537653
     21 C                     0.890833
     22 H                     0.142536
     23 H                     0.169011
     24 C                    -0.642576
     25 H                     0.148260
     26 H                     0.157898
     27 H                     0.145845
     28 H                     0.148672
     29 H                     0.158262
     30 H                     0.162150
  ----------------------------------------
  Sum of atomic charges =     0.000000

                    Cartesian Multipole Moments
 -----------------------------------------------------------------
    Charge (ESU x 10^10)
                 0.0000
    Dipole Moment (Debye)
         X      -0.0198      Y       0.6660      Z       0.1312
       Tot       0.6790
    Quadrupole Moments (Debye-Ang)
        XX     -93.8766     XY      -0.3603     YY     -77.1348
        XZ       0.6396     YZ       0.0730     ZZ     -78.4265

 Total job time:  84.29s(wall), 335.40s(cpu)
        *  Thank you very much for using Q-Chem.  Have a nice day.  *
