 Q-Chem 5.0, Q-Chem, Inc., Pleasanton, CA (2017)
 Q-Chem 5.0.1 for Intel X86 EM64T Linux

User input:
--------------------------------------------------------------
$molecule
0  1
C        -0.50797000        -1.14582000        +5.21280000
C        -0.52062000        +0.25666000        +5.33462000
C        -1.70673000        -1.87828000        +5.15417000
C        -2.90305000        -1.16268000        +5.22684000
C        -2.91666000        +0.22043000        +5.34903000
C        -1.73514000        +0.96192000        +5.40779000
H        -3.86707000        +0.74113000        +5.39679000
H        -3.84245000        -1.70423000        +5.18981000
C        -1.80313000        +2.46534000        +5.52808000
H        -1.20567000        +2.96140000        +4.75904000
H        -1.41856000        +2.80215000        +6.49253000
H        -2.83564000        +2.80411000        +5.42607000
H        -1.70231000        -2.90605000        +5.06094000
H        +0.39472000        -1.64378000        +5.16583000
H        +0.37198000        +0.77337000        +5.37066000
@C        -0.54444000        -0.68370000        -0.06689000
@C        -0.55709000        +0.71878000        +0.05493000
@C        -1.74320000        -1.41616000        -0.12552000
@C        -2.93952000        -0.70056000        -0.05285000
@C        -2.95313000        +0.68255000        +0.06934000
@C        -1.77161000        +1.42404000        +0.12810000
@H        -3.90354000        +1.20325000        +0.11710000
@H        -3.87892000        -1.24211000        -0.08988000
@C        -1.83960000        +2.92746000        +0.24839000
@H        -1.24214000        +3.42352000        -0.52065000
@H        -1.45503000        +3.26427000        +1.21284000
@H        -2.87211000        +3.26623000        +0.14638000
@H        -1.73878000        -2.44393000        -0.21875000
@H        +0.35825000        -1.18166000        -0.11386000
@H        +0.33551000        +1.23549000        +0.09097000
$end

$rem
JOBTYPE                   SP
METHOD                    B3LYP
DFT_D                     d3_op
BASIS                     6-311++G(d,p)
SYMMETRY                  False
THRESH                    12
SCF_CONVERGENCE           8
MAX_SUB_FILE_NUM          128
MEM_STATIC                400
MEM_TOTAL                 4000
$end
--------------------------------------------------------------

             Standard Nuclear Orientation (Angstroms)
    I     Atom           X                Y                Z
 ----------------------------------------------------------------
    1      C      -0.5079700000    -1.1458200000     5.2128000000
    2      C      -0.5206200000     0.2566600000     5.3346200000
    3      C      -1.7067300000    -1.8782800000     5.1541700000
    4      C      -2.9030500000    -1.1626800000     5.2268400000
    5      C      -2.9166600000     0.2204300000     5.3490300000
    6      C      -1.7351400000     0.9619200000     5.4077900000
    7      H      -3.8670700000     0.7411300000     5.3967900000
    8      H      -3.8424500000    -1.7042300000     5.1898100000
    9      C      -1.8031300000     2.4653400000     5.5280800000
   10      H      -1.2056700000     2.9614000000     4.7590400000
   11      H      -1.4185600000     2.8021500000     6.4925300000
   12      H      -2.8356400000     2.8041100000     5.4260700000
   13      H      -1.7023100000    -2.9060500000     5.0609400000
   14      H       0.3947200000    -1.6437800000     5.1658300000
   15      H       0.3719800000     0.7733700000     5.3706600000
   16      GH     -0.5444400000    -0.6837000000    -0.0668900000
   17      GH     -0.5570900000     0.7187800000     0.0549300000
   18      GH     -1.7432000000    -1.4161600000    -0.1255200000
   19      GH     -2.9395200000    -0.7005600000    -0.0528500000
   20      GH     -2.9531300000     0.6825500000     0.0693400000
   21      GH     -1.7716100000     1.4240400000     0.1281000000
   22      GH     -3.9035400000     1.2032500000     0.1171000000
   23      GH     -3.8789200000    -1.2421100000    -0.0898800000
   24      GH     -1.8396000000     2.9274600000     0.2483900000
   25      GH     -1.2421400000     3.4235200000    -0.5206500000
   26      GH     -1.4550300000     3.2642700000     1.2128400000
   27      GH     -2.8721100000     3.2662300000     0.1463800000
   28      GH     -1.7387800000    -2.4439300000    -0.2187500000
   29      GH      0.3582500000    -1.1816600000    -0.1138600000
   30      GH      0.3355100000     1.2354900000     0.0909700000
 ----------------------------------------------------------------

   12    -271.6437207310      9.64E-09 Convergence criterion met
 Total energy in the final basis set = -271.64372073

                    Orbital Energies (a.u.)
 --------------------------------------------------------------

 Alpha MOs
 -- Occupied --
-10.185 -10.174 -10.172 -10.171 -10.170 -10.169 -10.169  -0.858
 -0.776  -0.747  -0.691  -0.611  -0.591  -0.521  -0.465  -0.462
 -0.424  -0.423  -0.418  -0.390  -0.358  -0.350  -0.342  -0.255
 -0.247

          Ground-State Mulliken Net Atomic Charges

     Atom                 Charge (a.u.)
  ----------------------------------------
      1 C                    -0.105734
      2 C                    -0.393719
      3 C                    -0.315197
      4 C                    -0.156942
      5 C                    -0.517870
      6 C                     0.888412
      7 H                     0.145869
      8 H                     0.171310
      9 C                    -0.639633
     10 H                     0.152068
     11 H                     0.158689
     12 H                     0.145392
     13 H                     0.149912
     14 H                     0.161685
     15 H                     0.164676
     16 GH                   -0.010188
     17 GH                    0.009519
     18 GH                    0.012191
     19 GH                   -0.010496
     20 GH                   -0.006601
     21 GH                   -0.006213
     22 GH                   -0.000856
     23 GH                   -0.000428
     24 GH                    0.005565
     25 GH                   -0.000210
     26 GH                   -0.001828
     27 GH                    0.000619
     28 GH                    0.001164
     29 GH                   -0.000783
     30 GH                   -0.000373
  ----------------------------------------
  Sum of atomic charges =     0.000000

                    Cartesian Multipole Moments
 -----------------------------------------------------------------
    Charge (ESU x 10^10)
                -0.0000
    Dipole Moment (Debye)
         X       0.0620      Y       0.3871      Z       0.0340
       Tot       0.3935
    Quadrupole Moments (Debye-Ang)
        XX     -39.3504     XY      -0.6440     YY     -38.4305
        XZ       0.2408     YZ       2.7559     ZZ     -46.0583

 Total job time:  75.82s(wall), 302.00s(cpu)
        *  Thank you very much for using Q-Chem.  Have a nice day.  *
