 Q-Chem 5.0, Q-Chem, Inc., Pleasanton, CA (2017)
 Q-Chem 5.0.1 for Intel X86 EM64T Linux

User input:
--------------------------------------------------------------
$molecule
0  1
C        -0.54444000        -0.68370000        -0.06689000
C        -0.55709000        +0.71878000        +0.05493000
C        -1.74320000        -1.41616000        -0.12552000
C        -2.93952000        -0.70056000        -0.05285000
C        -2.95313000        +0.68255000        +0.06934000
C        -1.77161000        +1.42404000        +0.12810000
H        -3.90354000        +1.20325000        +0.11710000
H        -3.87892000        -1.24211000        -0.08988000
C        -1.83960000        +2.92746000        +0.24839000
H        -1.24214000        +3.42352000        -0.52065000
H        -1.45503000        +3.26427000        +1.21284000
H        -2.87211000        +3.26623000        +0.14638000
H        -1.73878000        -2.44393000        -0.21875000
H        +0.35825000        -1.18166000        -0.11386000
H        +0.33551000        +1.23549000        +0.09097000
@C        -0.51623000        -1.04119000        +4.01740000
@C        -0.52888000        +0.36129000        +4.13922000
@C        -1.71499000        -1.77365000        +3.95877000
@C        -2.91131000        -1.05805000        +4.03144000
@C        -2.92492000        +0.32506000        +4.15363000
@C        -1.74340000        +1.06655000        +4.21239000
@H        -3.87533000        +0.84576000        +4.20139000
@H        -3.85071000        -1.59960000        +3.99441000
@C        -1.81139000        +2.56997000        +4.33268000
@H        -1.21393000        +3.06603000        +3.56364000
@H        -1.42682000        +2.90678000        +5.29713000
@H        -2.84390000        +2.90874000        +4.23067000
@H        -1.71057000        -2.80142000        +3.86554000
@H        +0.38646000        -1.53915000        +3.97043000
@H        +0.36372000        +0.87800000        +4.17526000
$end

$rem
JOBTYPE                   SP
METHOD                    B3LYP
DFT_D                     d3_op
BASIS                     6-311++G(d,p)
SYMMETRY                  False
THRESH                    12
SCF_CONVERGENCE           8
MAX_SUB_FILE_NUM          128
MEM_STATIC                400
MEM_TOTAL                 4000
$end
--------------------------------------------------------------

             Standard Nuclear Orientation (Angstroms)
    I     Atom           X                Y                Z
 ----------------------------------------------------------------
    1      C      -0.5444400000    -0.6837000000    -0.0668900000
    2      C      -0.5570900000     0.7187800000     0.0549300000
    3      C      -1.7432000000    -1.4161600000    -0.1255200000
    4      C      -2.9395200000    -0.7005600000    -0.0528500000
    5      C      -2.9531300000     0.6825500000     0.0693400000
    6      C      -1.7716100000     1.4240400000     0.1281000000
    7      H      -3.9035400000     1.2032500000     0.1171000000
    8      H      -3.8789200000    -1.2421100000    -0.0898800000
    9      C      -1.8396000000     2.9274600000     0.2483900000
   10      H      -1.2421400000     3.4235200000    -0.5206500000
   11      H      -1.4550300000     3.2642700000     1.2128400000
   12      H      -2.8721100000     3.2662300000     0.1463800000
   13      H      -1.7387800000    -2.4439300000    -0.2187500000
   14      H       0.3582500000    -1.1816600000    -0.1138600000
   15      H       0.3355100000     1.2354900000     0.0909700000
   16      GH     -0.5162300000    -1.0411900000     4.0174000000
   17      GH     -0.5288800000     0.3612900000     4.1392200000
   18      GH     -1.7149900000    -1.7736500000     3.9587700000
   19      GH     -2.9113100000    -1.0580500000     4.0314400000
   20      GH     -2.9249200000     0.3250600000     4.1536300000
   21      GH     -1.7434000000     1.0665500000     4.2123900000
   22      GH     -3.8753300000     0.8457600000     4.2013900000
   23      GH     -3.8507100000    -1.5996000000     3.9944100000
   24      GH     -1.8113900000     2.5699700000     4.3326800000
   25      GH     -1.2139300000     3.0660300000     3.5636400000
   26      GH     -1.4268200000     2.9067800000     5.2971300000
   27      GH     -2.8439000000     2.9087400000     4.2306700000
   28      GH     -1.7105700000    -2.8014200000     3.8655400000
   29      GH      0.3864600000    -1.5391500000     3.9704300000
   30      GH      0.3637200000     0.8780000000     4.1752600000
 ----------------------------------------------------------------

   13    -271.6437353694      1.51E-09 Convergence criterion met
 Total energy in the final basis set = -271.64373537

                    Orbital Energies (a.u.)
 --------------------------------------------------------------

 Alpha MOs
 -- Occupied --
-10.185 -10.174 -10.172 -10.171 -10.170 -10.169 -10.169  -0.858
 -0.776  -0.747  -0.691  -0.611  -0.591  -0.521  -0.465  -0.462
 -0.424  -0.423  -0.418  -0.390  -0.358  -0.350  -0.342  -0.255
 -0.247

          Ground-State Mulliken Net Atomic Charges

     Atom                 Charge (a.u.)
  ----------------------------------------
      1 C                    -0.186126
      2 C                    -0.265622
      3 C                    -0.268836
      4 C                    -0.283792
      5 C                    -0.238114
      6 C                     0.676566
      7 H                     0.158139
      8 H                     0.167777
      9 C                    -0.715275
     10 H                     0.150321
     11 H                     0.171380
     12 H                     0.141377
     13 H                     0.147872
     14 H                     0.160749
     15 H                     0.170889
     16 GH                   -0.023029
     17 GH                    0.043976
     18 GH                    0.006374
     19 GH                    0.005121
     20 GH                   -0.035974
     21 GH                   -0.016437
     22 GH                    0.001874
     23 GH                    0.004788
     24 GH                    0.019519
     25 GH                   -0.006648
     26 GH                   -0.000402
     27 GH                    0.001588
     28 GH                    0.002651
     29 GH                    0.003466
     30 GH                    0.005827
  ----------------------------------------
  Sum of atomic charges =     0.000000

                    Cartesian Multipole Moments
 -----------------------------------------------------------------
    Charge (ESU x 10^10)
                 0.0000
    Dipole Moment (Debye)
         X       0.0611      Y       0.3878      Z       0.0426
       Tot       0.3949
    Quadrupole Moments (Debye-Ang)
        XX     -39.3949     XY      -0.6307     YY     -38.1148
        XZ      -0.1073     YZ       0.7200     ZZ     -46.3723

 Total job time:  95.40s(wall), 380.34s(cpu)
        *  Thank you very much for using Q-Chem.  Have a nice day.  *
