 Q-Chem 5.0, Q-Chem, Inc., Pleasanton, CA (2017)
 Q-Chem 5.0.1 for Intel X86 EM64T Linux

User input:
--------------------------------------------------------------
$molecule
0  1
--
0  1
C        -0.55335000        -0.66344000        -0.04955000
C        -0.58369000        +0.72363000        +0.07143000
C        -1.74416000        -1.38805000        -0.12104000
C        -2.96100000        -0.71253000        -0.06974000
C        -2.98560000        +0.67733000        +0.05133000
C        -1.80096000        +1.41593000        +0.12202000
H        -3.93869000        +1.19496000        +0.09042000
H        -3.89285000        -1.26490000        -0.12448000
C        -1.82561000        +2.92062000        +0.24749000
H        -1.30124000        +3.39464000        -0.58804000
H        -1.33421000        +3.24931000        +1.16844000
H        -2.84892000        +3.30103000        +0.25949000
H        -1.72216000        -2.46788000        -0.21620000
H        +0.39889000        -1.18111000        -0.08841000
H        +0.34820000        +1.27792000        +0.12648000
--
0  1
C        -0.58049000        -1.01999000        +4.03483000
C        -0.61083000        +0.36708000        +4.15581000
C        -1.77130000        -1.74460000        +3.96334000
C        -2.98814000        -1.06908000        +4.01464000
C        -3.01274000        +0.32078000        +4.13571000
C        -1.82810000        +1.05938000        +4.20640000
H        -3.96583000        +0.83841000        +4.17480000
H        -3.91999000        -1.62145000        +3.95990000
C        -1.85275000        +2.56407000        +4.33187000
H        -1.32838000        +3.03809000        +3.49634000
H        -1.36135000        +2.89276000        +5.25282000
H        -2.87606000        +2.94448000        +4.34387000
H        -1.74930000        -2.82443000        +3.86818000
H        +0.37175000        -1.53766000        +3.99597000
H        +0.32106000        +0.92137000        +4.21086000
$end

$rem
JOBTYPE                   SP
METHOD                    B3LYP
DFT_D                     d3_op
BASIS                     6-311++G(d,p)
SYMMETRY                  False
THRESH                    12
SCF_CONVERGENCE           8
MAX_SUB_FILE_NUM          128
MEM_STATIC                400
MEM_TOTAL                 4000
$end
--------------------------------------------------------------

             Standard Nuclear Orientation (Angstroms)
    I     Atom           X                Y                Z
 ----------------------------------------------------------------
    1      C       2.0459939991    -1.1992959769     1.2062299971
    2      C       2.0486024924     0.1933557024     1.2003685345
    3      C       2.0449549420    -1.9063326118     0.0027778603
    4      C       2.0459109137    -1.2076262940    -1.2019906293
    5      C       2.0487155246     0.1877109603    -1.2020651217
    6      C       2.0517545022     0.9087177059    -0.0045514461
    7      H       2.0495309310     0.7234518890    -2.1459032357
    8      H       2.0452026506    -1.7461978649    -2.1434754504
    9      C       2.0603843421     2.4188052599    -0.0026954394
   10      H       2.9381745540     2.8074866373     0.5228332173
   11      H       1.1755507202     2.8192555757     0.5016546223
   12      H       2.0755218095     2.8167196165    -1.0192849072
   13      H       2.0438871171    -2.9905662097     0.0057137471
   14      H       2.0449403643    -1.7350413730     2.1492194491
   15      H       2.0491729347     0.7338662103     2.1419283808
   16      C      -2.0540012560    -1.1913352952     1.2061848629
   17      C      -2.0513927627     0.2013163841     1.2003234003
   18      C      -2.0550403131    -1.8983719300     0.0027327261
   19      C      -2.0540843415    -1.1996656122    -1.2020357635
   20      C      -2.0512797305     0.1956716420    -1.2021102559
   21      C      -2.0482407529     0.9166783877    -0.0045965804
   22      H      -2.0504643242     0.7314125708    -2.1459483699
   23      H      -2.0547926045    -1.7382371831    -2.1435205846
   24      C      -2.0396109130     2.4267659416    -0.0027405736
   25      H      -1.1618207012     2.8154473190     0.5227880831
   26      H      -2.9244445349     2.8272162575     0.5016094880
   27      H      -2.0244734456     2.8246802982    -1.0193300414
   28      H      -2.0561081380    -2.9826055279     0.0056686129
   29      H      -2.0550548908    -1.7270806912     2.1491743149
   30      H      -2.0508223205     0.7418268921     2.1418832465
 ----------------------------------------------------------------

   13    -543.3034067259      6.15E-09 Convergence criterion met
 Total energy in the final basis set = -543.30340673

                    Orbital Energies (a.u.)
 --------------------------------------------------------------

 Alpha MOs
 -- Occupied --
-10.181 -10.181 -10.171 -10.171 -10.171 -10.171 -10.169 -10.169
-10.169 -10.169 -10.168 -10.168 -10.168 -10.168  -0.856  -0.855
 -0.772  -0.771  -0.744  -0.743  -0.686  -0.685  -0.604  -0.604
 -0.584  -0.583  -0.511  -0.510  -0.461  -0.460  -0.454  -0.453
 -0.430  -0.420  -0.419  -0.415  -0.409  -0.408  -0.388  -0.386
 -0.361  -0.348  -0.343  -0.342  -0.340  -0.339  -0.257  -0.248
 -0.246  -0.237

          Ground-State Mulliken Net Atomic Charges

     Atom                 Charge (a.u.)
  ----------------------------------------
      1 C                    -0.213596
      2 C                    -0.210280
      3 C                    -0.292064
      4 C                    -0.274380
      5 C                    -0.221723
      6 C                     0.634523
      7 H                     0.158552
      8 H                     0.170447
      9 C                    -0.688258
     10 H                     0.153180
     11 H                     0.148221
     12 H                     0.139809
     13 H                     0.151890
     14 H                     0.167002
     15 H                     0.176291
     16 C                    -0.226544
     17 C                    -0.182278
     18 C                    -0.290418
     19 C                    -0.266047
     20 C                    -0.240050
     21 C                     0.635826
     22 H                     0.158211
     23 H                     0.170692
     24 C                    -0.692598
     25 H                     0.144049
     26 H                     0.153892
     27 H                     0.139362
     28 H                     0.151769
     29 H                     0.166707
     30 H                     0.177811
  ----------------------------------------
  Sum of atomic charges =     0.000000

                    Cartesian Multipole Moments
 -----------------------------------------------------------------
    Charge (ESU x 10^10)
                 0.0000
    Dipole Moment (Debye)
         X       0.0077      Y       0.6142      Z       0.0515
       Tot       0.6164
    Quadrupole Moments (Debye-Ang)
        XX     -94.4093     XY       0.0343     YY     -78.1905
        XZ      -0.0024     YZ       0.0564     ZZ     -78.5787

 Total job time:  102.28s(wall), 405.25s(cpu)
        *  Thank you very much for using Q-Chem.  Have a nice day.  *
