 Q-Chem 5.0, Q-Chem, Inc., Pleasanton, CA (2017)
 Q-Chem 5.0.1 for Intel X86 EM64T Linux

User input:
--------------------------------------------------------------
$molecule
0  1
--
0  1
C        -0.54444000        -0.68370000        -0.06689000
C        -0.55709000        +0.71878000        +0.05493000
C        -1.74320000        -1.41616000        -0.12552000
C        -2.93952000        -0.70056000        -0.05285000
C        -2.95313000        +0.68255000        +0.06934000
C        -1.77161000        +1.42404000        +0.12810000
H        -3.90354000        +1.20325000        +0.11710000
H        -3.87892000        -1.24211000        -0.08988000
C        -1.83960000        +2.92746000        +0.24839000
H        -1.24214000        +3.42352000        -0.52065000
H        -1.45503000        +3.26427000        +1.21284000
H        -2.87211000        +3.26623000        +0.14638000
H        -1.73878000        -2.44393000        -0.21875000
H        +0.35825000        -1.18166000        -0.11386000
H        +0.33551000        +1.23549000        +0.09097000
--
0  1
C        -0.68457000        -0.97684000        +4.02022000
C        -0.69722000        +0.42564000        +4.14204000
C        -1.88333000        -1.70930000        +3.96159000
C        -3.07965000        -0.99370000        +4.03426000
C        -3.09326000        +0.38941000        +4.15645000
C        -1.91174000        +1.13090000        +4.21521000
H        -4.04367000        +0.91011000        +4.20421000
H        -4.01905000        -1.53525000        +3.99723000
C        -1.97973000        +2.63432000        +4.33550000
H        -1.38227000        +3.13038000        +3.56646000
H        -1.59516000        +2.97113000        +5.29995000
H        -3.01224000        +2.97309000        +4.23349000
H        -1.87891000        -2.73707000        +3.86836000
H        +0.21812000        -1.47480000        +3.97325000
H        +0.19538000        +0.94235000        +4.17808000
$end

$rem
JOBTYPE                   SP
METHOD                    B3LYP
DFT_D                     d3_op
BASIS                     6-311++G(d,p)
SYMMETRY                  False
THRESH                    12
SCF_CONVERGENCE           8
MAX_SUB_FILE_NUM          128
MEM_STATIC                400
MEM_TOTAL                 4000
$end
--------------------------------------------------------------

             Standard Nuclear Orientation (Angstroms)
    I     Atom           X                Y                Z
 ----------------------------------------------------------------
    1      C       2.1562076675    -1.1844371273     1.1616602010
    2      C       2.1071352719     0.2222562173     1.1891560133
    3      C       2.1188787188    -1.8865020343    -0.0559900288
    4      C       2.0261211395    -1.1362919161    -1.2295004213
    5      C       1.9756245938     0.2511080255    -1.2034159202
    6      C       2.0124649594     0.9626571849    -0.0027534992
    7      H       1.9093910822     0.7988759319    -2.1373603074
    8      H       1.9896655297    -1.6536234344    -2.1824742257
    9      C       1.9675144084     2.4715306952    -0.0281345648
   10      H       2.7891948289     2.9116438819     0.5424775332
   11      H       1.0415323443     2.8464950809     0.4117038031
   12      H       2.0372489875     2.8322584139    -1.0558799878
   13      H       2.1585543257    -2.9174307192    -0.0811780233
   14      H       2.2205422630    -1.7081820748     2.0485490714
   15      H       2.1410334884     0.7159941948     2.0947478564
   16      C      -1.9426260687    -1.2655554291     1.2165915450
   17      C      -1.9916984644     0.1411379154     1.2440873573
   18      C      -1.9799550174    -1.9676203361    -0.0010586848
   19      C      -2.0727125967    -1.2174102179    -1.1745690773
   20      C      -2.1232091425     0.1699897237    -1.1484845763
   21      C      -2.0863687768     0.8815388830     0.0521778448
   22      H      -2.1894426540     0.7177576300    -2.0824289635
   23      H      -2.1091682065    -1.7347417363    -2.1275428818
   24      C      -2.1313193278     2.3904123933     0.0267967792
   25      H      -1.3096389073     2.8305255800     0.5974088772
   26      H      -3.0573013919     2.7653767791     0.4666351471
   27      H      -2.0615847487     2.7511401120    -1.0009486438
   28      H      -1.9402794106    -2.9985490210    -0.0262466793
   29      H      -1.8782914732    -1.7893003767     2.1034804153
   30      H      -1.9578002478     0.6348758929     2.1496792003
 ----------------------------------------------------------------

   13    -543.2898191254      9.88E-09 Convergence criterion met
 Total energy in the final basis set = -543.28981913

                    Orbital Energies (a.u.)
 --------------------------------------------------------------

 Alpha MOs
 -- Occupied --
-10.181 -10.181 -10.169 -10.169 -10.168 -10.167 -10.167 -10.167
-10.166 -10.166 -10.165 -10.165 -10.165 -10.164  -0.854  -0.853
 -0.773  -0.771  -0.743  -0.742  -0.689  -0.687  -0.607  -0.606
 -0.587  -0.586  -0.517  -0.516  -0.462  -0.461  -0.459  -0.458
 -0.429  -0.419  -0.418  -0.415  -0.414  -0.413  -0.388  -0.387
 -0.359  -0.347  -0.346  -0.346  -0.339  -0.338  -0.255  -0.248
 -0.244  -0.237

          Ground-State Mulliken Net Atomic Charges

     Atom                 Charge (a.u.)
  ----------------------------------------
      1 C                    -0.215481
      2 C                    -0.275477
      3 C                    -0.270102
      4 C                    -0.258524
      5 C                    -0.241253
      6 C                     0.719301
      7 H                     0.155020
      8 H                     0.165176
      9 C                    -0.701351
     10 H                     0.148695
     11 H                     0.154806
     12 H                     0.142416
     13 H                     0.146597
     14 H                     0.157723
     15 H                     0.164864
     16 C                    -0.212140
     17 C                    -0.165249
     18 C                    -0.274055
     19 C                    -0.284003
     20 C                    -0.281534
     21 C                     0.640836
     22 H                     0.152515
     23 H                     0.171312
     24 C                    -0.654134
     25 H                     0.139933
     26 H                     0.158702
     27 H                     0.137548
     28 H                     0.143654
     29 H                     0.161348
     30 H                     0.172859
  ----------------------------------------
  Sum of atomic charges =     0.000000

                    Cartesian Multipole Moments
 -----------------------------------------------------------------
    Charge (ESU x 10^10)
                 0.0000
    Dipole Moment (Debye)
         X      -0.0295      Y       0.5870      Z       0.1149
       Tot       0.5988
    Quadrupole Moments (Debye-Ang)
        XX     -94.1902     XY      -0.5555     YY     -77.5698
        XZ       0.7135     YZ       0.0414     ZZ     -78.6707

 Total job time:  101.51s(wall), 403.93s(cpu)
        *  Thank you very much for using Q-Chem.  Have a nice day.  *
