 Q-Chem 5.0, Q-Chem, Inc., Pleasanton, CA (2017)
 Q-Chem 5.0.1 for Intel X86 EM64T Linux

User input:
--------------------------------------------------------------
$molecule
0  1
--
0  1
C        -0.54444000        -0.68370000        -0.06689000
C        -0.55709000        +0.71878000        +0.05493000
C        -1.74320000        -1.41616000        -0.12552000
C        -2.93952000        -0.70056000        -0.05285000
C        -2.95313000        +0.68255000        +0.06934000
C        -1.77161000        +1.42404000        +0.12810000
H        -3.90354000        +1.20325000        +0.11710000
H        -3.87892000        -1.24211000        -0.08988000
C        -1.83960000        +2.92746000        +0.24839000
C        -1.78103000        -2.92226000        -0.24590000
H        -1.39752000        -3.25223000        -1.21323000
H        -2.80572000        -3.28175000        -0.13627000
H        -1.16958000        -3.40777000        +0.51926000
H        -1.24214000        +3.42352000        -0.52065000
H        -1.45503000        +3.26427000        +1.21284000
H        -2.87211000        +3.26623000        +0.14638000
H        +0.35825000        -1.18166000        -0.11386000
H        +0.33551000        +1.23549000        +0.09097000
--
0  1
C        -2.15966000        +0.19181000        +4.90448000
C        -2.17231000        +1.59429000        +5.02630000
C        -3.35842000        -0.54065000        +4.84585000
C        -4.55474000        +0.17495000        +4.91852000
C        -4.56835000        +1.55806000        +5.04071000
C        -3.38683000        +2.29955000        +5.09947000
H        -5.51876000        +2.07876000        +5.08847000
H        -5.49414000        -0.36660000        +4.88149000
C        -3.45482000        +3.80297000        +5.21976000
C        -3.39625000        -2.04675000        +4.72547000
H        -3.01274000        -2.37672000        +3.75814000
H        -4.42094000        -2.40624000        +4.83510000
H        -2.78480000        -2.53226000        +5.49063000
H        -2.85736000        +4.29903000        +4.45072000
H        -3.07025000        +4.13978000        +6.18421000
H        -4.48733000        +4.14174000        +5.11775000
H        -1.25697000        -0.30615000        +4.85751000
H        -1.27971000        +2.11100000        +5.06234000
$end

$rem
JOBTYPE                   SP
METHOD                    B3LYP
DFT_D                     d3_op
BASIS                     6-311++G(d,p)
SYMMETRY                  False
THRESH                    12
SCF_CONVERGENCE           8
MAX_SUB_FILE_NUM          128
MEM_STATIC                400
MEM_TOTAL                 4000
$end
--------------------------------------------------------------

             Standard Nuclear Orientation (Angstroms)
    I     Atom           X                Y                Z
 ----------------------------------------------------------------
    1      C       3.2942481334     0.1157243848     1.0326105572
    2      C       2.6804511683     1.3821201086     0.9945915903
    3      C       3.2248431598    -0.7558076207    -0.0685595382
    4      C       2.5218101170    -0.3188604155    -1.1925557624
    5      C       1.9143274938     0.9291956941    -1.2303672706
    6      C       1.9748654100     1.8061207987    -0.1456612322
    7      H       1.3816944097     1.2349364004    -2.1245223432
    8      H       2.4479714705    -0.9744292884    -2.0538903609
    9      C       1.3085110529     3.1575197435    -0.2408283667
   10      C       3.8583863107    -2.1279853852    -0.0718643708
   11      H       4.9477146481    -2.0615609405    -0.0465855972
   12      H       3.5633620095    -2.6752473237    -0.9689186754
   13      H       3.5570612202    -2.7181140715     0.7976252563
   14      H       1.9961784372     3.9678856149     0.0138817034
   15      H       0.4649596393     3.2312825228     0.4479959422
   16      H       0.9461973708     3.3271015257    -1.2563178388
   17      H       3.8027687052    -0.1773270229     1.8814611207
   18      H       2.7490944041     2.0067516547     1.8132162928
   19      C      -1.8961539145    -0.9287391641     1.2750885179
   20      C      -2.5099508796     0.3376565596     1.2370695510
   21      C      -1.9655588881    -1.8002711697     0.1739184225
   22      C      -2.6685919309    -1.3633239645    -0.9500778017
   23      C      -3.2760745541    -0.1152678549    -0.9878893099
   24      C      -3.2155366379     0.7616572497     0.0968167285
   25      H      -3.8087076382     0.1904728514    -1.8820443825
   26      H      -2.7424305774    -2.0188928374    -1.8114124002
   27      C      -3.8818909950     2.1130561945     0.0016495940
   28      C      -1.3320157372    -3.1724489342     0.1706135899
   29      H      -0.2426873998    -3.1060244895     0.1958923635
   30      H      -1.6270400384    -3.7197108727    -0.7264407147
   31      H      -1.6333408277    -3.7625776205     1.0401032170
   32      H      -3.1942236107     2.9234220659     0.2563596641
   33      H      -4.7254424086     2.1868189738     0.6904739028
   34      H      -4.2442046771     2.2826379767    -1.0138398781
   35      H      -1.3876333427    -1.2217905719     2.1239390814
   36      H      -2.4413076438     0.9622881057     2.0556942535
 ----------------------------------------------------------------

   13    -621.9533688257      6.52E-09 Convergence criterion met
 Total energy in the final basis set = -621.95336883

                    Orbital Energies (a.u.)
 --------------------------------------------------------------

 Alpha MOs
 -- Occupied --
-10.178 -10.178 -10.177 -10.177 -10.166 -10.166 -10.166 -10.166
-10.165 -10.165 -10.165 -10.165 -10.165 -10.164 -10.164 -10.164
 -0.856  -0.856  -0.785  -0.785  -0.743  -0.743  -0.719  -0.719
 -0.656  -0.656  -0.610  -0.610  -0.575  -0.574  -0.494  -0.493
 -0.470  -0.469  -0.458  -0.457  -0.424  -0.422  -0.418  -0.418
 -0.415  -0.414  -0.402  -0.402  -0.395  -0.395  -0.374  -0.374
 -0.344  -0.342  -0.340  -0.340  -0.337  -0.336  -0.250  -0.249
 -0.234  -0.234

          Ground-State Mulliken Net Atomic Charges

     Atom                 Charge (a.u.)
  ----------------------------------------
      1 C                    -0.168528
      2 C                    -0.360050
      3 C                     0.550871
      4 C                    -0.473410
      5 C                    -0.396109
      6 C                     0.638481
      7 H                     0.150897
      8 H                     0.141935
      9 C                    -0.669452
     10 C                    -0.642620
     11 H                     0.156038
     12 H                     0.144506
     13 H                     0.148984
     14 H                     0.142594
     15 H                     0.165708
     16 H                     0.138696
     17 H                     0.161971
     18 H                     0.166926
     19 C                    -0.304092
     20 C                    -0.197868
     21 C                     0.657597
     22 C                    -0.523513
     23 C                    -0.506916
     24 C                     0.614833
     25 H                     0.146769
     26 H                     0.153102
     27 C                    -0.624169
     28 C                    -0.646838
     29 H                     0.174752
     30 H                     0.139057
     31 H                     0.145605
     32 H                     0.149450
     33 H                     0.159067
     34 H                     0.144029
     35 H                     0.159702
     36 H                     0.161993
  ----------------------------------------
  Sum of atomic charges =     0.000000

                    Cartesian Multipole Moments
 -----------------------------------------------------------------
    Charge (ESU x 10^10)
                -0.0000
    Dipole Moment (Debye)
         X       0.0714      Y       0.0376      Z       0.1499
       Tot       0.1702
    Quadrupole Moments (Debye-Ang)
        XX    -102.2131     XY      -5.4769     YY     -92.4238
        XZ       4.1102     YZ       1.8569     ZZ     -93.8837

 Total job time:  141.02s(wall), 561.48s(cpu)
        *  Thank you very much for using Q-Chem.  Have a nice day.  *
