 Q-Chem 5.0, Q-Chem, Inc., Pleasanton, CA (2017)
 Q-Chem 5.0.1 for Intel X86 EM64T Linux

User input:
--------------------------------------------------------------
$molecule
0  1
C        -0.54444000        -0.68370000        -0.06689000
C        -0.55709000        +0.71878000        +0.05493000
C        -1.74320000        -1.41616000        -0.12552000
C        -2.93952000        -0.70056000        -0.05285000
C        -2.95313000        +0.68255000        +0.06934000
C        -1.77161000        +1.42404000        +0.12810000
H        -3.90354000        +1.20325000        +0.11710000
H        -3.87892000        -1.24211000        -0.08988000
C        -1.83960000        +2.92746000        +0.24839000
C        -1.78103000        -2.92226000        -0.24590000
H        -1.39752000        -3.25223000        -1.21323000
H        -2.80572000        -3.28175000        -0.13627000
H        -1.16958000        -3.40777000        +0.51926000
H        -1.24214000        +3.42352000        -0.52065000
H        -1.45503000        +3.26427000        +1.21284000
H        -2.87211000        +3.26623000        +0.14638000
H        +0.35825000        -1.18166000        -0.11386000
H        +0.33551000        +1.23549000        +0.09097000
@C        -2.15966000        +0.19181000        +4.90448000
@C        -2.17231000        +1.59429000        +5.02630000
@C        -3.35842000        -0.54065000        +4.84585000
@C        -4.55474000        +0.17495000        +4.91852000
@C        -4.56835000        +1.55806000        +5.04071000
@C        -3.38683000        +2.29955000        +5.09947000
@H        -5.51876000        +2.07876000        +5.08847000
@H        -5.49414000        -0.36660000        +4.88149000
@C        -3.45482000        +3.80297000        +5.21976000
@C        -3.39625000        -2.04675000        +4.72547000
@H        -3.01274000        -2.37672000        +3.75814000
@H        -4.42094000        -2.40624000        +4.83510000
@H        -2.78480000        -2.53226000        +5.49063000
@H        -2.85736000        +4.29903000        +4.45072000
@H        -3.07025000        +4.13978000        +6.18421000
@H        -4.48733000        +4.14174000        +5.11775000
@H        -1.25697000        -0.30615000        +4.85751000
@H        -1.27971000        +2.11100000        +5.06234000
$end

$rem
JOBTYPE                   SP
METHOD                    B3LYP
DFT_D                     d3_op
BASIS                     6-311++G(d,p)
SYMMETRY                  False
THRESH                    12
SCF_CONVERGENCE           8
MAX_SUB_FILE_NUM          128
MEM_STATIC                400
MEM_TOTAL                 4000
$end
--------------------------------------------------------------

             Standard Nuclear Orientation (Angstroms)
    I     Atom           X                Y                Z
 ----------------------------------------------------------------
    1      C      -0.5444400000    -0.6837000000    -0.0668900000
    2      C      -0.5570900000     0.7187800000     0.0549300000
    3      C      -1.7432000000    -1.4161600000    -0.1255200000
    4      C      -2.9395200000    -0.7005600000    -0.0528500000
    5      C      -2.9531300000     0.6825500000     0.0693400000
    6      C      -1.7716100000     1.4240400000     0.1281000000
    7      H      -3.9035400000     1.2032500000     0.1171000000
    8      H      -3.8789200000    -1.2421100000    -0.0898800000
    9      C      -1.8396000000     2.9274600000     0.2483900000
   10      C      -1.7810300000    -2.9222600000    -0.2459000000
   11      H      -1.3975200000    -3.2522300000    -1.2132300000
   12      H      -2.8057200000    -3.2817500000    -0.1362700000
   13      H      -1.1695800000    -3.4077700000     0.5192600000
   14      H      -1.2421400000     3.4235200000    -0.5206500000
   15      H      -1.4550300000     3.2642700000     1.2128400000
   16      H      -2.8721100000     3.2662300000     0.1463800000
   17      H       0.3582500000    -1.1816600000    -0.1138600000
   18      H       0.3355100000     1.2354900000     0.0909700000
   19      GH     -2.1596600000     0.1918100000     4.9044800000
   20      GH     -2.1723100000     1.5942900000     5.0263000000
   21      GH     -3.3584200000    -0.5406500000     4.8458500000
   22      GH     -4.5547400000     0.1749500000     4.9185200000
   23      GH     -4.5683500000     1.5580600000     5.0407100000
   24      GH     -3.3868300000     2.2995500000     5.0994700000
   25      GH     -5.5187600000     2.0787600000     5.0884700000
   26      GH     -5.4941400000    -0.3666000000     4.8814900000
   27      GH     -3.4548200000     3.8029700000     5.2197600000
   28      GH     -3.3962500000    -2.0467500000     4.7254700000
   29      GH     -3.0127400000    -2.3767200000     3.7581400000
   30      GH     -4.4209400000    -2.4062400000     4.8351000000
   31      GH     -2.7848000000    -2.5322600000     5.4906300000
   32      GH     -2.8573600000     4.2990300000     4.4507200000
   33      GH     -3.0702500000     4.1397800000     6.1842100000
   34      GH     -4.4873300000     4.1417400000     5.1177500000
   35      GH     -1.2569700000    -0.3061500000     4.8575100000
   36      GH     -1.2797100000     2.1110000000     5.0623400000
 ----------------------------------------------------------------

   11    -310.9759862219      9.98E-09 Convergence criterion met
 Total energy in the final basis set = -310.97598622

                    Orbital Energies (a.u.)
 --------------------------------------------------------------

 Alpha MOs
 -- Occupied --
-10.180 -10.180 -10.168 -10.168 -10.168 -10.167 -10.167 -10.167
 -0.859  -0.787  -0.745  -0.721  -0.658  -0.612  -0.577  -0.496
 -0.472  -0.460  -0.425  -0.421  -0.417  -0.404  -0.397  -0.376
 -0.345  -0.342  -0.339  -0.252  -0.236

          Ground-State Mulliken Net Atomic Charges

     Atom                 Charge (a.u.)
  ----------------------------------------
      1 C                    -0.162612
      2 C                    -0.337565
      3 C                     0.571880
      4 C                    -0.474374
      5 C                    -0.416956
      6 C                     0.598145
      7 H                     0.155163
      8 H                     0.145372
      9 C                    -0.653154
     10 C                    -0.646172
     11 H                     0.155897
     12 H                     0.146193
     13 H                     0.149685
     14 H                     0.144954
     15 H                     0.170791
     16 H                     0.137412
     17 H                     0.164242
     18 H                     0.169307
     19 GH                   -0.040774
     20 GH                   -0.017530
     21 GH                    0.019865
     22 GH                    0.004690
     23 GH                   -0.004526
     24 GH                    0.015766
     25 GH                   -0.001016
     26 GH                   -0.001004
     27 GH                    0.005533
     28 GH                    0.008506
     29 GH                   -0.008675
     30 GH                    0.000463
     31 GH                   -0.000314
     32 GH                    0.000114
     33 GH                   -0.000142
     34 GH                    0.000355
     35 GH                   -0.001178
     36 GH                    0.001661
  ----------------------------------------
  Sum of atomic charges =     0.000000

                    Cartesian Multipole Moments
 -----------------------------------------------------------------
    Charge (ESU x 10^10)
                 0.0000
    Dipole Moment (Debye)
         X       0.0902      Y       0.0008      Z       0.0071
       Tot       0.0905
    Quadrupole Moments (Debye-Ang)
        XX     -46.2773     XY       0.0021     YY     -44.7017
        XZ      -0.0657     YZ       0.6781     ZZ     -52.7069

 Total job time:  121.38s(wall), 482.79s(cpu)
        *  Thank you very much for using Q-Chem.  Have a nice day.  *
