 Q-Chem 5.0, Q-Chem, Inc., Pleasanton, CA (2017)
 Q-Chem 5.0.1 for Intel X86 EM64T Linux

User input:
--------------------------------------------------------------
$molecule
0  1
C        -0.54745000        -1.06780000        +4.00559000
C        -0.56142000        +0.31696000        +4.13911000
C        -1.73924000        -1.80214000        +3.94851000
C        -2.94119000        -1.09612000        +4.02492000
C        -2.95535000        +0.29253000        +4.15822000
C        -1.76804000        +1.02463000        +4.21555000
H        -3.90669000        +0.81217000        +4.21697000
H        -3.88155000        -1.63698000        +3.98081000
C        -1.77837000        +2.52986000        +4.33052000
C        -1.72023000        -3.30813000        +3.83463000
H        -0.99451000        -3.64409000        +3.08868000
H        -2.70003000        -3.69824000        +3.54998000
H        -1.44504000        -3.77164000        +4.78828000
H        -1.50297000        +2.99840000        +3.37956000
H        -1.06510000        +2.87767000        +5.08311000
H        -2.76756000        +2.90121000        +4.60715000
H        +0.40310000        -1.58932000        +3.94588000
H        +0.37885000        +0.85811000        +4.18335000
@C        -0.58454000        -0.67556000        -0.07544000
@C        -0.59851000        +0.70920000        +0.05808000
@C        -1.77633000        -1.40990000        -0.13252000
@C        -2.97828000        -0.70388000        -0.05611000
@C        -2.99244000        +0.68477000        +0.07719000
@C        -1.80513000        +1.41687000        +0.13452000
@H        -3.94378000        +1.20441000        +0.13594000
@H        -3.91864000        -1.24474000        -0.10022000
@C        -1.81546000        +2.92210000        +0.24949000
@C        -1.75732000        -2.91589000        -0.24640000
@H        -1.03160000        -3.25185000        -0.99235000
@H        -2.73712000        -3.30600000        -0.53105000
@H        -1.48213000        -3.37940000        +0.70725000
@H        -1.54006000        +3.39064000        -0.70147000
@H        -1.10219000        +3.26991000        +1.00208000
@H        -2.80465000        +3.29345000        +0.52612000
@H        +0.36601000        -1.19708000        -0.13515000
@H        +0.34176000        +1.25035000        +0.10232000
$end

$rem
JOBTYPE                   SP
METHOD                    B3LYP
DFT_D                     d3_op
BASIS                     6-311++G(d,p)
SYMMETRY                  False
THRESH                    12
SCF_CONVERGENCE           8
MAX_SUB_FILE_NUM          128
MEM_STATIC                400
MEM_TOTAL                 4000
$end
--------------------------------------------------------------

             Standard Nuclear Orientation (Angstroms)
    I     Atom           X                Y                Z
 ----------------------------------------------------------------
    1      C      -0.5474500000    -1.0678000000     4.0055900000
    2      C      -0.5614200000     0.3169600000     4.1391100000
    3      C      -1.7392400000    -1.8021400000     3.9485100000
    4      C      -2.9411900000    -1.0961200000     4.0249200000
    5      C      -2.9553500000     0.2925300000     4.1582200000
    6      C      -1.7680400000     1.0246300000     4.2155500000
    7      H      -3.9066900000     0.8121700000     4.2169700000
    8      H      -3.8815500000    -1.6369800000     3.9808100000
    9      C      -1.7783700000     2.5298600000     4.3305200000
   10      C      -1.7202300000    -3.3081300000     3.8346300000
   11      H      -0.9945100000    -3.6440900000     3.0886800000
   12      H      -2.7000300000    -3.6982400000     3.5499800000
   13      H      -1.4450400000    -3.7716400000     4.7882800000
   14      H      -1.5029700000     2.9984000000     3.3795600000
   15      H      -1.0651000000     2.8776700000     5.0831100000
   16      H      -2.7675600000     2.9012100000     4.6071500000
   17      H       0.4031000000    -1.5893200000     3.9458800000
   18      H       0.3788500000     0.8581100000     4.1833500000
   19      GH     -0.5845400000    -0.6755600000    -0.0754400000
   20      GH     -0.5985100000     0.7092000000     0.0580800000
   21      GH     -1.7763300000    -1.4099000000    -0.1325200000
   22      GH     -2.9782800000    -0.7038800000    -0.0561100000
   23      GH     -2.9924400000     0.6847700000     0.0771900000
   24      GH     -1.8051300000     1.4168700000     0.1345200000
   25      GH     -3.9437800000     1.2044100000     0.1359400000
   26      GH     -3.9186400000    -1.2447400000    -0.1002200000
   27      GH     -1.8154600000     2.9221000000     0.2494900000
   28      GH     -1.7573200000    -2.9158900000    -0.2464000000
   29      GH     -1.0316000000    -3.2518500000    -0.9923500000
   30      GH     -2.7371200000    -3.3060000000    -0.5310500000
   31      GH     -1.4821300000    -3.3794000000     0.7072500000
   32      GH     -1.5400600000     3.3906400000    -0.7014700000
   33      GH     -1.1021900000     3.2699100000     1.0020800000
   34      GH     -2.8046500000     3.2934500000     0.5261200000
   35      GH      0.3660100000    -1.1970800000    -0.1351500000
   36      GH      0.3417600000     1.2503500000     0.1023200000
 ----------------------------------------------------------------

   13    -310.9810846541      1.02E-09 Convergence criterion met
 Total energy in the final basis set = -310.98108465

                    Orbital Energies (a.u.)
 --------------------------------------------------------------

 Alpha MOs
 -- Occupied --
-10.180 -10.180 -10.171 -10.170 -10.170 -10.170 -10.167 -10.167
 -0.860  -0.787  -0.744  -0.721  -0.657  -0.608  -0.575  -0.494
 -0.473  -0.452  -0.425  -0.419  -0.417  -0.402  -0.398  -0.375
 -0.346  -0.342  -0.337  -0.254  -0.237

          Ground-State Mulliken Net Atomic Charges

     Atom                 Charge (a.u.)
  ----------------------------------------
      1 C                    -0.324628
      2 C                    -0.380424
      3 C                     0.635099
      4 C                    -0.353010
      5 C                    -0.452570
      6 C                     0.580193
      7 H                     0.168840
      8 H                     0.160990
      9 C                    -0.696591
     10 C                    -0.590955
     11 H                     0.139883
     12 H                     0.136574
     13 H                     0.163462
     14 H                     0.180933
     15 H                     0.143139
     16 H                     0.137698
     17 H                     0.175562
     18 H                     0.177740
     19 GH                   -0.013342
     20 GH                    0.009377
     21 GH                   -0.067475
     22 GH                    0.023948
     23 GH                    0.000556
     24 GH                   -0.021384
     25 GH                    0.002767
     26 GH                    0.005226
     27 GH                    0.027199
     28 GH                    0.014795
     29 GH                   -0.000385
     30 GH                   -0.000668
     31 GH                    0.013501
     32 GH                   -0.000712
     33 GH                   -0.002710
     34 GH                    0.000744
     35 GH                    0.002600
     36 GH                    0.004027
  ----------------------------------------
  Sum of atomic charges =     0.000000

                    Cartesian Multipole Moments
 -----------------------------------------------------------------
    Charge (ESU x 10^10)
                 0.0000
    Dipole Moment (Debye)
         X       0.0596      Y       0.0012      Z      -0.0116
       Tot       0.0607
    Quadrupole Moments (Debye-Ang)
        XX     -46.3172     XY      -0.0299     YY     -44.8386
        XZ       0.2077     YZ       0.6238     ZZ     -52.8184

 Total job time:  167.85s(wall), 667.16s(cpu)
        *  Thank you very much for using Q-Chem.  Have a nice day.  *
