 Q-Chem 5.0, Q-Chem, Inc., Pleasanton, CA (2017)
 Q-Chem 5.0.1 for Intel X86 EM64T Linux

User input:
--------------------------------------------------------------
$molecule
0  1
C        -1.79395000        -0.00641000        +3.77889000
C        -1.80660000        +1.39607000        +3.90071000
C        -2.99271000        -0.73887000        +3.72026000
C        -4.18903000        -0.02327000        +3.79293000
C        -4.20264000        +1.35984000        +3.91512000
C        -3.02112000        +2.10133000        +3.97388000
H        -5.15305000        +1.88054000        +3.96288000
H        -5.12843000        -0.56482000        +3.75590000
C        -3.08911000        +3.60475000        +4.09417000
C        -3.03054000        -2.24497000        +3.59988000
H        -2.64703000        -2.57494000        +2.63255000
H        -4.05523000        -2.60446000        +3.70951000
H        -2.41909000        -2.73048000        +4.36504000
H        -2.49165000        +4.10081000        +3.32513000
H        -2.70454000        +3.94156000        +5.05862000
H        -4.12162000        +3.94352000        +3.99216000
H        -0.89126000        -0.50437000        +3.73192000
H        -0.91400000        +1.91278000        +3.93675000
@C        -0.54444000        -0.68370000        -0.06689000
@C        -0.55709000        +0.71878000        +0.05493000
@C        -1.74320000        -1.41616000        -0.12552000
@C        -2.93952000        -0.70056000        -0.05285000
@C        -2.95313000        +0.68255000        +0.06934000
@C        -1.77161000        +1.42404000        +0.12810000
@H        -3.90354000        +1.20325000        +0.11710000
@H        -3.87892000        -1.24211000        -0.08988000
@C        -1.83960000        +2.92746000        +0.24839000
@C        -1.78103000        -2.92226000        -0.24590000
@H        -1.39752000        -3.25223000        -1.21323000
@H        -2.80572000        -3.28175000        -0.13627000
@H        -1.16958000        -3.40777000        +0.51926000
@H        -1.24214000        +3.42352000        -0.52065000
@H        -1.45503000        +3.26427000        +1.21284000
@H        -2.87211000        +3.26623000        +0.14638000
@H        +0.35825000        -1.18166000        -0.11386000
@H        +0.33551000        +1.23549000        +0.09097000
$end

$rem
JOBTYPE                   SP
METHOD                    B3LYP
DFT_D                     d3_op
BASIS                     6-311++G(d,p)
SYMMETRY                  False
THRESH                    12
SCF_CONVERGENCE           8
MAX_SUB_FILE_NUM          128
MEM_STATIC                400
MEM_TOTAL                 4000
$end
--------------------------------------------------------------

             Standard Nuclear Orientation (Angstroms)
    I     Atom           X                Y                Z
 ----------------------------------------------------------------
    1      C      -1.7939500000    -0.0064100000     3.7788900000
    2      C      -1.8066000000     1.3960700000     3.9007100000
    3      C      -2.9927100000    -0.7388700000     3.7202600000
    4      C      -4.1890300000    -0.0232700000     3.7929300000
    5      C      -4.2026400000     1.3598400000     3.9151200000
    6      C      -3.0211200000     2.1013300000     3.9738800000
    7      H      -5.1530500000     1.8805400000     3.9628800000
    8      H      -5.1284300000    -0.5648200000     3.7559000000
    9      C      -3.0891100000     3.6047500000     4.0941700000
   10      C      -3.0305400000    -2.2449700000     3.5998800000
   11      H      -2.6470300000    -2.5749400000     2.6325500000
   12      H      -4.0552300000    -2.6044600000     3.7095100000
   13      H      -2.4190900000    -2.7304800000     4.3650400000
   14      H      -2.4916500000     4.1008100000     3.3251300000
   15      H      -2.7045400000     3.9415600000     5.0586200000
   16      H      -4.1216200000     3.9435200000     3.9921600000
   17      H      -0.8912600000    -0.5043700000     3.7319200000
   18      H      -0.9140000000     1.9127800000     3.9367500000
   19      GH     -0.5444400000    -0.6837000000    -0.0668900000
   20      GH     -0.5570900000     0.7187800000     0.0549300000
   21      GH     -1.7432000000    -1.4161600000    -0.1255200000
   22      GH     -2.9395200000    -0.7005600000    -0.0528500000
   23      GH     -2.9531300000     0.6825500000     0.0693400000
   24      GH     -1.7716100000     1.4240400000     0.1281000000
   25      GH     -3.9035400000     1.2032500000     0.1171000000
   26      GH     -3.8789200000    -1.2421100000    -0.0898800000
   27      GH     -1.8396000000     2.9274600000     0.2483900000
   28      GH     -1.7810300000    -2.9222600000    -0.2459000000
   29      GH     -1.3975200000    -3.2522300000    -1.2132300000
   30      GH     -2.8057200000    -3.2817500000    -0.1362700000
   31      GH     -1.1695800000    -3.4077700000     0.5192600000
   32      GH     -1.2421400000     3.4235200000    -0.5206500000
   33      GH     -1.4550300000     3.2642700000     1.2128400000
   34      GH     -2.8721100000     3.2662300000     0.1463800000
   35      GH      0.3582500000    -1.1816600000    -0.1138600000
   36      GH      0.3355100000     1.2354900000     0.0909700000
 ----------------------------------------------------------------

   13    -310.9761736479      1.25E-09 Convergence criterion met
 Total energy in the final basis set = -310.97617365

                    Orbital Energies (a.u.)
 --------------------------------------------------------------

 Alpha MOs
 -- Occupied --
-10.180 -10.180 -10.168 -10.168 -10.168 -10.167 -10.167 -10.167
 -0.858  -0.787  -0.745  -0.721  -0.658  -0.612  -0.577  -0.496
 -0.472  -0.460  -0.424  -0.421  -0.417  -0.404  -0.397  -0.376
 -0.345  -0.342  -0.339  -0.252  -0.236

          Ground-State Mulliken Net Atomic Charges

     Atom                 Charge (a.u.)
  ----------------------------------------
      1 C                    -0.407621
      2 C                    -0.210633
      3 C                     0.570966
      4 C                    -0.351799
      5 C                    -0.516243
      6 C                     0.568453
      7 H                     0.153585
      8 H                     0.163782
      9 C                    -0.625728
     10 C                    -0.632818
     11 H                     0.194087
     12 H                     0.136200
     13 H                     0.151987
     14 H                     0.159841
     15 H                     0.164774
     16 H                     0.138557
     17 H                     0.159497
     18 H                     0.165181
     19 GH                   -0.100102
     20 GH                    0.008431
     21 GH                   -0.052618
     22 GH                    0.042704
     23 GH                   -0.006741
     24 GH                    0.150371
     25 GH                   -0.010917
     26 GH                    0.007545
     27 GH                   -0.018126
     28 GH                    0.002051
     29 GH                   -0.000041
     30 GH                   -0.004844
     31 GH                    0.004811
     32 GH                   -0.000942
     33 GH                   -0.006909
     34 GH                    0.005906
     35 GH                   -0.005330
     36 GH                    0.002684
  ----------------------------------------
  Sum of atomic charges =     0.000000

                    Cartesian Multipole Moments
 -----------------------------------------------------------------
    Charge (ESU x 10^10)
                 0.0000
    Dipole Moment (Debye)
         X       0.0933      Y       0.0030      Z      -0.0118
       Tot       0.0941
    Quadrupole Moments (Debye-Ang)
        XX     -46.5801     XY       0.0532     YY     -44.7660
        XZ       0.3529     YZ       0.6682     ZZ     -52.7492

 Total job time:  162.53s(wall), 646.75s(cpu)
        *  Thank you very much for using Q-Chem.  Have a nice day.  *
