 Q-Chem 5.0, Q-Chem, Inc., Pleasanton, CA (2017)
 Q-Chem 5.0.1 for Intel X86 EM64T Linux

User input:
--------------------------------------------------------------
$molecule
0  1
--
0  1
C        -0.54444000        -0.68370000        -0.06689000
C        -0.55709000        +0.71878000        +0.05493000
C        -1.74320000        -1.41616000        -0.12552000
C        -2.93952000        -0.70056000        -0.05285000
C        -2.95313000        +0.68255000        +0.06934000
C        -1.77161000        +1.42404000        +0.12810000
H        -3.90354000        +1.20325000        +0.11710000
H        -3.87892000        -1.24211000        -0.08988000
C        -1.83960000        +2.92746000        +0.24839000
C        -1.78103000        -2.92226000        -0.24590000
H        -1.39752000        -3.25223000        -1.21323000
H        -2.80572000        -3.28175000        -0.13627000
H        -1.16958000        -3.40777000        +0.51926000
H        -1.24214000        +3.42352000        -0.52065000
H        -1.45503000        +3.26427000        +1.21284000
H        -2.87211000        +3.26623000        +0.14638000
H        +0.35825000        -1.18166000        -0.11386000
H        +0.33551000        +1.23549000        +0.09097000
--
0  1
C        -1.79395000        -0.00641000        +3.77889000
C        -1.80660000        +1.39607000        +3.90071000
C        -2.99271000        -0.73887000        +3.72026000
C        -4.18903000        -0.02327000        +3.79293000
C        -4.20264000        +1.35984000        +3.91512000
C        -3.02112000        +2.10133000        +3.97388000
H        -5.15305000        +1.88054000        +3.96288000
H        -5.12843000        -0.56482000        +3.75590000
C        -3.08911000        +3.60475000        +4.09417000
C        -3.03054000        -2.24497000        +3.59988000
H        -2.64703000        -2.57494000        +2.63255000
H        -4.05523000        -2.60446000        +3.70951000
H        -2.41909000        -2.73048000        +4.36504000
H        -2.49165000        +4.10081000        +3.32513000
H        -2.70454000        +3.94156000        +5.05862000
H        -4.12162000        +3.94352000        +3.99216000
H        -0.89126000        -0.50437000        +3.73192000
H        -0.91400000        +1.91278000        +3.93675000
$end

$rem
JOBTYPE                   SP
METHOD                    B3LYP
DFT_D                     d3_op
BASIS                     6-311++G(d,p)
SYMMETRY                  False
THRESH                    12
SCF_CONVERGENCE           8
MAX_SUB_FILE_NUM          128
MEM_STATIC                400
MEM_TOTAL                 4000
$end
--------------------------------------------------------------

             Standard Nuclear Orientation (Angstroms)
    I     Atom           X                Y                Z
 ----------------------------------------------------------------
    1      C       2.6262591516     0.7853856578     0.9672988293
    2      C       1.6805900486     1.8274867856     0.9262443236
    3      C       2.7744471610    -0.1008071447    -0.1142109010
    4      C       1.9465331616     0.0903452045    -1.2217148606
    5      C       1.0120798085     1.1166239651    -1.2624301730
    6      C       0.8534203015     2.0050512185    -0.1971725308
    7      H       0.3907785420     1.2359900780    -2.1435800712
    8      H       2.0363457840    -0.5832275431    -2.0675005485
    9      C      -0.1681119873     3.1124065877    -0.2951515576
   10      C       3.7676498781    -1.2400203991    -0.1131213649
   11      H       4.7947074865    -0.8703307071    -0.1261463593
   12      H       3.6138669052    -1.8726383539    -0.9891274799
   13      H       3.6681323440    -1.8666428917     0.7771041123
   14      H       0.2708768690     4.0897309973    -0.0793222750
   15      H      -0.9792621369     2.9658681218     0.4204326627
   16      H      -0.5910814424     3.1454922458    -1.3007609412
   17      H       3.2196255818     0.6701846296     1.8037583807
   18      H       1.5933182076     2.4687360832     1.7301136101
   19      C      -0.9935516512    -1.1098555116     1.3064911851
   20      C      -1.9392207542    -0.0677543838     1.2654366794
   21      C      -0.8453636419    -1.9960483141     0.2249814548
   22      C      -1.6732776412    -1.8048959649    -0.8825225047
   23      C      -2.6077309943    -0.7786172043    -0.9232378172
   24      C      -2.7663905013     0.1098100491     0.1420198251
   25      H      -3.2290322608    -0.6592510914    -1.8043877154
   26      H      -1.5834650188    -2.4784687125    -1.7283081927
   27      C      -3.7879227901     1.2171654183     0.0440407982
   28      C       0.1478390752    -3.1352615684     0.2260709909
   29      H       1.1748966837    -2.7655718765     0.2130459966
   30      H      -0.0059438976    -3.7678795233    -0.6499351241
   31      H       0.0483215412    -3.7618840611     1.1162964681
   32      H      -3.3489339339     2.1944898279     0.2598700809
   33      H      -4.5990729397     1.0706269524     0.7596250185
   34      H      -4.2108922452     1.2502510764    -0.9615685854
   35      H      -0.4001852210    -1.2250565398     2.1429507366
   36      H      -2.0264925952     0.5734949138     2.0693059659
 ----------------------------------------------------------------

   14    -621.9585234914      5.30E-09 Convergence criterion met
 Total energy in the final basis set = -621.95852349

                    Orbital Energies (a.u.)
 --------------------------------------------------------------

 Alpha MOs
 -- Occupied --
-10.177 -10.176 -10.176 -10.176 -10.167 -10.165 -10.165 -10.165
-10.164 -10.164 -10.164 -10.164 -10.164 -10.163 -10.163 -10.163
 -0.856  -0.854  -0.785  -0.783  -0.742  -0.741  -0.719  -0.717
 -0.656  -0.655  -0.609  -0.608  -0.574  -0.573  -0.493  -0.492
 -0.469  -0.468  -0.457  -0.456  -0.429  -0.422  -0.417  -0.417
 -0.414  -0.409  -0.402  -0.401  -0.395  -0.394  -0.374  -0.373
 -0.347  -0.340  -0.339  -0.337  -0.336  -0.335  -0.252  -0.245
 -0.235  -0.231

          Ground-State Mulliken Net Atomic Charges

     Atom                 Charge (a.u.)
  ----------------------------------------
      1 C                    -0.358943
      2 C                    -0.360046
      3 C                     0.391817
      4 C                    -0.333622
      5 C                    -0.313784
      6 C                     0.732497
      7 H                     0.143553
      8 H                     0.156298
      9 C                    -0.655550
     10 C                    -0.643874
     11 H                     0.160409
     12 H                     0.132523
     13 H                     0.158682
     14 H                     0.150330
     15 H                     0.160007
     16 H                     0.137153
     17 H                     0.160815
     18 H                     0.167246
     19 C                    -0.473237
     20 C                    -0.267228
     21 C                     0.622176
     22 C                    -0.258634
     23 C                    -0.573050
     24 C                     0.634185
     25 H                     0.144233
     26 H                     0.166356
     27 C                    -0.590770
     28 C                    -0.679775
     29 H                     0.235324
     30 H                     0.126983
     31 H                     0.150417
     32 H                     0.152938
     33 H                     0.163134
     34 H                     0.138548
     35 H                     0.149614
     36 H                     0.173276
  ----------------------------------------
  Sum of atomic charges =     0.000000

                    Cartesian Multipole Moments
 -----------------------------------------------------------------
    Charge (ESU x 10^10)
                 0.0000
    Dipole Moment (Debye)
         X       0.0826      Y       0.0677      Z       0.1224
       Tot       0.1625
    Quadrupole Moments (Debye-Ang)
        XX     -98.7407     XY      -6.8468     YY     -96.5649
        XZ       3.6570     YZ       3.0982     ZZ     -94.4565

 Total job time:  183.82s(wall), 731.57s(cpu)
        *  Thank you very much for using Q-Chem.  Have a nice day.  *
