 Q-Chem 5.0, Q-Chem, Inc., Pleasanton, CA (2017)
 Q-Chem 5.0.1 for Intel X86 EM64T Linux

User input:
--------------------------------------------------------------
$molecule
0  1
--
0  1
C        -0.58454000        -0.67556000        -0.07544000
C        -0.59851000        +0.70920000        +0.05808000
C        -1.77633000        -1.40990000        -0.13252000
C        -2.97828000        -0.70388000        -0.05611000
C        -2.99244000        +0.68477000        +0.07719000
C        -1.80513000        +1.41687000        +0.13452000
H        -3.94378000        +1.20441000        +0.13594000
H        -3.91864000        -1.24474000        -0.10022000
C        -1.81546000        +2.92210000        +0.24949000
C        -1.75732000        -2.91589000        -0.24640000
H        -1.03160000        -3.25185000        -0.99235000
H        -2.73712000        -3.30600000        -0.53105000
H        -1.48213000        -3.37940000        +0.70725000
H        -1.54006000        +3.39064000        -0.70147000
H        -1.10219000        +3.26991000        +1.00208000
H        -2.80465000        +3.29345000        +0.52612000
H        +0.36601000        -1.19708000        -0.13515000
H        +0.34176000        +1.25035000        +0.10232000
--
0  1
C        -0.54745000        -1.06780000        +4.00559000
C        -0.56142000        +0.31696000        +4.13911000
C        -1.73924000        -1.80214000        +3.94851000
C        -2.94119000        -1.09612000        +4.02492000
C        -2.95535000        +0.29253000        +4.15822000
C        -1.76804000        +1.02463000        +4.21555000
H        -3.90669000        +0.81217000        +4.21697000
H        -3.88155000        -1.63698000        +3.98081000
C        -1.77837000        +2.52986000        +4.33052000
C        -1.72023000        -3.30813000        +3.83463000
H        -0.99451000        -3.64409000        +3.08868000
H        -2.70003000        -3.69824000        +3.54998000
H        -1.44504000        -3.77164000        +4.78828000
H        -1.50297000        +2.99840000        +3.37956000
H        -1.06510000        +2.87767000        +5.08311000
H        -2.76756000        +2.90121000        +4.60715000
H        +0.40310000        -1.58932000        +3.94588000
H        +0.37885000        +0.85811000        +4.18335000
$end

$rem
JOBTYPE                   SP
METHOD                    B3LYP
DFT_D                     d3_op
BASIS                     6-311++G(d,p)
SYMMETRY                  False
THRESH                    12
SCF_CONVERGENCE           8
MAX_SUB_FILE_NUM          128
MEM_STATIC                400
MEM_TOTAL                 4000
$end
--------------------------------------------------------------

             Standard Nuclear Orientation (Angstroms)
    I     Atom           X                Y                Z
 ----------------------------------------------------------------
    1      C       2.0081056707    -0.8089561302     1.1967458955
    2      C       2.0859803795     0.5801149139     1.1963295997
    3      C       1.9647343209    -1.5324456004    -0.0022364558
    4      C       2.0076511447    -0.8119481463    -1.1972377511
    5      C       2.0863342465     0.5809362244    -1.1978011532
    6      C       2.1291621896     1.3022908473    -0.0033240918
    7      H       2.1160785567     1.1122272366    -2.1440411989
    8      H       1.9783519256    -1.3445530339    -2.1428728555
    9      C       2.2435817352     2.8075910647     0.0013219384
   10      C       1.8490391150    -3.0384118692     0.0017799137
   11      H       2.5285161328    -3.4902048008     0.7299105145
   12      H       2.0807025321    -3.4581000620    -0.9797563091
   13      H       0.8335996440    -3.3545777034     0.2643465234
   14      H       3.2518475173     3.1240597051     0.2893280592
   15      H       1.5455455973     3.2588351381     0.7121256620
   16      H       2.0358742568     3.2256757652    -0.9860911576
   17      H       1.9790330979    -1.3422435391     2.1421839008
   18      H       2.1151958855     1.1130269692     2.1418767262
   19      C      -2.0854211555    -0.5785828026     1.1967294390
   20      C      -2.0075464467     0.8104882414     1.1963131433
   21      C      -2.1287925053    -1.3020722728    -0.0022529122
   22      C      -2.0858756815    -0.5815748187    -1.1972542076
   23      C      -2.0071925797     0.8113095520    -1.1978176097
   24      C      -1.9643646365     1.5326641748    -0.0033405482
   25      H      -1.9774482694     1.3426005642    -2.1440576554
   26      H      -2.1151749005    -1.1141797064    -2.1428893120
   27      C      -1.8499450909     3.0379643923     0.0013054819
   28      C      -2.2444877111    -2.8080385416     0.0017634573
   29      H      -1.5650106934    -3.2598314732     0.7298940580
   30      H      -2.0128242941    -3.2277267344    -0.9797727655
   31      H      -3.2599271822    -3.1242043758     0.2643300670
   32      H      -0.8416793089     3.3544330327     0.2893116027
   33      H      -2.5479812288     3.4892084656     0.7121092055
   34      H      -2.0576525693     3.4560490928    -0.9861076141
   35      H      -2.1144937282    -1.1118702115     2.1421674444
   36      H      -1.9783309407     1.3434002968     2.1418602698
 ----------------------------------------------------------------

   13    -621.9658118888      7.41E-09 Convergence criterion met
 Total energy in the final basis set = -621.96581189

                    Orbital Energies (a.u.)
 --------------------------------------------------------------

 Alpha MOs
 -- Occupied --
-10.176 -10.176 -10.176 -10.176 -10.166 -10.166 -10.166 -10.166
-10.166 -10.166 -10.166 -10.166 -10.165 -10.165 -10.165 -10.165
 -0.856  -0.855  -0.785  -0.783  -0.741  -0.740  -0.719  -0.717
 -0.655  -0.654  -0.605  -0.604  -0.572  -0.571  -0.491  -0.490
 -0.470  -0.469  -0.450  -0.449  -0.430  -0.422  -0.415  -0.415
 -0.414  -0.408  -0.401  -0.398  -0.396  -0.395  -0.373  -0.372
 -0.348  -0.339  -0.339  -0.336  -0.334  -0.333  -0.255  -0.243
 -0.238  -0.227

          Ground-State Mulliken Net Atomic Charges

     Atom                 Charge (a.u.)
  ----------------------------------------
      1 C                    -0.405342
      2 C                    -0.306946
      3 C                     0.560552
      4 C                    -0.422926
      5 C                    -0.346362
      6 C                     0.589561
      7 H                     0.158355
      8 H                     0.168479
      9 C                    -0.542018
     10 C                    -0.685259
     11 H                     0.140468
     12 H                     0.136223
     13 H                     0.183473
     14 H                     0.162041
     15 H                     0.127569
     16 H                     0.134630
     17 H                     0.173107
     18 H                     0.174378
     19 C                    -0.307949
     20 C                    -0.403879
     21 C                     0.600522
     22 C                    -0.348484
     23 C                    -0.422925
     24 C                     0.547853
     25 H                     0.168000
     26 H                     0.158878
     27 C                    -0.680058
     28 C                    -0.542869
     29 H                     0.127358
     30 H                     0.134515
     31 H                     0.162409
     32 H                     0.182170
     33 H                     0.141118
     34 H                     0.135832
     35 H                     0.173858
     36 H                     0.173666
  ----------------------------------------
  Sum of atomic charges =     0.000000

                    Cartesian Multipole Moments
 -----------------------------------------------------------------
    Charge (ESU x 10^10)
                 0.0000
    Dipole Moment (Debye)
         X      -0.0052      Y       0.0005      Z       0.0748
       Tot       0.0750
    Quadrupole Moments (Debye-Ang)
        XX    -106.7830     XY       1.2531     YY     -90.8705
        XZ      -0.0001     YZ       0.0075     ZZ     -92.4552

 Total job time:  185.53s(wall), 736.46s(cpu)
        *  Thank you very much for using Q-Chem.  Have a nice day.  *
