 Q-Chem 5.0, Q-Chem, Inc., Pleasanton, CA (2017)
 Q-Chem 5.0.1 for Intel X86 EM64T Linux

User input:
--------------------------------------------------------------
$molecule
0  1
C        +0.22270000        +1.04488000        +0.58595000
C        +0.62626000        -0.41353000        +0.99871000
C        -1.18200000        +1.23223000        +0.04377000
C        -0.37457000        -1.51643000        +0.72333000
O        -2.09172000        +0.78832000        +0.93966000
O        -1.47336000        +1.75939000        -0.99882000
O        -0.91364000        -1.42792000        -0.50620000
O        -0.62208000        -2.40877000        +1.49911000
C        -1.86134000        -2.44741000        -0.86560000
C        -3.47068000        +0.87492000        +0.53920000
C        +1.33008000        +1.39974000        -0.43491000
C        +2.63070000        +1.71700000        +0.32855000
C        +3.04336000        +0.29351000        +0.80300000
C        +1.94423000        -0.59299000        +0.15262000
O        +1.62840000        +0.13663000        -1.04376000
H        +0.27811000        +1.68786000        +1.46900000
H        +0.83923000        -0.48042000        +2.06408000
H        -2.68749000        -2.46677000        -0.15296000
H        -3.76076000        +1.91522000        +0.38406000
H        +3.37234000        +2.13782000        -0.35195000
H        +2.48236000        +2.42488000        +1.14651000
H        +4.02182000        +0.00994000        +0.41161000
H        +3.07359000        +0.18738000        +1.88928000
H        -2.21148000        -2.17765000        -1.85937000
H        -1.38062000        -3.42697000        -0.88096000
H        -4.03855000        +0.43623000        +1.35671000
H        -3.63120000        +0.31700000        -0.38495000
H        +1.03270000        +2.19943000        -1.08064000
H        +2.24339000        -1.61496000        +0.04786000
@C        +0.24618000        +2.37458000        +4.88494000
@C        +0.64974000        +0.91617000        +5.29770000
@C        -1.15852000        +2.56193000        +4.34276000
@C        -0.35109000        -0.18673000        +5.02232000
@O        -2.06824000        +2.11802000        +5.23865000
@O        -1.44988000        +3.08909000        +3.30017000
@O        -0.89016000        -0.09822000        +3.79279000
@O        -0.59860000        -1.07907000        +5.79810000
@C        -1.83786000        -1.11771000        +3.43339000
@C        -3.44720000        +2.20462000        +4.83819000
@C        +1.35356000        +2.72944000        +3.86408000
@C        +2.65418000        +3.04670000        +4.62754000
@C        +3.06684000        +1.62321000        +5.10199000
@C        +1.96771000        +0.73671000        +4.45161000
@O        +1.65188000        +1.46633000        +3.25523000
@H        +0.30159000        +3.01756000        +5.76799000
@H        +0.86271000        +0.84928000        +6.36307000
@H        -2.66401000        -1.13707000        +4.14603000
@H        -3.73728000        +3.24492000        +4.68305000
@H        +3.39582000        +3.46752000        +3.94704000
@H        +2.50584000        +3.75458000        +5.44550000
@H        +4.04530000        +1.33964000        +4.71060000
@H        +3.09707000        +1.51708000        +6.18827000
@H        -2.18800000        -0.84795000        +2.43962000
@H        -1.35714000        -2.09727000        +3.41803000
@H        -4.01507000        +1.76593000        +5.65570000
@H        -3.60772000        +1.64670000        +3.91404000
@H        +1.05618000        +3.52913000        +3.21835000
@H        +2.26687000        -0.28526000        +4.34685000
$end

$rem
JOBTYPE                   SP
METHOD                    B3LYP
DFT_D                     d3_op
BASIS                     6-311++G(d,p)
SYMMETRY                  False
THRESH                    12
SCF_CONVERGENCE           8
MAX_SUB_FILE_NUM          128
MEM_STATIC                400
MEM_TOTAL                 4000
$end
--------------------------------------------------------------

             Standard Nuclear Orientation (Angstroms)
    I     Atom           X                Y                Z
 ----------------------------------------------------------------
    1      C       0.2227000000     1.0448800000     0.5859500000
    2      C       0.6262600000    -0.4135300000     0.9987100000
    3      C      -1.1820000000     1.2322300000     0.0437700000
    4      C      -0.3745700000    -1.5164300000     0.7233300000
    5      O      -2.0917200000     0.7883200000     0.9396600000
    6      O      -1.4733600000     1.7593900000    -0.9988200000
    7      O      -0.9136400000    -1.4279200000    -0.5062000000
    8      O      -0.6220800000    -2.4087700000     1.4991100000
    9      C      -1.8613400000    -2.4474100000    -0.8656000000
   10      C      -3.4706800000     0.8749200000     0.5392000000
   11      C       1.3300800000     1.3997400000    -0.4349100000
   12      C       2.6307000000     1.7170000000     0.3285500000
   13      C       3.0433600000     0.2935100000     0.8030000000
   14      C       1.9442300000    -0.5929900000     0.1526200000
   15      O       1.6284000000     0.1366300000    -1.0437600000
   16      H       0.2781100000     1.6878600000     1.4690000000
   17      H       0.8392300000    -0.4804200000     2.0640800000
   18      H      -2.6874900000    -2.4667700000    -0.1529600000
   19      H      -3.7607600000     1.9152200000     0.3840600000
   20      H       3.3723400000     2.1378200000    -0.3519500000
   21      H       2.4823600000     2.4248800000     1.1465100000
   22      H       4.0218200000     0.0099400000     0.4116100000
   23      H       3.0735900000     0.1873800000     1.8892800000
   24      H      -2.2114800000    -2.1776500000    -1.8593700000
   25      H      -1.3806200000    -3.4269700000    -0.8809600000
   26      H      -4.0385500000     0.4362300000     1.3567100000
   27      H      -3.6312000000     0.3170000000    -0.3849500000
   28      H       1.0327000000     2.1994300000    -1.0806400000
   29      H       2.2433900000    -1.6149600000     0.0478600000
   30      GH      0.2461800000     2.3745800000     4.8849400000
   31      GH      0.6497400000     0.9161700000     5.2977000000
   32      GH     -1.1585200000     2.5619300000     4.3427600000
   33      GH     -0.3510900000    -0.1867300000     5.0223200000
   34      GH     -2.0682400000     2.1180200000     5.2386500000
   35      GH     -1.4498800000     3.0890900000     3.3001700000
   36      GH     -0.8901600000    -0.0982200000     3.7927900000
   37      GH     -0.5986000000    -1.0790700000     5.7981000000
   38      GH     -1.8378600000    -1.1177100000     3.4333900000
   39      GH     -3.4472000000     2.2046200000     4.8381900000
   40      GH      1.3535600000     2.7294400000     3.8640800000
   41      GH      2.6541800000     3.0467000000     4.6275400000
   42      GH      3.0668400000     1.6232100000     5.1019900000
   43      GH      1.9677100000     0.7367100000     4.4516100000
   44      GH      1.6518800000     1.4663300000     3.2552300000
   45      GH      0.3015900000     3.0175600000     5.7679900000
   46      GH      0.8627100000     0.8492800000     6.3630700000
   47      GH     -2.6640100000    -1.1370700000     4.1460300000
   48      GH     -3.7372800000     3.2449200000     4.6830500000
   49      GH      3.3958200000     3.4675200000     3.9470400000
   50      GH      2.5058400000     3.7545800000     5.4455000000
   51      GH      4.0453000000     1.3396400000     4.7106000000
   52      GH      3.0970700000     1.5170800000     6.1882700000
   53      GH     -2.1880000000    -0.8479500000     2.4396200000
   54      GH     -1.3571400000    -2.0972700000     3.4180300000
   55      GH     -4.0150700000     1.7659300000     5.6557000000
   56      GH     -3.6077200000     1.6467000000     3.9140400000
   57      GH      1.0561800000     3.5291300000     3.2183500000
   58      GH      2.2668700000    -0.2852600000     4.3468500000
 ----------------------------------------------------------------

   14    -765.8596540165      6.75E-09 Convergence criterion met
 Total energy in the final basis set = -765.85965402

                    Orbital Energies (a.u.)
 --------------------------------------------------------------

 Alpha MOs
 -- Occupied --
-19.176 -19.174 -19.136 -19.120 -19.116 -10.310 -10.306 -10.242
-10.232 -10.232 -10.230 -10.207 -10.206 -10.182 -10.180  -1.120
 -1.113  -1.065  -1.031  -1.027  -0.833  -0.785  -0.778  -0.740
 -0.729  -0.659  -0.610  -0.596  -0.580  -0.567  -0.551  -0.520
 -0.506  -0.496  -0.489  -0.484  -0.475  -0.473  -0.462  -0.439
 -0.427  -0.425  -0.418  -0.399  -0.385  -0.376  -0.371  -0.368
 -0.362  -0.356  -0.337  -0.334  -0.320  -0.313  -0.290  -0.282
 -0.276

          Ground-State Mulliken Net Atomic Charges

     Atom                 Charge (a.u.)
  ----------------------------------------
      1 C                    -0.062406
      2 C                     0.785219
      3 C                    -0.513953
      4 C                    -0.574889
      5 O                     0.021813
      6 O                    -0.152814
      7 O                     0.037256
      8 O                    -0.079148
      9 C                    -0.164476
     10 C                    -0.321643
     11 C                    -0.522234
     12 C                    -0.243754
     13 C                    -0.486559
     14 C                    -0.401560
     15 O                    -0.094232
     16 H                     0.216637
     17 H                     0.401947
     18 H                     0.186268
     19 H                     0.194696
     20 H                     0.214029
     21 H                     0.120052
     22 H                     0.204756
     23 H                     0.102135
     24 H                     0.178458
     25 H                     0.172912
     26 H                     0.129410
     27 H                     0.196399
     28 H                     0.274615
     29 H                     0.265688
     30 GH                    0.024080
     31 GH                   -0.005650
     32 GH                   -0.025179
     33 GH                    0.026591
     34 GH                    0.002401
     35 GH                   -0.014704
     36 GH                    0.022805
     37 GH                    0.001435
     38 GH                   -0.052420
     39 GH                    0.007225
     40 GH                   -0.069022
     41 GH                   -0.003648
     42 GH                    0.002879
     43 GH                   -0.050773
     44 GH                    0.013833
     45 GH                   -0.000136
     46 GH                    0.000349
     47 GH                   -0.004273
     48 GH                    0.000925
     49 GH                    0.001546
     50 GH                   -0.000131
     51 GH                    0.002746
     52 GH                   -0.000396
     53 GH                    0.040214
     54 GH                    0.003307
     55 GH                   -0.000291
     56 GH                   -0.010035
     57 GH                    0.004081
     58 GH                   -0.002384
  ----------------------------------------
  Sum of atomic charges =     0.000000

                    Cartesian Multipole Moments
 -----------------------------------------------------------------
    Charge (ESU x 10^10)
                 0.0000
    Dipole Moment (Debye)
         X      -0.0052      Y       0.7226      Z       1.2207
       Tot       1.4185
    Quadrupole Moments (Debye-Ang)
        XX     -75.2546     XY       2.9679     YY     -89.6909
        XZ       3.3311     YZ      10.6709     ZZ     -95.7874

 Total job time:  7457.67s(wall), 7430.33s(cpu)
        *  Thank you very much for using Q-Chem.  Have a nice day.  *
