 Q-Chem 5.0, Q-Chem, Inc., Pleasanton, CA (2017)
 Q-Chem 5.0.1 for Intel X86 EM64T Linux

User input:
--------------------------------------------------------------
$molecule
0  1
--
0  1
C        +0.22270000        +1.04488000        +0.58595000
C        +0.62626000        -0.41353000        +0.99871000
C        -1.18200000        +1.23223000        +0.04377000
C        -0.37457000        -1.51643000        +0.72333000
O        -2.09172000        +0.78832000        +0.93966000
O        -1.47336000        +1.75939000        -0.99882000
O        -0.91364000        -1.42792000        -0.50620000
O        -0.62208000        -2.40877000        +1.49911000
C        -1.86134000        -2.44741000        -0.86560000
C        -3.47068000        +0.87492000        +0.53920000
C        +1.33008000        +1.39974000        -0.43491000
C        +2.63070000        +1.71700000        +0.32855000
C        +3.04336000        +0.29351000        +0.80300000
C        +1.94423000        -0.59299000        +0.15262000
O        +1.62840000        +0.13663000        -1.04376000
H        +0.27811000        +1.68786000        +1.46900000
H        +0.83923000        -0.48042000        +2.06408000
H        -2.68749000        -2.46677000        -0.15296000
H        -3.76076000        +1.91522000        +0.38406000
H        +3.37234000        +2.13782000        -0.35195000
H        +2.48236000        +2.42488000        +1.14651000
H        +4.02182000        +0.00994000        +0.41161000
H        +3.07359000        +0.18738000        +1.88928000
H        -2.21148000        -2.17765000        -1.85937000
H        -1.38062000        -3.42697000        -0.88096000
H        -4.03855000        +0.43623000        +1.35671000
H        -3.63120000        +0.31700000        -0.38495000
H        +1.03270000        +2.19943000        -1.08064000
H        +2.24339000        -1.61496000        +0.04786000
--
0  1
C        +0.24618000        +2.37458000        +4.88494000
C        +0.64974000        +0.91617000        +5.29770000
C        -1.15852000        +2.56193000        +4.34276000
C        -0.35109000        -0.18673000        +5.02232000
O        -2.06824000        +2.11802000        +5.23865000
O        -1.44988000        +3.08909000        +3.30017000
O        -0.89016000        -0.09822000        +3.79279000
O        -0.59860000        -1.07907000        +5.79810000
C        -1.83786000        -1.11771000        +3.43339000
C        -3.44720000        +2.20462000        +4.83819000
C        +1.35356000        +2.72944000        +3.86408000
C        +2.65418000        +3.04670000        +4.62754000
C        +3.06684000        +1.62321000        +5.10199000
C        +1.96771000        +0.73671000        +4.45161000
O        +1.65188000        +1.46633000        +3.25523000
H        +0.30159000        +3.01756000        +5.76799000
H        +0.86271000        +0.84928000        +6.36307000
H        -2.66401000        -1.13707000        +4.14603000
H        -3.73728000        +3.24492000        +4.68305000
H        +3.39582000        +3.46752000        +3.94704000
H        +2.50584000        +3.75458000        +5.44550000
H        +4.04530000        +1.33964000        +4.71060000
H        +3.09707000        +1.51708000        +6.18827000
H        -2.18800000        -0.84795000        +2.43962000
H        -1.35714000        -2.09727000        +3.41803000
H        -4.01507000        +1.76593000        +5.65570000
H        -3.60772000        +1.64670000        +3.91404000
H        +1.05618000        +3.52913000        +3.21835000
H        +2.26687000        -0.28526000        +4.34685000
$end

$rem
JOBTYPE                   SP
METHOD                    B3LYP
DFT_D                     d3_op
BASIS                     6-311++G(d,p)
SYMMETRY                  False
THRESH                    12
SCF_CONVERGENCE           8
MAX_SUB_FILE_NUM          128
MEM_STATIC                400
MEM_TOTAL                 4000
$end
--------------------------------------------------------------

             Standard Nuclear Orientation (Angstroms)
    I     Atom           X                Y                Z
 ----------------------------------------------------------------
    1      C      -1.4181128571     0.6843640552     0.8861523758
    2      C      -1.5452911837     0.7872036737    -0.6737966315
    3      C      -2.0195760992    -0.5477968201     1.5359698967
    4      C      -2.3434908549    -0.2895492200    -1.3790368275
    5      O      -1.4823332842    -1.6672332252     1.0016500008
    6      O      -2.8101689845    -0.5540254658     2.4441033214
    7      O      -3.5035902637    -0.5631706592    -0.7549573648
    8      O      -2.0040926597    -0.8074034452    -2.4163421589
    9      C      -4.3402892181    -1.5601852351    -1.3653345477
   10      C      -1.9891593921    -2.9161821375     1.5042953669
   11      C      -2.0789624227     2.0069692941     1.3426219336
   12      C      -1.0955399961     3.1678915355     1.0971074862
   13      C      -1.1517611507     3.2726886573    -0.4545276524
   14      C      -2.2232955668     2.2038474814    -0.8099931038
   15      O      -3.0806541055     2.2325659143     0.3421920487
   16      H      -0.3572487499     0.6602724365     1.1512142384
   17      H      -0.5682331015     0.7790197638    -1.1535197365
   18      H      -3.7985876338    -2.5022425245    -1.4645406900
   19      H      -1.7711398794    -3.0185324337     2.5684526978
   20      H      -1.4653869515     4.0793497747     1.5689726362
   21      H      -0.0951246096     2.9678800787     1.4861086215
   22      H      -1.4955650869     4.2571988795    -0.7762737079
   23      H      -0.1934372864     3.0774568656    -0.9399981323
   24      H      -5.1916512499    -1.6698289099    -0.6974211959
   25      H      -4.6674059338    -1.2312041896    -2.3530751855
   26      H      -1.4788242358    -3.6879310370     0.9322730618
   27      H      -3.0684369964    -2.9739899554     1.3529258573
   28      H      -2.4029277106     1.9575375267     2.3612038822
   29      H      -2.6712456475     2.3677293023    -1.7677913697
   30      C       3.0293398079     0.0695554897     0.5826006647
   31      C       2.9021614812     0.1723951082    -0.9773483426
   32      C       2.4278765658    -1.1626053857     1.2324181856
   33      C       2.1039618100    -0.9043577856    -1.6825885386
   34      O       2.9651193808    -2.2820417908     0.6980982896
   35      O       1.6372836804    -1.1688340314     2.1405516103
   36      O       0.9438624013    -1.1779792247    -1.0585090759
   37      O       2.4433600052    -1.4222120107    -2.7198938700
   38      C       0.1071634469    -2.1749938006    -1.6688862588
   39      C       2.4582932729    -3.5309907030     1.2007436558
   40      C       2.3684902422     1.3921607286     1.0390702225
   41      C       3.3519126689     2.5530829700     0.7935557751
   42      C       3.2956915143     2.6578800918    -0.7580793635
   43      C       2.2241570981     1.5890389159    -1.1135448149
   44      O       1.3667985595     1.6177573487     0.0386403375
   45      H       4.0902039151     0.0454638710     0.8476625273
   46      H       3.8792195634     0.1642111983    -1.4570714476
   47      H       0.6488650311    -3.1170510900    -1.7680924011
   48      H       2.6763127856    -3.6333409992     2.2649009867
   49      H       2.9820657134     3.4645412092     1.2654209251
   50      H       4.3523280553     2.3530715132     1.1825569104
   51      H       2.9518875780     3.6423903140    -1.0798254190
   52      H       4.2540153785     2.4626483001    -1.2435498434
   53      H      -0.7441985849    -2.2846374754    -1.0009729070
   54      H      -0.2199532688    -1.8460127551    -2.6566268966
   55      H       2.9686284292    -4.3027396025     0.6287213507
   56      H       1.3790156686    -3.5887985209     1.0493741462
   57      H       2.0445249544     1.3427289612     2.0576521711
   58      H       1.7762070175     1.7529207368    -2.0713430808
 ----------------------------------------------------------------

   15   -1531.7216321806      4.93E-09 Convergence criterion met
 Total energy in the final basis set = -1531.72163218

                    Orbital Energies (a.u.)
 --------------------------------------------------------------

 Alpha MOs
 -- Occupied --
-19.181 -19.170 -19.169 -19.167 -19.152 -19.127 -19.123 -19.114
-19.113 -19.108 -10.317 -10.305 -10.301 -10.298 -10.254 -10.245
-10.236 -10.230 -10.229 -10.228 -10.217 -10.215 -10.213 -10.206
-10.192 -10.191 -10.190 -10.186 -10.167 -10.164  -1.124  -1.115
 -1.111  -1.107  -1.082  -1.052  -1.038  -1.027  -1.024  -1.021
 -0.842  -0.818  -0.794  -0.787  -0.772  -0.765  -0.744  -0.733
 -0.725  -0.722  -0.664  -0.647  -0.619  -0.608  -0.600  -0.586
 -0.583  -0.573  -0.568  -0.561  -0.556  -0.542  -0.527  -0.516
 -0.511  -0.501  -0.500  -0.493  -0.489  -0.487  -0.480  -0.479
 -0.476  -0.474  -0.468  -0.466  -0.463  -0.450  -0.448  -0.432
 -0.431  -0.425  -0.423  -0.415  -0.415  -0.409  -0.401  -0.393
 -0.387  -0.380  -0.378  -0.376  -0.371  -0.369  -0.367  -0.365
 -0.357  -0.354  -0.350  -0.348  -0.344  -0.340  -0.325  -0.324
 -0.319  -0.316  -0.307  -0.302  -0.297  -0.293  -0.281  -0.281
 -0.274  -0.262

          Ground-State Mulliken Net Atomic Charges

     Atom                 Charge (a.u.)
  ----------------------------------------
      1 C                     0.165422
      2 C                     0.809003
      3 C                    -0.644511
      4 C                    -0.663366
      5 O                    -0.001407
      6 O                    -0.161926
      7 O                     0.048836
      8 O                    -0.070969
      9 C                    -0.164557
     10 C                    -0.300990
     11 C                    -0.587436
     12 C                    -0.172722
     13 C                    -0.467427
     14 C                    -0.461312
     15 O                    -0.103614
     16 H                     0.254523
     17 H                     0.444520
     18 H                     0.181994
     19 H                     0.203104
     20 H                     0.201255
     21 H                     0.116687
     22 H                     0.191780
     23 H                     0.071452
     24 H                     0.179845
     25 H                     0.172478
     26 H                     0.115002
     27 H                     0.196875
     28 H                     0.266502
     29 H                     0.252849
     30 C                    -0.061805
     31 C                     0.186885
     32 C                    -0.608287
     33 C                    -0.438560
     34 O                     0.062239
     35 O                    -0.101119
     36 O                     0.004961
     37 O                    -0.134631
     38 C                    -0.434815
     39 C                    -0.168828
     40 C                    -0.119824
     41 C                    -0.711879
     42 C                    -0.517175
     43 C                    -0.098538
     44 O                     0.250432
     45 H                     0.247083
     46 H                     0.299937
     47 H                     0.215550
     48 H                     0.167905
     49 H                     0.176316
     50 H                     0.144089
     51 H                     0.179625
     52 H                     0.134214
     53 H                     0.108903
     54 H                     0.252073
     55 H                     0.172407
     56 H                     0.190224
     57 H                     0.274916
     58 H                     0.255812
  ----------------------------------------
  Sum of atomic charges =     0.000000

                    Cartesian Multipole Moments
 -----------------------------------------------------------------
    Charge (ESU x 10^10)
                -0.0000
    Dipole Moment (Debye)
         X       3.5885      Y      -0.2505      Z       0.4999
       Tot       3.6318
    Quadrupole Moments (Debye-Ang)
        XX    -173.8057     XY      16.4065     YY    -157.5139
        XZ      16.6769     YZ      -8.4358     ZZ    -194.5450

 Total job time:  8148.48s(wall), 8129.07s(cpu)
        *  Thank you very much for using Q-Chem.  Have a nice day.  *
