 Q-Chem 5.0, Q-Chem, Inc., Pleasanton, CA (2017)
 Q-Chem 5.0.1 for Intel X86 EM64T Linux

User input:
--------------------------------------------------------------
$molecule
0  1
C        -0.54444000        -0.68370000        -0.06689000
C        -0.55709000        +0.71878000        +0.05493000
C        +0.74969000        -1.43776000        -0.09374000
C        +0.72843000        +1.48436000        +0.06598000
O        +1.53645000        -1.09176000        +0.94813000
O        +1.04702000        -2.28405000        -0.90088000
O        +1.53784000        +1.08301000        -0.93877000
O        +1.01035000        +2.37097000        +0.83478000
C        +2.83449000        +1.70121000        -0.99358000
C        +2.82316000        -1.73208000        +1.00475000
C        -1.74320000        -1.41616000        -0.12552000
C        -2.93952000        -0.70056000        -0.05285000
C        -2.95313000        +0.68255000        +0.06934000
C        -1.77161000        +1.42404000        +0.12810000
H        +2.73835000        +2.77989000        -1.12464000
H        +2.70778000        -2.81319000        +1.09555000
H        -3.90354000        +1.20325000        +0.11710000
H        +3.38998000        +1.50093000        -0.07544000
H        +3.33184000        +1.25269000        -1.85067000
H        +3.31095000        -1.32281000        +1.88650000
H        +3.39889000        -1.50934000        +0.10459000
H        -3.87892000        -1.24211000        -0.08988000
H        -1.78886000        +2.45164000        +0.22176000
H        -1.73878000        -2.44393000        -0.21875000
@C        -0.51347000        -1.07606000        +4.41587000
@C        -0.52612000        +0.32642000        +4.53769000
@C        +0.78066000        -1.83012000        +4.38902000
@C        +0.75940000        +1.09200000        +4.54874000
@O        +1.56742000        -1.48412000        +5.43089000
@O        +1.07799000        -2.67641000        +3.58188000
@O        +1.56881000        +0.69065000        +3.54399000
@O        +1.04132000        +1.97861000        +5.31754000
@C        +2.86546000        +1.30885000        +3.48918000
@C        +2.85413000        -2.12444000        +5.48751000
@C        -1.71223000        -1.80852000        +4.35724000
@C        -2.90855000        -1.09292000        +4.42991000
@C        -2.92216000        +0.29019000        +4.55210000
@C        -1.74064000        +1.03168000        +4.61086000
@H        +2.76932000        +2.38753000        +3.35812000
@H        +2.73875000        -3.20555000        +5.57831000
@H        -3.87257000        +0.81089000        +4.59986000
@H        +3.42095000        +1.10857000        +4.40732000
@H        +3.36281000        +0.86033000        +2.63209000
@H        +3.34192000        -1.71517000        +6.36926000
@H        +3.42986000        -1.90170000        +4.58735000
@H        -3.84795000        -1.63447000        +4.39288000
@H        -1.75789000        +2.05928000        +4.70452000
@H        -1.70781000        -2.83629000        +4.26401000
$end

$rem
JOBTYPE                   SP
METHOD                    B3LYP
DFT_D                     d3_op
BASIS                     6-311++G(d,p)
SYMMETRY                  False
THRESH                    12
SCF_CONVERGENCE           8
MAX_SUB_FILE_NUM          128
MEM_STATIC                400
MEM_TOTAL                 4000
$end
--------------------------------------------------------------

             Standard Nuclear Orientation (Angstroms)
    I     Atom           X                Y                Z
 ----------------------------------------------------------------
    1      C      -0.5444400000    -0.6837000000    -0.0668900000
    2      C      -0.5570900000     0.7187800000     0.0549300000
    3      C       0.7496900000    -1.4377600000    -0.0937400000
    4      C       0.7284300000     1.4843600000     0.0659800000
    5      O       1.5364500000    -1.0917600000     0.9481300000
    6      O       1.0470200000    -2.2840500000    -0.9008800000
    7      O       1.5378400000     1.0830100000    -0.9387700000
    8      O       1.0103500000     2.3709700000     0.8347800000
    9      C       2.8344900000     1.7012100000    -0.9935800000
   10      C       2.8231600000    -1.7320800000     1.0047500000
   11      C      -1.7432000000    -1.4161600000    -0.1255200000
   12      C      -2.9395200000    -0.7005600000    -0.0528500000
   13      C      -2.9531300000     0.6825500000     0.0693400000
   14      C      -1.7716100000     1.4240400000     0.1281000000
   15      H       2.7383500000     2.7798900000    -1.1246400000
   16      H       2.7077800000    -2.8131900000     1.0955500000
   17      H      -3.9035400000     1.2032500000     0.1171000000
   18      H       3.3899800000     1.5009300000    -0.0754400000
   19      H       3.3318400000     1.2526900000    -1.8506700000
   20      H       3.3109500000    -1.3228100000     1.8865000000
   21      H       3.3988900000    -1.5093400000     0.1045900000
   22      H      -3.8789200000    -1.2421100000    -0.0898800000
   23      H      -1.7888600000     2.4516400000     0.2217600000
   24      H      -1.7387800000    -2.4439300000    -0.2187500000
   25      GH     -0.5134700000    -1.0760600000     4.4158700000
   26      GH     -0.5261200000     0.3264200000     4.5376900000
   27      GH      0.7806600000    -1.8301200000     4.3890200000
   28      GH      0.7594000000     1.0920000000     4.5487400000
   29      GH      1.5674200000    -1.4841200000     5.4308900000
   30      GH      1.0779900000    -2.6764100000     3.5818800000
   31      GH      1.5688100000     0.6906500000     3.5439900000
   32      GH      1.0413200000     1.9786100000     5.3175400000
   33      GH      2.8654600000     1.3088500000     3.4891800000
   34      GH      2.8541300000    -2.1244400000     5.4875100000
   35      GH     -1.7122300000    -1.8085200000     4.3572400000
   36      GH     -2.9085500000    -1.0929200000     4.4299100000
   37      GH     -2.9221600000     0.2901900000     4.5521000000
   38      GH     -1.7406400000     1.0316800000     4.6108600000
   39      GH      2.7693200000     2.3875300000     3.3581200000
   40      GH      2.7387500000    -3.2055500000     5.5783100000
   41      GH     -3.8725700000     0.8108900000     4.5998600000
   42      GH      3.4209500000     1.1085700000     4.4073200000
   43      GH      3.3628100000     0.8603300000     2.6320900000
   44      GH      3.3419200000    -1.7151700000     6.3692600000
   45      GH      3.4298600000    -1.9017000000     4.5873500000
   46      GH     -3.8479500000    -1.6344700000     4.3928800000
   47      GH     -1.7578900000     2.0592800000     4.7045200000
   48      GH     -1.7078100000    -2.8362900000     4.2640100000
 ----------------------------------------------------------------

   14    -688.2117203742      5.75E-09 Convergence criterion met
 Total energy in the final basis set = -688.21172037

                    Orbital Energies (a.u.)
 --------------------------------------------------------------

 Alpha MOs
 -- Occupied --
-19.179 -19.178 -19.122 -19.122 -10.314 -10.314 -10.233 -10.233
-10.215 -10.214 -10.198 -10.198 -10.197 -10.197  -1.123  -1.116
 -1.033  -1.032  -0.887  -0.800  -0.787  -0.744  -0.733  -0.656
 -0.646  -0.596  -0.579  -0.555  -0.524  -0.516  -0.493  -0.492
 -0.485  -0.479  -0.472  -0.468  -0.440  -0.431  -0.416  -0.408
 -0.389  -0.387  -0.384  -0.369  -0.366  -0.324  -0.315  -0.301
 -0.297  -0.275  -0.272

          Ground-State Mulliken Net Atomic Charges

     Atom                 Charge (a.u.)
  ----------------------------------------
      1 C                     0.883880
      2 C                     0.729420
      3 C                    -0.637736
      4 C                    -0.801222
      5 O                     0.087335
      6 O                    -0.157003
      7 O                     0.103717
      8 O                    -0.111721
      9 C                    -0.157103
     10 C                    -0.391846
     11 C                    -0.237490
     12 C                    -0.315383
     13 C                    -0.289131
     14 C                    -0.488397
     15 H                     0.169337
     16 H                     0.209432
     17 H                     0.184558
     18 H                     0.187387
     19 H                     0.171596
     20 H                     0.113489
     21 H                     0.196355
     22 H                     0.182233
     23 H                     0.201885
     24 H                     0.207806
     25 GH                   -0.066166
     26 GH                   -0.086483
     27 GH                    0.083540
     28 GH                   -0.007415
     29 GH                   -0.000091
     30 GH                   -0.001313
     31 GH                   -0.006106
     32 GH                    0.001428
     33 GH                    0.003510
     34 GH                   -0.013512
     35 GH                    0.031660
     36 GH                    0.009376
     37 GH                   -0.005827
     38 GH                    0.016932
     39 GH                    0.003255
     40 GH                    0.000776
     41 GH                   -0.000144
     42 GH                    0.001759
     43 GH                   -0.011115
     44 GH                   -0.000969
     45 GH                    0.004121
     46 GH                    0.000611
     47 GH                    0.001216
     48 GH                   -0.000441
  ----------------------------------------
  Sum of atomic charges =     0.000000

                    Cartesian Multipole Moments
 -----------------------------------------------------------------
    Charge (ESU x 10^10)
                 0.0000
    Dipole Moment (Debye)
         X      -0.0491      Y      -0.1133      Z       0.0833
       Tot       0.1489
    Quadrupole Moments (Debye-Ang)
        XX     -61.3859     XY      -0.0431     YY     -84.3450
        XZ       0.0725     YZ      -9.7023     ZZ     -87.0105

 Total job time:  1289.87s(wall), 2563.19s(cpu)
        *  Thank you very much for using Q-Chem.  Have a nice day.  *
