 Q-Chem 5.0, Q-Chem, Inc., Pleasanton, CA (2017)
 Q-Chem 5.0.1 for Intel X86 EM64T Linux

User input:
--------------------------------------------------------------
$molecule
0  1
--
0  1
C        -0.54444000        -0.68370000        -0.06689000
C        -0.55709000        +0.71878000        +0.05493000
C        +0.74969000        -1.43776000        -0.09374000
C        +0.72843000        +1.48436000        +0.06598000
O        +1.53645000        -1.09176000        +0.94813000
O        +1.04702000        -2.28405000        -0.90088000
O        +1.53784000        +1.08301000        -0.93877000
O        +1.01035000        +2.37097000        +0.83478000
C        +2.83449000        +1.70121000        -0.99358000
C        +2.82316000        -1.73208000        +1.00475000
C        -1.74320000        -1.41616000        -0.12552000
C        -2.93952000        -0.70056000        -0.05285000
C        -2.95313000        +0.68255000        +0.06934000
C        -1.77161000        +1.42404000        +0.12810000
H        +2.73835000        +2.77989000        -1.12464000
H        +2.70778000        -2.81319000        +1.09555000
H        -3.90354000        +1.20325000        +0.11710000
H        +3.38998000        +1.50093000        -0.07544000
H        +3.33184000        +1.25269000        -1.85067000
H        +3.31095000        -1.32281000        +1.88650000
H        +3.39889000        -1.50934000        +0.10459000
H        -3.87892000        -1.24211000        -0.08988000
H        -1.78886000        +2.45164000        +0.22176000
H        -1.73878000        -2.44393000        -0.21875000
--
0  1
C        -0.51347000        -1.07606000        +4.41587000
C        -0.52612000        +0.32642000        +4.53769000
C        +0.78066000        -1.83012000        +4.38902000
C        +0.75940000        +1.09200000        +4.54874000
O        +1.56742000        -1.48412000        +5.43089000
O        +1.07799000        -2.67641000        +3.58188000
O        +1.56881000        +0.69065000        +3.54399000
O        +1.04132000        +1.97861000        +5.31754000
C        +2.86546000        +1.30885000        +3.48918000
C        +2.85413000        -2.12444000        +5.48751000
C        -1.71223000        -1.80852000        +4.35724000
C        -2.90855000        -1.09292000        +4.42991000
C        -2.92216000        +0.29019000        +4.55210000
C        -1.74064000        +1.03168000        +4.61086000
H        +2.76932000        +2.38753000        +3.35812000
H        +2.73875000        -3.20555000        +5.57831000
H        -3.87257000        +0.81089000        +4.59986000
H        +3.42095000        +1.10857000        +4.40732000
H        +3.36281000        +0.86033000        +2.63209000
H        +3.34192000        -1.71517000        +6.36926000
H        +3.42986000        -1.90170000        +4.58735000
H        -3.84795000        -1.63447000        +4.39288000
H        -1.75789000        +2.05928000        +4.70452000
H        -1.70781000        -2.83629000        +4.26401000
$end

$rem
JOBTYPE                   SP
METHOD                    B3LYP
DFT_D                     d3_op
BASIS                     6-311++G(d,p)
SYMMETRY                  False
THRESH                    12
SCF_CONVERGENCE           8
MAX_SUB_FILE_NUM          128
MEM_STATIC                400
MEM_TOTAL                 4000
$end
--------------------------------------------------------------

             Standard Nuclear Orientation (Angstroms)
    I     Atom           X                Y                Z
 ----------------------------------------------------------------
    1      C      -2.2020542160     0.7982137559     0.8769411520
    2      C      -2.3158780558     0.8182269261    -0.5261247381
    3      C      -2.0826621211    -0.4990543994     1.6164955610
    4      C      -2.4125079017    -0.4640023113    -1.2912047111
    5      O      -1.1008742398    -1.2672169324     1.0966693657
    6      O      -2.7327378271    -0.8128714303     2.5834533265
    7      O      -3.3235646617    -1.2913815117    -0.7333802119
    8      O      -1.7979107161    -0.7298299954    -2.2953040888
    9      C      -3.4603903091    -2.5863871587    -1.3422444949
   10      C      -0.9182606705    -2.5552565744     1.7102199470
   11      C      -2.1564986524     1.9930381339     1.6167249463
   12      C      -2.2227812237     3.1931181462     0.9068232517
   13      C      -2.3330271931     3.2140232709    -0.4771990395
   14      C      -2.3802285244     2.0364730684    -1.2257958757
   15      H      -3.7708672069    -2.4882987856    -2.3833750980
   16      H      -0.6503718967    -2.4425276936     2.7618300557
   17      H      -2.3875498426     4.1670734774    -0.9923798428
   18      H      -2.5131568430    -3.1274380786    -1.3013184529
   19      H      -4.2228793662    -3.0994987438    -0.7604735607
   20      H      -0.1095438350    -3.0268878435     1.1566270409
   21      H      -1.8338564957    -3.1448818980     1.6367867892
   22      H      -2.1836984655     4.1297048098     1.4530813802
   23      H      -2.4594119203     2.0591894567    -2.2545064635
   24      H      -2.0770632227     1.9831563451     2.6456150789
   25      C       2.2833346440     0.8395951435     0.5169174255
   26      C       2.1695108042     0.8596083137    -0.8861484646
   27      C       2.4027267389    -0.4576730118     1.2564718345
   28      C       2.0728809583    -0.4226209237    -1.6512284376
   29      O       3.3845146202    -1.2258355448     0.7366456392
   30      O       1.7526510329    -0.7714900427     2.2234296000
   31      O       1.1618241983    -1.2500001241    -1.0934039384
   32      O       2.6874781438    -0.6884486078    -2.6553278153
   33      C       1.0249985509    -2.5450057711    -1.7022682214
   34      C       3.5671281895    -2.5138751868     1.3501962205
   35      C       2.3288902075     2.0344195215     1.2567012198
   36      C       2.2626076362     3.2344995338     0.5467995252
   37      C       2.1523616669     3.2554046585    -0.8372227660
   38      C       2.1051603356     2.0778544560    -1.5858196021
   39      H       0.7145216531    -2.4469173980    -2.7433988245
   40      H       3.8350169633    -2.4011463060     2.4018063292
   41      H       2.0978390174     4.2084548650    -1.3524035693
   42      H       1.9722320170    -3.0860566910    -1.6613421793
   43      H       0.2625094938    -3.0581173562    -1.1204972871
   44      H       4.3758450249    -2.9855064559     0.7966033144
   45      H       2.6515323642    -3.1035005104     1.2767630627
   46      H       2.3016903945     4.1710861974     1.0930576537
   47      H       2.0259769397     2.1005708443    -2.6145301900
   48      H       2.4083256373     2.0245377327     2.2855913524
 ----------------------------------------------------------------

   15   -1376.4293714173      7.06E-09 Convergence criterion met
 Total energy in the final basis set = -1376.42937142

                    Orbital Energies (a.u.)
 --------------------------------------------------------------

 Alpha MOs
 -- Occupied --
-19.178 -19.177 -19.169 -19.168 -19.121 -19.121 -19.115 -19.113
-10.313 -10.313 -10.307 -10.306 -10.235 -10.234 -10.226 -10.225
-10.211 -10.211 -10.210 -10.210 -10.195 -10.195 -10.195 -10.194
-10.194 -10.194 -10.194 -10.193  -1.121  -1.120  -1.110  -1.109
 -1.032  -1.032  -1.025  -1.023  -0.884  -0.883  -0.796  -0.796
 -0.784  -0.783  -0.741  -0.740  -0.729  -0.727  -0.653  -0.652
 -0.643  -0.642  -0.593  -0.592  -0.575  -0.574  -0.552  -0.549
 -0.521  -0.519  -0.514  -0.510  -0.492  -0.491  -0.487  -0.486
 -0.483  -0.478  -0.477  -0.471  -0.468  -0.468  -0.465  -0.463
 -0.440  -0.436  -0.430  -0.423  -0.413  -0.413  -0.404  -0.403
 -0.386  -0.386  -0.385  -0.382  -0.381  -0.378  -0.366  -0.366
 -0.363  -0.356  -0.322  -0.320  -0.310  -0.308  -0.299  -0.297
 -0.293  -0.290  -0.274  -0.271  -0.269  -0.266

          Ground-State Mulliken Net Atomic Charges

     Atom                 Charge (a.u.)
  ----------------------------------------
      1 C                     0.817574
      2 C                     0.694894
      3 C                    -0.632668
      4 C                    -0.758396
      5 O                     0.109999
      6 O                    -0.163034
      7 O                     0.109726
      8 O                    -0.128601
      9 C                    -0.158499
     10 C                    -0.374932
     11 C                    -0.219393
     12 C                    -0.318459
     13 C                    -0.278851
     14 C                    -0.477638
     15 H                     0.169934
     16 H                     0.226407
     17 H                     0.180125
     18 H                     0.182151
     19 H                     0.172277
     20 H                     0.076973
     21 H                     0.189709
     22 H                     0.177432
     23 H                     0.198377
     24 H                     0.208871
     25 C                     0.666384
     26 C                     0.869348
     27 C                    -0.824072
     28 C                    -0.605713
     29 O                     0.117718
     30 O                    -0.118318
     31 O                     0.089575
     32 O                    -0.164479
     33 C                    -0.380658
     34 C                    -0.147810
     35 C                    -0.467478
     36 C                    -0.276794
     37 C                    -0.320534
     38 C                    -0.222873
     39 H                     0.228076
     40 H                     0.168690
     41 H                     0.177483
     42 H                     0.194640
     43 H                     0.073431
     44 H                     0.172662
     45 H                     0.180567
     46 H                     0.180241
     47 H                     0.209180
     48 H                     0.196758
  ----------------------------------------
  Sum of atomic charges =    -0.000000

                    Cartesian Multipole Moments
 -----------------------------------------------------------------
    Charge (ESU x 10^10)
                -0.0000
    Dipole Moment (Debye)
         X       0.1973      Y       0.2332      Z       0.2000
       Tot       0.3651
    Quadrupole Moments (Debye-Ang)
        XX    -169.1230     XY      -0.9863     YY    -125.6907
        XZ      18.7319     YZ       0.6117     ZZ    -175.0283

 Total job time:  1370.28s(wall), 2727.70s(cpu)
        *  Thank you very much for using Q-Chem.  Have a nice day.  *
