 Q-Chem 5.0, Q-Chem, Inc., Pleasanton, CA (2017)
 Q-Chem 5.0.1 for Intel X86 EM64T Linux

User input:
--------------------------------------------------------------
$molecule
0  1
--
0  1
C        +0.22270000        +1.04488000        +0.58595000
C        +0.62626000        -0.41353000        +0.99871000
C        -1.18200000        +1.23223000        +0.04377000
C        -0.37457000        -1.51643000        +0.72333000
O        -2.09172000        +0.78832000        +0.93966000
O        -1.47336000        +1.75939000        -0.99882000
O        -0.91364000        -1.42792000        -0.50620000
O        -0.62208000        -2.40877000        +1.49911000
C        -1.86134000        -2.44741000        -0.86560000
C        -3.47068000        +0.87492000        +0.53920000
C        +1.33008000        +1.39974000        -0.43491000
C        +2.63070000        +1.71700000        +0.32855000
C        +3.04336000        +0.29351000        +0.80300000
C        +1.94423000        -0.59299000        +0.15262000
O        +1.62840000        +0.13663000        -1.04376000
H        +0.27811000        +1.68786000        +1.46900000
H        +0.83923000        -0.48042000        +2.06408000
H        -2.68749000        -2.46677000        -0.15296000
H        -3.76076000        +1.91522000        +0.38406000
H        +3.37234000        +2.13782000        -0.35195000
H        +2.48236000        +2.42488000        +1.14651000
H        +4.02182000        +0.00994000        +0.41161000
H        +3.07359000        +0.18738000        +1.88928000
H        -2.21148000        -2.17765000        -1.85937000
H        -1.38062000        -3.42697000        -0.88096000
H        -4.03855000        +0.43623000        +1.35671000
H        -3.63120000        +0.31700000        -0.38495000
C        +2.35450000        -2.01267000        -0.16812000
H        +3.26311000        -2.00678000        -0.77366000
H        +2.54990000        -2.57059000        +0.75079000
H        +1.57335000        -2.52896000        -0.72872000
H        +1.03270000        +2.19943000        -1.08064000
--
0  1
C        +0.24618000        +2.37458000        +4.88494000
C        +0.64974000        +0.91617000        +5.29770000
C        -1.15852000        +2.56193000        +4.34276000
C        -0.35109000        -0.18673000        +5.02232000
O        -2.06824000        +2.11802000        +5.23865000
O        -1.44988000        +3.08909000        +3.30017000
O        -0.89016000        -0.09822000        +3.79279000
O        -0.59860000        -1.07907000        +5.79810000
C        -1.83786000        -1.11771000        +3.43339000
C        -3.44720000        +2.20462000        +4.83819000
C        +1.35356000        +2.72944000        +3.86408000
C        +2.65418000        +3.04670000        +4.62754000
C        +3.06684000        +1.62321000        +5.10199000
C        +1.96771000        +0.73671000        +4.45161000
O        +1.65188000        +1.46633000        +3.25523000
H        +0.30159000        +3.01756000        +5.76799000
H        +0.86271000        +0.84928000        +6.36307000
H        -2.66401000        -1.13707000        +4.14603000
H        -3.73728000        +3.24492000        +4.68305000
H        +3.39582000        +3.46752000        +3.94704000
H        +2.50584000        +3.75458000        +5.44550000
H        +4.04530000        +1.33964000        +4.71060000
H        +3.09707000        +1.51708000        +6.18827000
H        -2.18800000        -0.84795000        +2.43962000
H        -1.35714000        -2.09727000        +3.41803000
H        -4.01507000        +1.76593000        +5.65570000
H        -3.60772000        +1.64670000        +3.91404000
C        +2.37798000        -0.68297000        +4.13087000
H        +3.28659000        -0.67708000        +3.52533000
H        +2.57338000        -1.24089000        +5.04978000
H        +1.59683000        -1.19926000        +3.57027000
H        +1.05618000        +3.52913000        +3.21835000
$end

$rem
JOBTYPE                   SP
METHOD                    B3LYP
DFT_D                     d3_op
BASIS                     6-311++G(d,p)
SYMMETRY                  False
THRESH                    12
SCF_CONVERGENCE           8
MAX_SUB_FILE_NUM          128
MEM_STATIC                400
MEM_TOTAL                 4000
$end
--------------------------------------------------------------

             Standard Nuclear Orientation (Angstroms)
    I     Atom           X                Y                Z
 ----------------------------------------------------------------
    1      C      -1.3626901125     0.2248277038     1.1486963839
    2      C      -1.5519337632     0.5911497030    -0.3646397496
    3      C      -1.8362125700    -1.1513560464     1.5778071306
    4      C      -2.2812749300    -0.4096897578    -1.2365715586
    5      O      -1.2261035726    -2.1062711334     0.8408066921
    6      O      -2.5916118645    -1.3884915106     2.4849570084
    7      O      -3.3921484624    -0.8911874915    -0.6498054781
    8      O      -1.9358883569    -0.7032151545    -2.3563561096
    9      C      -4.1632122687    -1.8341061363    -1.4133685377
   10      C      -1.6090675631    -3.4644299635     1.1203449319
   11      C      -2.1155743553     1.3817621003     1.8480098634
   12      C      -1.2417113444     2.6501633472     1.7964426376
   13      C      -1.3601646153     3.0232032905     0.2902803351
   14      C      -2.3502750028     1.9438913876    -0.2309973148
   15      O      -3.1666401885     1.6918056395     0.9237406195
   16      H      -0.2949880814     0.2479927890     1.3848035688
   17      H      -0.5948014841     0.7546373905    -0.8565882289
   18      H      -3.5484283655    -2.6919667100    -1.6906236375
   19      H      -1.3465559525    -3.7342755123     2.1444103351
   20      H      -1.6698896713     3.4271104472     2.4314356581
   21      H      -0.2152171629     2.4735651561     2.1239791788
   22      H      -1.7959800861     4.0148593866     0.1573701731
   23      H      -0.4062552286     3.0027183231    -0.2405858592
   24      H      -4.9788023993    -2.1353574946    -0.7599103157
   25      H      -4.5506706699    -1.3653323152    -2.3194549208
   26      H      -1.0561204895    -4.0742476837     0.4092755014
   27      H      -2.6843274394    -3.5896688468     0.9816869358
   28      C      -3.1957874146     2.3507309052    -1.4168629443
   29      H      -3.7148021462     3.2859259447    -1.1970460606
   30      H      -2.5694996316     2.4972535782    -2.3001217929
   31      H      -3.9441741787     1.5895428607    -1.6438718844
   32      H      -2.3988256531     1.1239462278     2.8471123965
   33      C       3.1074066390     0.0693407278     0.6547052368
   34      C       2.9181629883     0.4356627269    -0.8586308966
   35      C       2.6338841815    -1.3068430224     1.0838159835
   36      C       2.1888218215    -0.5651767338    -1.7305627056
   37      O       3.2439931789    -2.2617581095     0.3468155450
   38      O       1.8784848870    -1.5439784866     1.9909658613
   39      O       1.0779482890    -1.0466744675    -1.1437966252
   40      O       2.5342083946    -0.8587021306    -2.8503472567
   41      C       0.3068844828    -1.9895931124    -1.9073596848
   42      C       2.8610291884    -3.6199169395     0.6263537848
   43      C       2.3545223961     1.2262751243     1.3540187163
   44      C       3.2283854070     2.4946763711     1.3024514905
   45      C       3.1099321361     2.8677163144    -0.2037108120
   46      C       2.1198217486     1.7884044116    -0.7249884618
   47      O       1.3034565629     1.5363186634     0.4297494725
   48      H       4.1751086700     0.0925058130     0.8908124217
   49      H       3.8752952674     0.5991504144    -1.3505793759
   50      H       0.9216683860    -2.8474536860    -2.1846147845
   51      H       3.1235407990    -3.8897624883     1.6504191881
   52      H       2.8002070801     3.2716234712     1.9374445111
   53      H       4.2548795885     2.3180781800     1.6299880317
   54      H       2.6741166654     3.8593724105    -0.3366209739
   55      H       4.0638415228     2.8472313471    -0.7345770063
   56      H      -0.5087056479    -2.2908444707    -1.2539014627
   57      H      -0.0805739184    -1.5208192913    -2.8134460679
   58      H       3.4139762620    -4.2297346597    -0.0847156457
   59      H       1.7857693121    -3.7451558229     0.4876957888
   60      C       1.2743093368     2.1952439292    -1.9108540913
   61      H       0.7552946052     3.1304389687    -1.6910372077
   62      H       1.9005971199     2.3417666022    -2.7941129399
   63      H       0.5259225727     1.4340558847    -2.1378630315
   64      H       2.0712710983     0.9684592518     2.3531212494
 ----------------------------------------------------------------

   15   -1610.3948317720      5.07E-09 Convergence criterion met
 Total energy in the final basis set = -1610.39483177

                    Orbital Energies (a.u.)
 --------------------------------------------------------------

 Alpha MOs
 -- Occupied --
-19.180 -19.170 -19.169 -19.166 -19.146 -19.125 -19.118 -19.114
-19.114 -19.107 -10.315 -10.305 -10.302 -10.297 -10.256 -10.241
-10.235 -10.234 -10.229 -10.228 -10.214 -10.213 -10.210 -10.207
-10.189 -10.188 -10.188 -10.185 -10.179 -10.164 -10.163 -10.162
 -1.123  -1.116  -1.111  -1.106  -1.079  -1.050  -1.036  -1.028
 -1.024  -1.020  -0.841  -0.818  -0.807  -0.792  -0.784  -0.771
 -0.747  -0.740  -0.727  -0.722  -0.705  -0.687  -0.661  -0.644
 -0.614  -0.600  -0.596  -0.579  -0.570  -0.566  -0.564  -0.553
 -0.541  -0.525  -0.524  -0.516  -0.511  -0.503  -0.499  -0.494
 -0.489  -0.484  -0.482  -0.480  -0.476  -0.473  -0.468  -0.466
 -0.464  -0.454  -0.447  -0.441  -0.434  -0.429  -0.427  -0.418
 -0.416  -0.411  -0.408  -0.401  -0.398  -0.396  -0.390  -0.385
 -0.380  -0.376  -0.374  -0.370  -0.369  -0.365  -0.364  -0.361
 -0.352  -0.349  -0.343  -0.341  -0.339  -0.334  -0.323  -0.321
 -0.318  -0.316  -0.306  -0.303  -0.295  -0.290  -0.282  -0.280
 -0.273  -0.260

          Ground-State Mulliken Net Atomic Charges

     Atom                 Charge (a.u.)
  ----------------------------------------
      1 C                     0.320196
      2 C                     0.387224
      3 C                    -0.520571
      4 C                    -0.262969
      5 O                     0.001421
      6 O                    -0.151723
      7 O                     0.122005
      8 O                    -0.067042
      9 C                    -0.162816
     10 C                    -0.301390
     11 C                    -0.621327
     12 C                    -0.317662
     13 C                     0.023360
     14 C                    -0.713540
     15 O                     0.032393
     16 H                     0.294055
     17 H                    -0.261383
     18 H                     0.192046
     19 H                     0.205160
     20 H                     0.196182
     21 H                     0.125854
     22 H                     0.196327
     23 H                     0.031644
     24 H                     0.181608
     25 H                     0.173199
     26 H                     0.116429
     27 H                     0.196557
     28 C                    -0.311781
     29 H                     0.191690
     30 H                     0.157335
     31 H                     0.190604
     32 H                     0.275331
     33 C                    -0.032486
     34 C                     0.277611
     35 C                    -0.689073
     36 C                    -0.719894
     37 O                     0.064233
     38 O                    -0.089478
     39 O                     0.042185
     40 O                    -0.081944
     41 C                    -0.367230
     42 C                    -0.164361
     43 C                    -0.046705
     44 C                    -0.781940
     45 C                    -0.221282
     46 C                    -0.299695
     47 O                     0.268911
     48 H                     0.250819
     49 H                     0.290133
     50 H                     0.214484
     51 H                     0.168709
     52 H                     0.174929
     53 H                     0.145623
     54 H                     0.172924
     55 H                     0.149543
     56 H                     0.113289
     57 H                     0.253439
     58 H                     0.170697
     59 H                     0.184357
     60 C                    -0.358255
     61 H                     0.228850
     62 H                     0.203099
     63 H                     0.279455
     64 H                     0.280634
  ----------------------------------------
  Sum of atomic charges =    -0.000000

                    Cartesian Multipole Moments
 -----------------------------------------------------------------
    Charge (ESU x 10^10)
                -0.0000
    Dipole Moment (Debye)
         X       3.3058      Y       0.0883      Z      -0.0251
       Tot       3.3071
    Quadrupole Moments (Debye-Ang)
        XX    -187.6332     XY      10.2351     YY    -166.6979
        XZ      19.2908     YZ      -0.5661     ZZ    -210.0765

 Total job time:  7644.75s(wall), 7627.04s(cpu)
        *  Thank you very much for using Q-Chem.  Have a nice day.  *
