 Q-Chem 5.0, Q-Chem, Inc., Pleasanton, CA (2017)
 Q-Chem 5.0.1 for Intel X86 EM64T Linux

User input:
--------------------------------------------------------------
$molecule
0  1
C        +0.22270000        +1.04488000        +0.58595000
C        +0.62626000        -0.41353000        +0.99871000
C        -1.18200000        +1.23223000        +0.04377000
C        -0.37457000        -1.51643000        +0.72333000
O        -2.09172000        +0.78832000        +0.93966000
O        -1.47336000        +1.75939000        -0.99882000
O        -0.91364000        -1.42792000        -0.50620000
O        -0.62208000        -2.40877000        +1.49911000
C        -1.86134000        -2.44741000        -0.86560000
C        -3.47068000        +0.87492000        +0.53920000
C        +1.33008000        +1.39974000        -0.43491000
C        +2.63070000        +1.71700000        +0.32855000
C        +3.04336000        +0.29351000        +0.80300000
C        +1.94423000        -0.59299000        +0.15262000
O        +1.62840000        +0.13663000        -1.04376000
H        +0.27811000        +1.68786000        +1.46900000
H        +0.83923000        -0.48042000        +2.06408000
H        -2.68749000        -2.46677000        -0.15296000
H        -3.76076000        +1.91522000        +0.38406000
H        +3.37234000        +2.13782000        -0.35195000
H        +2.48236000        +2.42488000        +1.14651000
H        +4.02182000        +0.00994000        +0.41161000
H        +3.07359000        +0.18738000        +1.88928000
H        -2.21148000        -2.17765000        -1.85937000
H        -1.38062000        -3.42697000        -0.88096000
H        -4.03855000        +0.43623000        +1.35671000
H        -3.63120000        +0.31700000        -0.38495000
C        +0.90028000        +2.39077000        -1.49430000
C        +2.35450000        -2.01267000        -0.16812000
H        +3.26311000        -2.00678000        -0.77366000
H        +2.54990000        -2.57059000        +0.75079000
H        +1.57335000        -2.52896000        -0.72872000
H        +1.71845000        +2.58186000        -2.15686000
H        +0.59919000        +3.30478000        -1.02650000
H        +0.07925000        +1.98653000        -2.04874000
@C        +0.24618000        +2.37458000        +4.88494000
@C        +0.64974000        +0.91617000        +5.29770000
@C        -1.15852000        +2.56193000        +4.34276000
@C        -0.35109000        -0.18673000        +5.02232000
@O        -2.06824000        +2.11802000        +5.23865000
@O        -1.44988000        +3.08909000        +3.30017000
@O        -0.89016000        -0.09822000        +3.79279000
@O        -0.59860000        -1.07907000        +5.79810000
@C        -1.83786000        -1.11771000        +3.43339000
@C        -3.44720000        +2.20462000        +4.83819000
@C        +1.35356000        +2.72944000        +3.86408000
@C        +2.65418000        +3.04670000        +4.62754000
@C        +3.06684000        +1.62321000        +5.10199000
@C        +1.96771000        +0.73671000        +4.45161000
@O        +1.65188000        +1.46633000        +3.25523000
@H        +0.30159000        +3.01756000        +5.76799000
@H        +0.86271000        +0.84928000        +6.36307000
@H        -2.66401000        -1.13707000        +4.14603000
@H        -3.73728000        +3.24492000        +4.68305000
@H        +3.39582000        +3.46752000        +3.94704000
@H        +2.50584000        +3.75458000        +5.44550000
@H        +4.04530000        +1.33964000        +4.71060000
@H        +3.09707000        +1.51708000        +6.18827000
@H        -2.18800000        -0.84795000        +2.43962000
@H        -1.35714000        -2.09727000        +3.41803000
@H        -4.01507000        +1.76593000        +5.65570000
@H        -3.60772000        +1.64670000        +3.91404000
@C        +0.92376000        +3.72047000        +2.80469000
@C        +2.37798000        -0.68297000        +4.13087000
@H        +3.28659000        -0.67708000        +3.52533000
@H        +2.57338000        -1.24089000        +5.04978000
@H        +1.59683000        -1.19926000        +3.57027000
@H        +1.74193000        +3.91156000        +2.14213000
@H        +0.62267000        +4.63448000        +3.27249000
@H        +0.10273000        +3.31623000        +2.25025000
$end

$rem
JOBTYPE                   SP
METHOD                    B3LYP
DFT_D                     d3_op
BASIS                     6-311++G(d,p)
SYMMETRY                  False
THRESH                    12
SCF_CONVERGENCE           8
MAX_SUB_FILE_NUM          128
MEM_STATIC                400
MEM_TOTAL                 4000
$end
--------------------------------------------------------------

             Standard Nuclear Orientation (Angstroms)
    I     Atom           X                Y                Z
 ----------------------------------------------------------------
    1      C       0.2227000000     1.0448800000     0.5859500000
    2      C       0.6262600000    -0.4135300000     0.9987100000
    3      C      -1.1820000000     1.2322300000     0.0437700000
    4      C      -0.3745700000    -1.5164300000     0.7233300000
    5      O      -2.0917200000     0.7883200000     0.9396600000
    6      O      -1.4733600000     1.7593900000    -0.9988200000
    7      O      -0.9136400000    -1.4279200000    -0.5062000000
    8      O      -0.6220800000    -2.4087700000     1.4991100000
    9      C      -1.8613400000    -2.4474100000    -0.8656000000
   10      C      -3.4706800000     0.8749200000     0.5392000000
   11      C       1.3300800000     1.3997400000    -0.4349100000
   12      C       2.6307000000     1.7170000000     0.3285500000
   13      C       3.0433600000     0.2935100000     0.8030000000
   14      C       1.9442300000    -0.5929900000     0.1526200000
   15      O       1.6284000000     0.1366300000    -1.0437600000
   16      H       0.2781100000     1.6878600000     1.4690000000
   17      H       0.8392300000    -0.4804200000     2.0640800000
   18      H      -2.6874900000    -2.4667700000    -0.1529600000
   19      H      -3.7607600000     1.9152200000     0.3840600000
   20      H       3.3723400000     2.1378200000    -0.3519500000
   21      H       2.4823600000     2.4248800000     1.1465100000
   22      H       4.0218200000     0.0099400000     0.4116100000
   23      H       3.0735900000     0.1873800000     1.8892800000
   24      H      -2.2114800000    -2.1776500000    -1.8593700000
   25      H      -1.3806200000    -3.4269700000    -0.8809600000
   26      H      -4.0385500000     0.4362300000     1.3567100000
   27      H      -3.6312000000     0.3170000000    -0.3849500000
   28      C       0.9002800000     2.3907700000    -1.4943000000
   29      C       2.3545000000    -2.0126700000    -0.1681200000
   30      H       3.2631100000    -2.0067800000    -0.7736600000
   31      H       2.5499000000    -2.5705900000     0.7507900000
   32      H       1.5733500000    -2.5289600000    -0.7287200000
   33      H       1.7184500000     2.5818600000    -2.1568600000
   34      H       0.5991900000     3.3047800000    -1.0265000000
   35      H       0.0792500000     1.9865300000    -2.0487400000
   36      GH      0.2461800000     2.3745800000     4.8849400000
   37      GH      0.6497400000     0.9161700000     5.2977000000
   38      GH     -1.1585200000     2.5619300000     4.3427600000
   39      GH     -0.3510900000    -0.1867300000     5.0223200000
   40      GH     -2.0682400000     2.1180200000     5.2386500000
   41      GH     -1.4498800000     3.0890900000     3.3001700000
   42      GH     -0.8901600000    -0.0982200000     3.7927900000
   43      GH     -0.5986000000    -1.0790700000     5.7981000000
   44      GH     -1.8378600000    -1.1177100000     3.4333900000
   45      GH     -3.4472000000     2.2046200000     4.8381900000
   46      GH      1.3535600000     2.7294400000     3.8640800000
   47      GH      2.6541800000     3.0467000000     4.6275400000
   48      GH      3.0668400000     1.6232100000     5.1019900000
   49      GH      1.9677100000     0.7367100000     4.4516100000
   50      GH      1.6518800000     1.4663300000     3.2552300000
   51      GH      0.3015900000     3.0175600000     5.7679900000
   52      GH      0.8627100000     0.8492800000     6.3630700000
   53      GH     -2.6640100000    -1.1370700000     4.1460300000
   54      GH     -3.7372800000     3.2449200000     4.6830500000
   55      GH      3.3958200000     3.4675200000     3.9470400000
   56      GH      2.5058400000     3.7545800000     5.4455000000
   57      GH      4.0453000000     1.3396400000     4.7106000000
   58      GH      3.0970700000     1.5170800000     6.1882700000
   59      GH     -2.1880000000    -0.8479500000     2.4396200000
   60      GH     -1.3571400000    -2.0972700000     3.4180300000
   61      GH     -4.0150700000     1.7659300000     5.6557000000
   62      GH     -3.6077200000     1.6467000000     3.9140400000
   63      GH      0.9237600000     3.7204700000     2.8046900000
   64      GH      2.3779800000    -0.6829700000     4.1308700000
   65      GH      3.2865900000    -0.6770800000     3.5253300000
   66      GH      2.5733800000    -1.2408900000     5.0497800000
   67      GH      1.5968300000    -1.1992600000     3.5702700000
   68      GH      1.7419300000     3.9115600000     2.1421300000
   69      GH      0.6226700000     4.6344800000     3.2724900000
   70      GH      0.1027300000     3.3162300000     2.2502500000
 ----------------------------------------------------------------

   14    -844.5185497066      5.83E-09 Convergence criterion met
 Total energy in the final basis set = -844.51854971

                    Orbital Energies (a.u.)
 --------------------------------------------------------------

 Alpha MOs
 -- Occupied --
-19.176 -19.174 -19.125 -19.117 -19.116 -10.311 -10.306 -10.242
-10.232 -10.231 -10.231 -10.204 -10.203 -10.178 -10.175 -10.169
-10.136  -1.121  -1.114  -1.061  -1.034  -1.027  -0.832  -0.804
 -0.784  -0.748  -0.730  -0.720  -0.674  -0.644  -0.603  -0.579
 -0.570  -0.561  -0.525  -0.514  -0.508  -0.493  -0.489  -0.479
 -0.476  -0.471  -0.459  -0.442  -0.435  -0.433  -0.414  -0.411
 -0.403  -0.399  -0.395  -0.374  -0.372  -0.364  -0.358  -0.355
 -0.349  -0.346  -0.333  -0.328  -0.321  -0.313  -0.284  -0.272
 -0.270

          Ground-State Mulliken Net Atomic Charges

     Atom                 Charge (a.u.)
  ----------------------------------------
      1 C                    -0.040065
      2 C                     0.651677
      3 C                    -0.012649
      4 C                    -0.199013
      5 O                     0.070659
      6 O                    -0.094684
      7 O                     0.107571
      8 O                    -0.041729
      9 C                    -0.164213
     10 C                    -0.294126
     11 C                    -1.294935
     12 C                    -0.068649
     13 C                     0.155350
     14 C                    -1.517968
     15 O                     0.220790
     16 H                     0.025621
     17 H                     0.019696
     18 H                     0.196673
     19 H                     0.197074
     20 H                     0.205261
     21 H                     0.171501
     22 H                     0.205058
     23 H                     0.149531
     24 H                     0.173497
     25 H                     0.178483
     26 H                     0.131828
     27 H                     0.198581
     28 C                    -0.324435
     29 C                    -0.054736
     30 H                     0.188210
     31 H                     0.168474
     32 H                     0.196060
     33 H                     0.143039
     34 H                     0.146149
     35 H                     0.216106
     36 GH                    0.004252
     37 GH                   -0.001648
     38 GH                   -0.020224
     39 GH                   -0.008003
     40 GH                    0.002750
     41 GH                   -0.023286
     42 GH                    0.001273
     43 GH                    0.003101
     44 GH                   -0.047575
     45 GH                    0.011016
     46 GH                    0.004714
     47 GH                   -0.010226
     48 GH                   -0.000811
     49 GH                   -0.075763
     50 GH                   -0.003643
     51 GH                    0.000088
     52 GH                   -0.000252
     53 GH                   -0.003180
     54 GH                    0.001421
     55 GH                    0.000294
     56 GH                   -0.000348
     57 GH                    0.000142
     58 GH                   -0.000052
     59 GH                    0.061878
     60 GH                    0.001342
     61 GH                   -0.000345
     62 GH                   -0.009458
     63 GH                   -0.023440
     64 GH                    0.060589
     65 GH                    0.016179
     66 GH                   -0.002052
     67 GH                    0.007487
     68 GH                    0.006808
     69 GH                   -0.005438
     70 GH                    0.042720
  ----------------------------------------
  Sum of atomic charges =     0.000000

                    Cartesian Multipole Moments
 -----------------------------------------------------------------
    Charge (ESU x 10^10)
                 0.0000
    Dipole Moment (Debye)
         X      -0.3239      Y       0.5029      Z       0.9195
       Tot       1.0969
    Quadrupole Moments (Debye-Ang)
        XX     -89.0789     XY       1.8211     YY    -103.5306
        XZ       3.4757     YZ      10.7873     ZZ    -108.3258

 Total job time:  4146.29s(wall), 8254.65s(cpu)
        *  Thank you very much for using Q-Chem.  Have a nice day.  *
