 Q-Chem 5.0, Q-Chem, Inc., Pleasanton, CA (2017)
 Q-Chem 5.0.1 for Intel X86 EM64T Linux

User input:
--------------------------------------------------------------
$molecule
0  1
--
0  1
C        +0.22270000        +1.04488000        +0.58595000
C        +0.62626000        -0.41353000        +0.99871000
C        -1.18200000        +1.23223000        +0.04377000
C        -0.37457000        -1.51643000        +0.72333000
O        -2.09172000        +0.78832000        +0.93966000
O        -1.47336000        +1.75939000        -0.99882000
O        -0.91364000        -1.42792000        -0.50620000
O        -0.62208000        -2.40877000        +1.49911000
C        -1.86134000        -2.44741000        -0.86560000
C        -3.47068000        +0.87492000        +0.53920000
C        +1.33008000        +1.39974000        -0.43491000
C        +2.63070000        +1.71700000        +0.32855000
C        +3.04336000        +0.29351000        +0.80300000
C        +1.94423000        -0.59299000        +0.15262000
O        +1.62840000        +0.13663000        -1.04376000
H        +0.27811000        +1.68786000        +1.46900000
H        +0.83923000        -0.48042000        +2.06408000
H        -2.68749000        -2.46677000        -0.15296000
H        -3.76076000        +1.91522000        +0.38406000
H        +3.37234000        +2.13782000        -0.35195000
H        +2.48236000        +2.42488000        +1.14651000
H        +4.02182000        +0.00994000        +0.41161000
H        +3.07359000        +0.18738000        +1.88928000
H        -2.21148000        -2.17765000        -1.85937000
H        -1.38062000        -3.42697000        -0.88096000
H        -4.03855000        +0.43623000        +1.35671000
H        -3.63120000        +0.31700000        -0.38495000
C        +0.90028000        +2.39077000        -1.49430000
C        +2.35450000        -2.01267000        -0.16812000
H        +3.26311000        -2.00678000        -0.77366000
H        +2.54990000        -2.57059000        +0.75079000
H        +1.57335000        -2.52896000        -0.72872000
H        +1.71845000        +2.58186000        -2.15686000
H        +0.59919000        +3.30478000        -1.02650000
H        +0.07925000        +1.98653000        -2.04874000
--
0  1
C        +0.24618000        +2.37458000        +4.88494000
C        +0.64974000        +0.91617000        +5.29770000
C        -1.15852000        +2.56193000        +4.34276000
C        -0.35109000        -0.18673000        +5.02232000
O        -2.06824000        +2.11802000        +5.23865000
O        -1.44988000        +3.08909000        +3.30017000
O        -0.89016000        -0.09822000        +3.79279000
O        -0.59860000        -1.07907000        +5.79810000
C        -1.83786000        -1.11771000        +3.43339000
C        -3.44720000        +2.20462000        +4.83819000
C        +1.35356000        +2.72944000        +3.86408000
C        +2.65418000        +3.04670000        +4.62754000
C        +3.06684000        +1.62321000        +5.10199000
C        +1.96771000        +0.73671000        +4.45161000
O        +1.65188000        +1.46633000        +3.25523000
H        +0.30159000        +3.01756000        +5.76799000
H        +0.86271000        +0.84928000        +6.36307000
H        -2.66401000        -1.13707000        +4.14603000
H        -3.73728000        +3.24492000        +4.68305000
H        +3.39582000        +3.46752000        +3.94704000
H        +2.50584000        +3.75458000        +5.44550000
H        +4.04530000        +1.33964000        +4.71060000
H        +3.09707000        +1.51708000        +6.18827000
H        -2.18800000        -0.84795000        +2.43962000
H        -1.35714000        -2.09727000        +3.41803000
H        -4.01507000        +1.76593000        +5.65570000
H        -3.60772000        +1.64670000        +3.91404000
C        +0.92376000        +3.72047000        +2.80469000
C        +2.37798000        -0.68297000        +4.13087000
H        +3.28659000        -0.67708000        +3.52533000
H        +2.57338000        -1.24089000        +5.04978000
H        +1.59683000        -1.19926000        +3.57027000
H        +1.74193000        +3.91156000        +2.14213000
H        +0.62267000        +4.63448000        +3.27249000
H        +0.10273000        +3.31623000        +2.25025000
$end

$rem
JOBTYPE                   SP
METHOD                    B3LYP
DFT_D                     d3_op
BASIS                     6-311++G(d,p)
SYMMETRY                  False
THRESH                    12
SCF_CONVERGENCE           8
MAX_SUB_FILE_NUM          128
MEM_STATIC                400
MEM_TOTAL                 4000
$end
--------------------------------------------------------------

             Standard Nuclear Orientation (Angstroms)
    I     Atom           X                Y                Z
 ----------------------------------------------------------------
    1      C      -1.3686637804     0.2637351675     0.8757632274
    2      C      -1.5051299697     0.4146595614    -0.6794827422
    3      C      -1.8292372201    -1.0531033492     1.4724622240
    4      C      -2.1773520633    -0.7150989909    -1.4315773597
    5      O      -1.1697678468    -2.0830663233     0.8966654923
    6      O      -2.6150007942    -1.1842264960     2.3753268591
    7      O      -3.3001662795    -1.1415000183    -0.8252400727
    8      O      -1.7812672737    -1.1495037179    -2.4869331560
    9      C      -4.0196438012    -2.2002136965    -1.4795648800
   10      C      -1.5342879144    -3.4000648325     1.3461524222
   11      C      -2.1736016306     1.4847759855     1.3812388468
   12      C      -1.3258655143     2.7571887475     1.1877273389
   13      C      -1.3920453863     2.9176422348    -0.3587492245
   14      C      -2.3370898024     1.7510978352    -0.7625169384
   15      O      -3.1933268716     1.6373635530     0.3852381017
   16      H      -0.3119932412     0.3475362533     1.1453844440
   17      H      -0.5328456119     0.5349836106    -1.1538549385
   18      H      -3.3759607359    -3.0711293282    -1.6134770733
   19      H      -1.3071566141    -3.5203363534     2.4065226640
   20      H      -1.7956874438     3.6018541247     1.6936990448
   21      H      -0.3097158111     2.6545597735     1.5738160412
   22      H      -1.8434351372     3.8698058340    -0.6426749573
   23      H      -0.4174679061     2.8503819475    -0.8464545218
   24      H      -4.8540209999    -2.4311014765    -0.8211935460
   25      H      -4.3805864033    -1.8701797311    -2.4550972789
   26      H      -0.9403816798    -4.0862800371     0.7464592251
   27      H      -2.6002060496    -3.5718340134     1.1867519927
   28      C      -2.8094172845     1.2871345963     2.7398602100
   29      C      -3.1431040134     1.9693046570    -2.0232364938
   30      H      -3.6904853866     2.9115196658    -1.9533077784
   31      H      -2.4853241401     2.0105028001    -2.8947178912
   32      H      -3.8652746675     1.1644660000    -2.1706384243
   33      H      -3.3444033915     2.1718800169     3.0153936866
   34      H      -2.0475465176     1.0906435587     3.4650157207
   35      H      -3.4859488365     0.4591132053     2.6999905802
   36      C       3.1199101178     0.1620233317     0.5719088494
   37      C       2.9834439285     0.3129477256    -0.9833371202
   38      C       2.6593366781    -1.1548151850     1.1686078460
   39      C       2.3112218349    -0.8168108267    -1.7354317377
   40      O       3.3188060514    -2.1847781591     0.5928111143
   41      O       1.8735731040    -1.2859383318     2.0714724811
   42      O       1.1884076187    -1.2432118541    -1.1290944507
   43      O       2.7073066245    -1.2512155537    -2.7907875340
   44      C       0.4689300970    -2.3019255323    -1.7834192580
   45      C       2.9542859838    -3.5017766683     1.0422980442
   46      C       2.3149722677     1.3830641497     1.0773844688
   47      C       3.1627083839     2.6554769117     0.8838729609
   48      C       3.0965285119     2.8159303990    -0.6626036025
   49      C       2.1514840958     1.6493859994    -1.0663713164
   50      O       1.2952470267     1.5356517172     0.0813837238
   51      H       4.1765806571     0.2458244175     0.8415300660
   52      H       3.9557282863     0.4332717748    -1.4577093165
   53      H       1.1126131623    -3.1728411640    -1.9173314513
   54      H       3.1814172841    -3.6220481892     2.1026682860
   55      H       2.6928864544     3.5001422889     1.3898446668
   56      H       4.1788580871     2.5528479377     1.2699616632
   57      H       2.6451387610     3.7680939982    -0.9465293353
   58      H       4.0711059921     2.7486701117    -1.1503088997
   59      H      -0.3654471016    -2.5328133123    -1.1250479240
   60      H       0.1079874949    -1.9718915669    -2.7589516569
   61      H       3.5481922184    -4.1879918729     0.4426048471
   62      H       1.8883678487    -3.6735458492     0.8828976147
   63      C       1.6791566137     1.1854227605     2.4360058320
   64      C       1.3454698849     1.8675928212    -2.3270908718
   65      H       0.7980885117     2.8098078300    -2.2571621563
   66      H       2.0032497581     1.9087909643    -3.1985722691
   67      H       0.6232992307     1.0627541642    -2.4744928022
   68      H       1.1441705067     2.0701681811     2.7115393086
   69      H       2.4410273806     0.9889317229     3.1611613427
   70      H       1.0026250618     0.3574013695     2.3961362023
 ----------------------------------------------------------------

   15   -1689.0334582860      5.20E-09 Convergence criterion met
 Total energy in the final basis set = -1689.03345829

                    Orbital Energies (a.u.)
 --------------------------------------------------------------

 Alpha MOs
 -- Occupied --
-19.180 -19.171 -19.169 -19.169 -19.139 -19.123 -19.114 -19.114
-19.112 -19.107 -10.317 -10.304 -10.301 -10.301 -10.253 -10.244
-10.236 -10.231 -10.230 -10.229 -10.217 -10.211 -10.209 -10.207
-10.188 -10.187 -10.185 -10.184 -10.177 -10.161 -10.161 -10.157
-10.150 -10.126  -1.125  -1.117  -1.111  -1.109  -1.077  -1.048
 -1.040  -1.028  -1.026  -1.024  -0.840  -0.818  -0.815  -0.792
 -0.792  -0.770  -0.749  -0.743  -0.735  -0.725  -0.723  -0.711
 -0.681  -0.665  -0.653  -0.632  -0.609  -0.594  -0.590  -0.572
 -0.571  -0.565  -0.563  -0.553  -0.531  -0.522  -0.519  -0.510
 -0.509  -0.501  -0.500  -0.493  -0.486  -0.486  -0.482  -0.480
 -0.475  -0.470  -0.469  -0.465  -0.463  -0.451  -0.449  -0.442
 -0.439  -0.433  -0.428  -0.427  -0.419  -0.414  -0.412  -0.407
 -0.405  -0.401  -0.398  -0.392  -0.390  -0.381  -0.380  -0.376
 -0.373  -0.368  -0.367  -0.364  -0.362  -0.358  -0.355  -0.352
 -0.349  -0.342  -0.338  -0.335  -0.334  -0.329  -0.324  -0.321
 -0.318  -0.315  -0.309  -0.303  -0.288  -0.284  -0.280  -0.276
 -0.260  -0.258

          Ground-State Mulliken Net Atomic Charges

     Atom                 Charge (a.u.)
  ----------------------------------------
      1 C                     0.295395
      2 C                     0.659834
      3 C                    -0.000736
      4 C                    -0.153996
      5 O                     0.044494
      6 O                    -0.101509
      7 O                     0.119850
      8 O                    -0.043581
      9 C                    -0.165127
     10 C                    -0.262334
     11 C                    -1.404781
     12 C                     0.020047
     13 C                     0.236410
     14 C                    -1.641347
     15 O                     0.208002
     16 H                    -0.065235
     17 H                    -0.034713
     18 H                     0.193685
     19 H                     0.203913
     20 H                     0.195615
     21 H                     0.112134
     22 H                     0.198838
     23 H                     0.028383
     24 H                     0.174787
     25 H                     0.178398
     26 H                     0.124621
     27 H                     0.199403
     28 C                    -0.316927
     29 C                    -0.073342
     30 H                     0.187034
     31 H                     0.160520
     32 H                     0.191021
     33 H                     0.139413
     34 H                     0.143416
     35 H                     0.212602
     36 C                    -0.247503
     37 C                     0.239954
     38 C                    -0.566780
     39 C                    -0.722203
     40 O                     0.089547
     41 O                    -0.071371
     42 O                     0.021731
     43 O                    -0.076838
     44 C                    -0.352218
     45 C                    -0.151504
     46 C                     0.027196
     47 C                    -0.256475
     48 C                    -0.218500
     49 C                    -0.213182
     50 O                     0.282531
     51 H                     0.255279
     52 H                     0.284336
     53 H                     0.216287
     54 H                     0.167889
     55 H                     0.178185
     56 H                     0.157039
     57 H                     0.174827
     58 H                     0.153996
     59 H                     0.111814
     60 H                     0.249858
     61 H                     0.172899
     62 H                     0.171101
     63 C                    -0.803827
     64 C                    -0.488282
     65 H                     0.239661
     66 H                     0.200710
     67 H                     0.251546
     68 H                     0.154387
     69 H                     0.167960
     70 H                     0.235766
  ----------------------------------------
  Sum of atomic charges =    -0.000000

                    Cartesian Multipole Moments
 -----------------------------------------------------------------
    Charge (ESU x 10^10)
                -0.0000
    Dipole Moment (Debye)
         X       3.0586      Y      -0.4745      Z       0.4039
       Tot       3.1215
    Quadrupole Moments (Debye-Ang)
        XX    -202.0371     XY      12.5940     YY    -181.8298
        XZ      17.6194     YZ      -6.9805     ZZ    -221.2624

 Total job time:  4173.09s(wall), 8310.15s(cpu)
        *  Thank you very much for using Q-Chem.  Have a nice day.  *
