 Q-Chem 5.0, Q-Chem, Inc., Pleasanton, CA (2017)
 Q-Chem 5.0.1 for Intel X86 EM64T Linux

User input:
--------------------------------------------------------------
$molecule
0  1
--
0  1
C        -0.54444000        -0.68370000        -0.06689000
C        -0.55709000        +0.71878000        +0.05493000
C        +0.74969000        -1.43776000        -0.09374000
C        +0.72843000        +1.48436000        +0.06598000
O        +1.53645000        -1.09176000        +0.94813000
O        +1.04702000        -2.28405000        -0.90088000
O        +1.53784000        +1.08301000        -0.93877000
O        +1.01035000        +2.37097000        +0.83478000
C        +2.83449000        +1.70121000        -0.99358000
C        +2.82316000        -1.73208000        +1.00475000
C        -1.74320000        -1.41616000        -0.12552000
C        -2.93952000        -0.70056000        -0.05285000
C        -2.95313000        +0.68255000        +0.06934000
C        -1.77161000        +1.42404000        +0.12810000
H        +2.73835000        +2.77989000        -1.12464000
H        +2.70778000        -2.81319000        +1.09555000
H        -3.90354000        +1.20325000        +0.11710000
H        +3.38998000        +1.50093000        -0.07544000
H        +3.33184000        +1.25269000        -1.85067000
H        +3.31095000        -1.32281000        +1.88650000
H        +3.39889000        -1.50934000        +0.10459000
H        -3.87892000        -1.24211000        -0.08988000
C        -1.83960000        +2.92746000        +0.24839000
H        -1.24214000        +3.42352000        -0.52065000
H        -1.45503000        +3.26427000        +1.21284000
H        -2.87211000        +3.26623000        +0.14638000
H        -1.73878000        -2.44393000        -0.21875000
--
0  1
C        -0.51347000        -1.07606000        +4.41587000
C        -0.52612000        +0.32642000        +4.53769000
C        +0.78066000        -1.83012000        +4.38902000
C        +0.75940000        +1.09200000        +4.54874000
O        +1.56742000        -1.48412000        +5.43089000
O        +1.07799000        -2.67641000        +3.58188000
O        +1.56881000        +0.69065000        +3.54399000
O        +1.04132000        +1.97861000        +5.31754000
C        +2.86546000        +1.30885000        +3.48918000
C        +2.85413000        -2.12444000        +5.48751000
C        -1.71223000        -1.80852000        +4.35724000
C        -2.90855000        -1.09292000        +4.42991000
C        -2.92216000        +0.29019000        +4.55210000
C        -1.74064000        +1.03168000        +4.61086000
H        +2.76932000        +2.38753000        +3.35812000
H        +2.73875000        -3.20555000        +5.57831000
H        -3.87257000        +0.81089000        +4.59986000
H        +3.42095000        +1.10857000        +4.40732000
H        +3.36281000        +0.86033000        +2.63209000
H        +3.34192000        -1.71517000        +6.36926000
H        +3.42986000        -1.90170000        +4.58735000
H        -3.84795000        -1.63447000        +4.39288000
C        -1.80863000        +2.53510000        +4.73115000
H        -1.21117000        +3.03116000        +3.96211000
H        -1.42406000        +2.87191000        +5.69560000
H        -2.84114000        +2.87387000        +4.62914000
H        -1.70781000        -2.83629000        +4.26401000
$end

$rem
JOBTYPE                   SP
METHOD                    B3LYP
DFT_D                     d3_op
BASIS                     6-311++G(d,p)
SYMMETRY                  False
THRESH                    12
SCF_CONVERGENCE           8
MAX_SUB_FILE_NUM          128
MEM_STATIC                400
MEM_TOTAL                 4000
$end
--------------------------------------------------------------

             Standard Nuclear Orientation (Angstroms)
    I     Atom           X                Y                Z
 ----------------------------------------------------------------
    1      C      -2.1803183701     0.1622962787     1.2673123948
    2      C      -2.3160509760     0.6542786979    -0.0447395266
    3      C      -2.0148054399    -1.3047782639     1.5210792549
    4      C      -2.3898370787    -0.2941003839    -1.1996980702
    5      O      -1.0207682869    -1.8203614545     0.7659206581
    6      O      -2.6413657930    -1.9480794642     2.3271019359
    7      O      -3.2696909985    -1.2891354218    -0.9516833808
    8      O      -1.7837182145    -0.1841496572    -2.2375518069
    9      C      -3.3809246707    -2.3038183608    -1.9638702222
   10      C      -0.7942363805    -3.2340287946     0.9040006989
   11      C      -2.1556179958     1.0355483539     2.3690298590
   12      C      -2.2649805157     2.4028080190     2.1098259262
   13      C      -2.3968701493     2.8892686174     0.8159673130
   14      C      -2.4238146004     2.0351986131    -0.2881559104
   15      H      -3.7097889948    -1.8673904462    -2.9079830848
   16      H      -0.5134488735    -3.4771391598     1.9298719105
   17      H      -2.4848620775     3.9585208950     0.6558246796
   18      H      -2.4189698911    -2.7974562720    -2.1142926037
   19      H      -4.1203672448    -3.0070372034    -1.5872558040
   20      H       0.0183228578    -3.4646664382     0.2188161683
   21      H      -1.6946600332    -3.7912591419     0.6392408984
   22      H      -2.2427607491     3.0988532641     2.9417798204
   23      C      -2.5817401125     2.6125507043    -1.6741891409
   24      H      -3.4020971458     2.1394891807    -2.2197930535
   25      H      -1.6791403826     2.4629343691    -2.2695273166
   26      H      -2.7872884938     3.6827850401    -1.6142192946
   27      H      -2.0602435169     0.6791537223     3.3328291729
   28      C       2.2963148777     0.4602177203     0.9194039184
   29      C       2.1605822717     0.9522001394    -0.3926480030
   30      C       2.4618278078    -1.0068568223     1.1731707786
   31      C       2.0867961690     0.0038210577    -1.5476065466
   32      O       3.4558649609    -1.5224400129     0.4180121817
   33      O       1.8352674548    -1.6501580227     1.9791934595
   34      O       1.2069422492    -0.9912139803    -1.2995918572
   35      O       2.6929150332     0.1137717844    -2.5854602833
   36      C       1.0957085771    -2.0058969193    -2.3117786986
   37      C       3.6823968672    -2.9361073531     0.5560922225
   38      C       2.3210152520     1.3334697954     2.0211213826
   39      C       2.2116527320     2.7007294605     1.7619174498
   40      C       2.0797630985     3.1871900589     0.4680588366
   41      C       2.0528186473     2.3331200546    -0.6360643868
   42      H       0.7668442530    -1.5694690046    -3.2558915612
   43      H       3.9631843743    -3.1792177183     1.5819634341
   44      H       1.9917711702     4.2564423366     0.3079162032
   45      H       2.0576633566    -2.4995348304    -2.4622010801
   46      H       0.3562660030    -2.7091157619    -1.9351642804
   47      H       4.4949561056    -3.1667449967    -0.1290923081
   48      H       2.7819732146    -3.4933377003     0.2913324220
   49      H       2.2338724987     3.3967747057     2.5938713440
   50      C       1.8948931353     2.9104721458    -2.0220976173
   51      H       1.0745361019     2.4374106222    -2.5677015299
   52      H       2.7974928651     2.7608558106    -2.6174357930
   53      H       1.6893447540     3.9807064817    -1.9621277710
   54      H       2.4163897308     0.9770751639     2.9849206965
 ----------------------------------------------------------------

   15   -1455.0970961237      7.80E-09 Convergence criterion met
 Total energy in the final basis set = -1455.09709612

                    Orbital Energies (a.u.)
 --------------------------------------------------------------

 Alpha MOs
 -- Occupied --
-19.177 -19.176 -19.169 -19.166 -19.121 -19.119 -19.114 -19.111
-10.312 -10.311 -10.306 -10.303 -10.234 -10.233 -10.226 -10.223
-10.208 -10.207 -10.205 -10.204 -10.204 -10.203 -10.191 -10.190
-10.188 -10.187 -10.187 -10.187 -10.173 -10.170  -1.120  -1.119
 -1.110  -1.107  -1.032  -1.030  -1.025  -1.021  -0.883  -0.882
 -0.798  -0.797  -0.792  -0.791  -0.744  -0.744  -0.729  -0.725
 -0.702  -0.700  -0.652  -0.651  -0.624  -0.623  -0.580  -0.576
 -0.574  -0.568  -0.547  -0.545  -0.519  -0.516  -0.511  -0.509
 -0.491  -0.490  -0.485  -0.484  -0.481  -0.477  -0.476  -0.471
 -0.469  -0.466  -0.446  -0.443  -0.435  -0.431  -0.430  -0.429
 -0.426  -0.421  -0.411  -0.409  -0.404  -0.401  -0.392  -0.392
 -0.382  -0.380  -0.376  -0.373  -0.369  -0.364  -0.363  -0.362
 -0.360  -0.354  -0.320  -0.319  -0.309  -0.306  -0.295  -0.294
 -0.290  -0.287  -0.267  -0.264  -0.262  -0.258

          Ground-State Mulliken Net Atomic Charges

     Atom                 Charge (a.u.)
  ----------------------------------------
      1 C                     0.643997
      2 C                     0.084069
      3 C                    -0.490009
      4 C                    -0.701227
      5 O                     0.111254
      6 O                    -0.164305
      7 O                     0.124178
      8 O                    -0.103966
      9 C                    -0.145856
     10 C                    -0.356883
     11 C                    -0.324132
     12 C                    -0.279825
     13 C                    -0.264088
     14 C                     0.310300
     15 H                     0.164970
     16 H                     0.224214
     17 H                     0.153186
     18 H                     0.186704
     19 H                     0.171805
     20 H                     0.078171
     21 H                     0.188281
     22 H                     0.180445
     23 C                    -0.508922
     24 H                     0.176935
     25 H                     0.188560
     26 H                     0.144637
     27 H                     0.201042
     28 C                     0.392710
     29 C                     0.653991
     30 C                    -0.725159
     31 C                    -0.840826
     32 O                     0.113047
     33 O                    -0.105389
     34 O                     0.122842
     35 O                    -0.131936
     36 C                    -0.329787
     37 C                    -0.142219
     38 C                    -0.443861
     39 C                    -0.296360
     40 C                    -0.405503
     41 C                     0.467063
     42 H                     0.215672
     43 H                     0.169555
     44 H                     0.156023
     45 H                     0.195201
     46 H                     0.080385
     47 H                     0.172785
     48 H                     0.178435
     49 H                     0.184616
     50 C                    -0.420620
     51 H                     0.212304
     52 H                     0.214649
     53 H                     0.131320
     54 H                     0.187527
  ----------------------------------------
  Sum of atomic charges =    -0.000000

                    Cartesian Multipole Moments
 -----------------------------------------------------------------
    Charge (ESU x 10^10)
                -0.0000
    Dipole Moment (Debye)
         X       0.2099      Y       0.4078      Z      -0.7564
       Tot       0.8846
    Quadrupole Moments (Debye-Ang)
        XX    -181.1357     XY      -8.1434     YY    -145.9806
        XZ      16.5008     YZ      14.6945     ZZ    -181.5656

 Total job time:  1815.57s(wall), 3614.78s(cpu)
        *  Thank you very much for using Q-Chem.  Have a nice day.  *
