 Q-Chem 5.0, Q-Chem, Inc., Pleasanton, CA (2017)
 Q-Chem 5.0.1 for Intel X86 EM64T Linux

User input:
--------------------------------------------------------------
$molecule
0  1
--
0  1
C        -0.54444000        -0.68370000        -0.06689000
C        -0.55709000        +0.71878000        +0.05493000
C        +0.74969000        -1.43776000        -0.09374000
C        +0.72843000        +1.48436000        +0.06598000
O        +1.53645000        -1.09176000        +0.94813000
O        +1.04702000        -2.28405000        -0.90088000
O        +1.53784000        +1.08301000        -0.93877000
O        +1.01035000        +2.37097000        +0.83478000
C        +2.83449000        +1.70121000        -0.99358000
C        +2.82316000        -1.73208000        +1.00475000
C        -1.74320000        -1.41616000        -0.12552000
C        -2.93952000        -0.70056000        -0.05285000
C        -2.95313000        +0.68255000        +0.06934000
C        -1.77161000        +1.42404000        +0.12810000
H        +2.73835000        +2.77989000        -1.12464000
H        +2.70778000        -2.81319000        +1.09555000
H        -3.90354000        +1.20325000        +0.11710000
H        +3.38998000        +1.50093000        -0.07544000
H        +3.33184000        +1.25269000        -1.85067000
H        +3.31095000        -1.32281000        +1.88650000
H        +3.39889000        -1.50934000        +0.10459000
H        -3.87892000        -1.24211000        -0.08988000
C        -1.83960000        +2.92746000        +0.24839000
C        -1.78103000        -2.92226000        -0.24590000
H        -1.39752000        -3.25223000        -1.21323000
H        -2.80572000        -3.28175000        -0.13627000
H        -1.16958000        -3.40777000        +0.51926000
H        -1.24214000        +3.42352000        -0.52065000
H        -1.45503000        +3.26427000        +1.21284000
H        -2.87211000        +3.26623000        +0.14638000
--
0  1
C        -0.51347000        -1.07606000        +4.41587000
C        -0.52612000        +0.32642000        +4.53769000
C        +0.78066000        -1.83012000        +4.38902000
C        +0.75940000        +1.09200000        +4.54874000
O        +1.56742000        -1.48412000        +5.43089000
O        +1.07799000        -2.67641000        +3.58188000
O        +1.56881000        +0.69065000        +3.54399000
O        +1.04132000        +1.97861000        +5.31754000
C        +2.86546000        +1.30885000        +3.48918000
C        +2.85413000        -2.12444000        +5.48751000
C        -1.71223000        -1.80852000        +4.35724000
C        -2.90855000        -1.09292000        +4.42991000
C        -2.92216000        +0.29019000        +4.55210000
C        -1.74064000        +1.03168000        +4.61086000
H        +2.76932000        +2.38753000        +3.35812000
H        +2.73875000        -3.20555000        +5.57831000
H        -3.87257000        +0.81089000        +4.59986000
H        +3.42095000        +1.10857000        +4.40732000
H        +3.36281000        +0.86033000        +2.63209000
H        +3.34192000        -1.71517000        +6.36926000
H        +3.42986000        -1.90170000        +4.58735000
H        -3.84795000        -1.63447000        +4.39288000
C        -1.80863000        +2.53510000        +4.73115000
C        -1.75006000        -3.31462000        +4.23686000
H        -1.36655000        -3.64459000        +3.26953000
H        -2.77475000        -3.67411000        +4.34649000
H        -1.13861000        -3.80013000        +5.00202000
H        -1.21117000        +3.03116000        +3.96211000
H        -1.42406000        +2.87191000        +5.69560000
H        -2.84114000        +2.87387000        +4.62914000
$end

$rem
JOBTYPE                   SP
METHOD                    B3LYP
DFT_D                     d3_op
BASIS                     6-311++G(d,p)
SYMMETRY                  False
THRESH                    12
SCF_CONVERGENCE           8
MAX_SUB_FILE_NUM          128
MEM_STATIC                400
MEM_TOTAL                 4000
$end
--------------------------------------------------------------

             Standard Nuclear Orientation (Angstroms)
    I     Atom           X                Y                Z
 ----------------------------------------------------------------
    1      C      -2.1769227878     0.4826154960     0.9433985026
    2      C      -2.3253361665     0.5443867755    -0.4552108293
    3      C      -2.0376017470    -0.8359608358     1.6405684732
    4      C      -2.4390933418    -0.7145613413    -1.2557765378
    5      O      -1.0679076159    -1.5861823514     1.0739457026
    6      O      -2.6632171687    -1.1799301818     2.6133877296
    7      O      -3.3350143833    -1.5601540681    -0.7007563932
    8      O      -1.8490889229    -0.9489372598    -2.2822132543
    9      C      -3.4850860205    -2.8366326356    -1.3446178450
   10      C      -0.8685037526    -2.8916312810     1.6439275816
   11      C      -2.1147315924     1.6548496177     1.7173236187
   12      C      -2.2000985793     2.8755038681     1.0455636095
   13      C      -2.3444667797     2.9376040119    -0.3340777552
   14      C      -2.4085435810     1.7828967095    -1.1162509313
   15      H      -3.8212717449    -2.7080636573    -2.3743844895
   16      H      -0.5749157346    -2.8098798662     2.6915338045
   17      H      -2.4129466514     3.9055348015    -0.8189583274
   18      H      -2.5364111243    -3.3767033279    -1.3432515422
   19      H      -4.2323130406    -3.3685084586    -0.7599039233
   20      H      -0.0730557465    -3.3448026525     1.0567118996
   21      H      -1.7848452573    -3.4806889694     1.5754042093
   22      H      -2.1488060965     3.7953966427     1.6185263900
   23      C      -2.5786584224     1.9032567727    -2.6115563906
   24      C      -1.9459684115     1.6401321941     3.2191764908
   25      H      -2.8259350194     1.2233240711     3.7127524296
   26      H      -1.7869244121     2.6546970397     3.5887770502
   27      H      -1.0920425251     1.0311431719     3.5274034196
   28      H      -3.4181286572     1.3045846517    -2.9739621207
   29      H      -1.6899407513     1.5527731314    -3.1396103479
   30      H      -2.7607747336     2.9436993633    -2.8864398530
   31      C       2.2981654040     0.5440454763     0.4745117772
   32      C       2.1497520253     0.6058167558    -0.9240975547
   33      C       2.4374864448    -0.7745308555     1.1716817478
   34      C       2.0359948500    -0.6531313610    -1.7246632632
   35      O       3.4071805759    -1.5247523711     0.6050589772
   36      O       1.8118710231    -1.1185002015     2.1445010042
   37      O       1.1400738085    -1.4987240878    -1.1696431186
   38      O       2.6259992689    -0.8875072795    -2.7510999797
   39      C       0.9900021713    -2.7752026553    -1.8135045704
   40      C       3.6065844392    -2.8302013007     1.1750408562
   41      C       2.3603565994     1.7162795980     1.2484368932
   42      C       2.2749896125     2.9369338484     0.5766768841
   43      C       2.1306214120     2.9990339922    -0.8029644806
   44      C       2.0665446108     1.8443266898    -1.5851376567
   45      H       0.6538164469    -2.6466336770    -2.8432712149
   46      H       3.9001724572    -2.7484498859     2.2226470791
   47      H       2.0621415404     3.9669647818    -1.2878450528
   48      H       1.9386770675    -3.3152733476    -1.8121382676
   49      H       0.2427751512    -3.3070784783    -1.2287906487
   50      H       4.4020324453    -3.2833726722     0.5878251742
   51      H       2.6902429345    -3.4192589891     1.1065174839
   52      H       2.3262820953     3.8568266230     1.1496396646
   53      C       1.8964297694     1.9646867530    -3.0804431160
   54      C       2.5291197803     1.7015621744     2.7502897654
   55      H       1.6491531724     1.2847540514     3.2438657042
   56      H       2.6881637797     2.7161270200     3.1198903247
   57      H       3.3830456667     1.0925731522     3.0585166942
   58      H       1.0569595346     1.3660146320    -3.4428488461
   59      H       2.7851474405     1.6142031117    -3.6084970733
   60      H       1.7143134582     3.0051293436    -3.3553265784
 ----------------------------------------------------------------

   15   -1533.7634780836      7.73E-09 Convergence criterion met
 Total energy in the final basis set = -1533.76347808

                    Orbital Energies (a.u.)
 --------------------------------------------------------------

 Alpha MOs
 -- Occupied --
-19.176 -19.175 -19.167 -19.166 -19.119 -19.118 -19.112 -19.111
-10.310 -10.310 -10.304 -10.303 -10.233 -10.232 -10.225 -10.223
-10.202 -10.202 -10.201 -10.201 -10.198 -10.198 -10.197 -10.197
-10.184 -10.183 -10.183 -10.183 -10.170 -10.169 -10.166 -10.166
 -1.119  -1.118  -1.108  -1.107  -1.030  -1.030  -1.023  -1.022
 -0.882  -0.881  -0.804  -0.803  -0.792  -0.791  -0.744  -0.743
 -0.731  -0.730  -0.722  -0.720  -0.672  -0.671  -0.646  -0.645
 -0.617  -0.616  -0.574  -0.574  -0.562  -0.559  -0.534  -0.533
 -0.515  -0.514  -0.511  -0.510  -0.490  -0.489  -0.484  -0.483
 -0.480  -0.475  -0.473  -0.469  -0.467  -0.464  -0.442  -0.438
 -0.434  -0.429  -0.428  -0.424  -0.420  -0.415  -0.413  -0.412
 -0.409  -0.408  -0.403  -0.402  -0.392  -0.392  -0.385  -0.384
 -0.378  -0.376  -0.370  -0.367  -0.359  -0.358  -0.357  -0.355
 -0.352  -0.351  -0.319  -0.318  -0.308  -0.305  -0.292  -0.292
 -0.288  -0.285  -0.264  -0.260  -0.252  -0.247

          Ground-State Mulliken Net Atomic Charges

     Atom                 Charge (a.u.)
  ----------------------------------------
      1 C                     0.174028
      2 C                     0.316474
      3 C                    -0.546154
      4 C                    -0.851365
      5 O                     0.156305
      6 O                    -0.132688
      7 O                     0.119072
      8 O                    -0.092307
      9 C                    -0.146093
     10 C                    -0.326164
     11 C                     0.439502
     12 C                    -0.284788
     13 C                    -0.282991
     14 C                     0.275066
     15 H                     0.165430
     16 H                     0.213857
     17 H                     0.163449
     18 H                     0.181282
     19 H                     0.172423
     20 H                     0.077768
     21 H                     0.192167
     22 H                     0.162641
     23 C                    -0.589529
     24 C                    -0.604960
     25 H                     0.213548
     26 H                     0.125341
     27 H                     0.209384
     28 H                     0.174663
     29 H                     0.188902
     30 H                     0.139700
     31 C                     0.293028
     32 C                     0.202682
     33 C                    -0.892374
     34 C                    -0.541141
     35 O                     0.133731
     36 O                    -0.083357
     37 O                     0.127190
     38 O                    -0.131919
     39 C                    -0.327659
     40 C                    -0.132034
     41 C                     0.271224
     42 C                    -0.278190
     43 C                    -0.281436
     44 C                     0.448522
     45 H                     0.216204
     46 H                     0.164164
     47 H                     0.162729
     48 H                     0.195916
     49 H                     0.075976
     50 H                     0.172631
     51 H                     0.179855
     52 H                     0.163740
     53 C                    -0.602537
     54 C                    -0.591778
     55 H                     0.190073
     56 H                     0.140698
     57 H                     0.174609
     58 H                     0.208736
     59 H                     0.212725
     60 H                     0.124027
  ----------------------------------------
  Sum of atomic charges =    -0.000000

                    Cartesian Multipole Moments
 -----------------------------------------------------------------
    Charge (ESU x 10^10)
                -0.0000
    Dipole Moment (Debye)
         X       0.2013      Y      -0.0374      Z       0.1739
       Tot       0.2687
    Quadrupole Moments (Debye-Ang)
        XX    -193.6376     XY      -1.5633     YY    -155.4963
        XZ      17.6889     YZ       1.7900     ZZ    -198.2364

 Total job time:  2551.96s(wall), 5080.70s(cpu)
        *  Thank you very much for using Q-Chem.  Have a nice day.  *
