 Q-Chem 5.0, Q-Chem, Inc., Pleasanton, CA (2017)
 Q-Chem 5.0.1 for Intel X86 EM64T Linux

User input:
--------------------------------------------------------------
$molecule
0  1
C        -0.54444000        -0.68370000        -0.06689000
C        -0.55709000        +0.71878000        +0.05493000
C        +0.74969000        -1.43776000        -0.09374000
C        +0.72843000        +1.48436000        +0.06598000
O        +1.53645000        -1.09176000        +0.94813000
O        +1.04702000        -2.28405000        -0.90088000
O        +1.53784000        +1.08301000        -0.93877000
O        +1.01035000        +2.37097000        +0.83478000
C        +2.83449000        +1.70121000        -0.99358000
C        +2.82316000        -1.73208000        +1.00475000
C        -1.74320000        -1.41616000        -0.12552000
C        -2.93952000        -0.70056000        -0.05285000
C        -2.95313000        +0.68255000        +0.06934000
C        -1.77161000        +1.42404000        +0.12810000
H        +2.73835000        +2.77989000        -1.12464000
H        +2.70778000        -2.81319000        +1.09555000
H        -3.90354000        +1.20325000        +0.11710000
H        +3.38998000        +1.50093000        -0.07544000
H        +3.33184000        +1.25269000        -1.85067000
H        +3.31095000        -1.32281000        +1.88650000
H        +3.39889000        -1.50934000        +0.10459000
H        -3.87892000        -1.24211000        -0.08988000
C        -1.83960000        +2.92746000        +0.24839000
C        -1.78103000        -2.92226000        -0.24590000
H        -1.39752000        -3.25223000        -1.21323000
H        -2.80572000        -3.28175000        -0.13627000
H        -1.16958000        -3.40777000        +0.51926000
H        -1.24214000        +3.42352000        -0.52065000
H        -1.45503000        +3.26427000        +1.21284000
H        -2.87211000        +3.26623000        +0.14638000
@C        -0.51347000        -1.07606000        +4.41587000
@C        -0.52612000        +0.32642000        +4.53769000
@C        +0.78066000        -1.83012000        +4.38902000
@C        +0.75940000        +1.09200000        +4.54874000
@O        +1.56742000        -1.48412000        +5.43089000
@O        +1.07799000        -2.67641000        +3.58188000
@O        +1.56881000        +0.69065000        +3.54399000
@O        +1.04132000        +1.97861000        +5.31754000
@C        +2.86546000        +1.30885000        +3.48918000
@C        +2.85413000        -2.12444000        +5.48751000
@C        -1.71223000        -1.80852000        +4.35724000
@C        -2.90855000        -1.09292000        +4.42991000
@C        -2.92216000        +0.29019000        +4.55210000
@C        -1.74064000        +1.03168000        +4.61086000
@H        +2.76932000        +2.38753000        +3.35812000
@H        +2.73875000        -3.20555000        +5.57831000
@H        -3.87257000        +0.81089000        +4.59986000
@H        +3.42095000        +1.10857000        +4.40732000
@H        +3.36281000        +0.86033000        +2.63209000
@H        +3.34192000        -1.71517000        +6.36926000
@H        +3.42986000        -1.90170000        +4.58735000
@H        -3.84795000        -1.63447000        +4.39288000
@C        -1.80863000        +2.53510000        +4.73115000
@C        -1.75006000        -3.31462000        +4.23686000
@H        -1.36655000        -3.64459000        +3.26953000
@H        -2.77475000        -3.67411000        +4.34649000
@H        -1.13861000        -3.80013000        +5.00202000
@H        -1.21117000        +3.03116000        +3.96211000
@H        -1.42406000        +2.87191000        +5.69560000
@H        -2.84114000        +2.87387000        +4.62914000
$end

$rem
JOBTYPE                   SP
METHOD                    B3LYP
DFT_D                     d3_op
BASIS                     6-311++G(d,p)
SYMMETRY                  False
THRESH                    12
SCF_CONVERGENCE           8
MAX_SUB_FILE_NUM          128
MEM_STATIC                400
MEM_TOTAL                 4000
$end
--------------------------------------------------------------

             Standard Nuclear Orientation (Angstroms)
    I     Atom           X                Y                Z
 ----------------------------------------------------------------
    1      C      -0.5444400000    -0.6837000000    -0.0668900000
    2      C      -0.5570900000     0.7187800000     0.0549300000
    3      C       0.7496900000    -1.4377600000    -0.0937400000
    4      C       0.7284300000     1.4843600000     0.0659800000
    5      O       1.5364500000    -1.0917600000     0.9481300000
    6      O       1.0470200000    -2.2840500000    -0.9008800000
    7      O       1.5378400000     1.0830100000    -0.9387700000
    8      O       1.0103500000     2.3709700000     0.8347800000
    9      C       2.8344900000     1.7012100000    -0.9935800000
   10      C       2.8231600000    -1.7320800000     1.0047500000
   11      C      -1.7432000000    -1.4161600000    -0.1255200000
   12      C      -2.9395200000    -0.7005600000    -0.0528500000
   13      C      -2.9531300000     0.6825500000     0.0693400000
   14      C      -1.7716100000     1.4240400000     0.1281000000
   15      H       2.7383500000     2.7798900000    -1.1246400000
   16      H       2.7077800000    -2.8131900000     1.0955500000
   17      H      -3.9035400000     1.2032500000     0.1171000000
   18      H       3.3899800000     1.5009300000    -0.0754400000
   19      H       3.3318400000     1.2526900000    -1.8506700000
   20      H       3.3109500000    -1.3228100000     1.8865000000
   21      H       3.3988900000    -1.5093400000     0.1045900000
   22      H      -3.8789200000    -1.2421100000    -0.0898800000
   23      C      -1.8396000000     2.9274600000     0.2483900000
   24      C      -1.7810300000    -2.9222600000    -0.2459000000
   25      H      -1.3975200000    -3.2522300000    -1.2132300000
   26      H      -2.8057200000    -3.2817500000    -0.1362700000
   27      H      -1.1695800000    -3.4077700000     0.5192600000
   28      H      -1.2421400000     3.4235200000    -0.5206500000
   29      H      -1.4550300000     3.2642700000     1.2128400000
   30      H      -2.8721100000     3.2662300000     0.1463800000
   31      GH     -0.5134700000    -1.0760600000     4.4158700000
   32      GH     -0.5261200000     0.3264200000     4.5376900000
   33      GH      0.7806600000    -1.8301200000     4.3890200000
   34      GH      0.7594000000     1.0920000000     4.5487400000
   35      GH      1.5674200000    -1.4841200000     5.4308900000
   36      GH      1.0779900000    -2.6764100000     3.5818800000
   37      GH      1.5688100000     0.6906500000     3.5439900000
   38      GH      1.0413200000     1.9786100000     5.3175400000
   39      GH      2.8654600000     1.3088500000     3.4891800000
   40      GH      2.8541300000    -2.1244400000     5.4875100000
   41      GH     -1.7122300000    -1.8085200000     4.3572400000
   42      GH     -2.9085500000    -1.0929200000     4.4299100000
   43      GH     -2.9221600000     0.2901900000     4.5521000000
   44      GH     -1.7406400000     1.0316800000     4.6108600000
   45      GH      2.7693200000     2.3875300000     3.3581200000
   46      GH      2.7387500000    -3.2055500000     5.5783100000
   47      GH     -3.8725700000     0.8108900000     4.5998600000
   48      GH      3.4209500000     1.1085700000     4.4073200000
   49      GH      3.3628100000     0.8603300000     2.6320900000
   50      GH      3.3419200000    -1.7151700000     6.3692600000
   51      GH      3.4298600000    -1.9017000000     4.5873500000
   52      GH     -3.8479500000    -1.6344700000     4.3928800000
   53      GH     -1.8086300000     2.5351000000     4.7311500000
   54      GH     -1.7500600000    -3.3146200000     4.2368600000
   55      GH     -1.3665500000    -3.6445900000     3.2695300000
   56      GH     -2.7747500000    -3.6741100000     4.3464900000
   57      GH     -1.1386100000    -3.8001300000     5.0020200000
   58      GH     -1.2111700000     3.0311600000     3.9621100000
   59      GH     -1.4240600000     2.8719100000     5.6956000000
   60      GH     -2.8411400000     2.8738700000     4.6291400000
 ----------------------------------------------------------------

   14    -766.8778187232      6.09E-09 Convergence criterion met
 Total energy in the final basis set = -766.87781872

                    Orbital Energies (a.u.)
 --------------------------------------------------------------

 Alpha MOs
 -- Occupied --
-19.176 -19.176 -19.119 -19.119 -10.311 -10.311 -10.232 -10.232
-10.205 -10.205 -10.201 -10.201 -10.187 -10.186 -10.171 -10.170
 -1.121  -1.114  -1.031  -1.030  -0.885  -0.807  -0.795  -0.747
 -0.734  -0.725  -0.675  -0.649  -0.620  -0.577  -0.565  -0.537
 -0.517  -0.515  -0.491  -0.489  -0.480  -0.477  -0.469  -0.442
 -0.434  -0.429  -0.420  -0.416  -0.411  -0.406  -0.396  -0.387
 -0.380  -0.373  -0.362  -0.359  -0.357  -0.321  -0.313  -0.293
 -0.292  -0.266  -0.253

          Ground-State Mulliken Net Atomic Charges

     Atom                 Charge (a.u.)
  ----------------------------------------
      1 C                     0.078082
      2 C                     0.472790
      3 C                    -0.455118
      4 C                    -0.910598
      5 O                     0.141189
      6 O                    -0.125060
      7 O                     0.112921
      8 O                    -0.073916
      9 C                    -0.151520
     10 C                    -0.354051
     11 C                     0.447335
     12 C                    -0.254809
     13 C                    -0.340313
     14 C                     0.265797
     15 H                     0.164818
     16 H                     0.200344
     17 H                     0.167061
     18 H                     0.185271
     19 H                     0.171423
     20 H                     0.100785
     21 H                     0.197366
     22 H                     0.168157
     23 C                    -0.628275
     24 C                    -0.608327
     25 H                     0.215703
     26 H                     0.127815
     27 H                     0.214303
     28 H                     0.175218
     29 H                     0.209963
     30 H                     0.139406
     31 GH                   -0.177787
     32 GH                    0.111017
     33 GH                    0.074069
     34 GH                   -0.123443
     35 GH                    0.000097
     36 GH                   -0.000681
     37 GH                   -0.014431
     38 GH                    0.001695
     39 GH                    0.015837
     40 GH                   -0.010297
     41 GH                    0.019581
     42 GH                    0.058172
     43 GH                   -0.034426
     44 GH                   -0.000125
     45 GH                    0.000815
     46 GH                    0.000861
     47 GH                   -0.001315
     48 GH                    0.002805
     49 GH                    0.001524
     50 GH                   -0.000946
     51 GH                    0.005816
     52 GH                    0.000273
     53 GH                    0.008400
     54 GH                    0.025658
     55 GH                   -0.013303
     56 GH                    0.000714
     57 GH                   -0.000260
     58 GH                   -0.005558
     59 GH                   -0.001187
     60 GH                    0.002666
  ----------------------------------------
  Sum of atomic charges =     0.000000

                    Cartesian Multipole Moments
 -----------------------------------------------------------------
    Charge (ESU x 10^10)
                 0.0000
    Dipole Moment (Debye)
         X       0.0653      Y      -0.1068      Z       0.0819
       Tot       0.1497
    Quadrupole Moments (Debye-Ang)
        XX     -76.2246     XY      -0.0563     YY     -95.4539
        XZ       0.0726     YZ      -8.9341     ZZ     -99.4693

 Total job time:  2479.86s(wall), 4934.51s(cpu)
        *  Thank you very much for using Q-Chem.  Have a nice day.  *
