 Q-Chem 5.0, Q-Chem, Inc., Pleasanton, CA (2017)
 Q-Chem 5.0.1 for Intel X86 EM64T Linux

User input:
--------------------------------------------------------------
$molecule
0  1
--
0  1
C        +0.22270000        +1.04488000        +0.58595000
C        +0.62626000        -0.41353000        +0.99871000
C        -1.18200000        +1.23223000        +0.04377000
C        -0.37457000        -1.51643000        +0.72333000
O        -2.09172000        +0.78832000        +0.93966000
O        -1.47336000        +1.75939000        -0.99882000
O        -0.91364000        -1.42792000        -0.50620000
O        -0.62208000        -2.40877000        +1.49911000
C        -1.86134000        -2.44741000        -0.86560000
C        -3.47068000        +0.87492000        +0.53920000
C        +1.33008000        +1.39974000        -0.43491000
C        +2.63070000        +1.71700000        +0.32855000
C        +3.04336000        +0.29351000        +0.80300000
C        +1.94423000        -0.59299000        +0.15262000
O        +1.62840000        +0.13663000        -1.04376000
H        +0.27811000        +1.68786000        +1.46900000
H        +0.83923000        -0.48042000        +2.06408000
H        -2.68749000        -2.46677000        -0.15296000
H        -3.76076000        +1.91522000        +0.38406000
H        +3.37234000        +2.13782000        -0.35195000
H        +2.48236000        +2.42488000        +1.14651000
H        +4.02182000        +0.00994000        +0.41161000
H        +3.07359000        +0.18738000        +1.88928000
H        -2.21148000        -2.17765000        -1.85937000
H        -1.38062000        -3.42697000        -0.88096000
H        -4.03855000        +0.43623000        +1.35671000
H        -3.63120000        +0.31700000        -0.38495000
H        +1.03270000        +2.19943000        -1.08064000
H        +2.24339000        -1.61496000        +0.04786000
--
0  1
C        +0.25296000        +2.75872000        +6.12687000
C        +0.65652000        +1.30031000        +6.53963000
C        -1.15174000        +2.94607000        +5.58469000
C        -0.34431000        +0.19741000        +6.26425000
O        -2.06146000        +2.50216000        +6.48058000
O        -1.44310000        +3.47323000        +4.54210000
O        -0.88338000        +0.28592000        +5.03472000
O        -0.59182000        -0.69493000        +7.04003000
C        -1.83108000        -0.73357000        +4.67532000
C        -3.44042000        +2.58876000        +6.08012000
C        +1.36034000        +3.11358000        +5.10601000
C        +2.66096000        +3.43084000        +5.86947000
C        +3.07362000        +2.00735000        +6.34392000
C        +1.97449000        +1.12085000        +5.69354000
O        +1.65866000        +1.85047000        +4.49716000
H        +0.30837000        +3.40170000        +7.00992000
H        +0.86949000        +1.23342000        +7.60500000
H        -2.65723000        -0.75293000        +5.38796000
H        -3.73050000        +3.62906000        +5.92498000
H        +3.40260000        +3.85166000        +5.18897000
H        +2.51262000        +4.13872000        +6.68743000
H        +4.05208000        +1.72378000        +5.95253000
H        +3.10385000        +1.90122000        +7.43020000
H        -2.18122000        -0.46381000        +3.68155000
H        -1.35036000        -1.71313000        +4.65996000
H        -4.00829000        +2.15007000        +6.89763000
H        -3.60094000        +2.03084000        +5.15597000
H        +1.06296000        +3.91327000        +4.46028000
H        +2.27365000        +0.09888000        +5.58878000
$end

$rem
JOBTYPE                   SP
METHOD                    B3LYP
DFT_D                     d3_op
BASIS                     6-311++G(d,p)
SYMMETRY                  False
THRESH                    12
SCF_CONVERGENCE           8
MAX_SUB_FILE_NUM          128
MEM_STATIC                400
MEM_TOTAL                 4000
$end
--------------------------------------------------------------

             Standard Nuclear Orientation (Angstroms)
    I     Atom           X                Y                Z
 ----------------------------------------------------------------
    1      C      -2.1458576013     0.6036287783     0.8598659148
    2      C      -2.2327364658     0.6851263628    -0.7041038502
    3      C      -2.6619653456    -0.6703465865     1.5024083889
    4      C      -2.9157597236    -0.4594544577    -1.4233376216
    5      O      -2.0166067300    -1.7442469985     0.9949484192
    6      O      -3.4770570188    -0.7369096052     2.3861375058
    7      O      -4.0676929591    -0.8253496699    -0.8322834610
    8      O      -2.5021954082    -0.9538355430    -2.4450608638
    9      C      -4.7986780926    -1.8930799674    -1.4586030732
   10      C      -2.4324840031    -3.0279799322     1.4934203863
   11      C      -2.9289169140     1.8690882583     1.2838961506
   12      C      -2.0389563535     3.1068059565     1.0577047187
   13      C      -2.0555829975     3.1962644312    -0.4958188872
   14      C      -3.0223641701     2.0389364184    -0.8738257474
   15      O      -3.9144514869     2.0032046440     0.2514842087
   16      H      -1.0954349518     0.6704115143     1.1572262598
   17      H      -1.2440092934     0.7558074813    -1.1538443175
   18      H      -4.1772224811    -2.7869830148    -1.5326616065
   19      H      -2.2397852534    -3.1046401575     2.5646016584
   20      H      -2.4982444081     3.9871035954     1.5097336578
   21      H      -1.0378642320     2.9940385275     1.4787219190
   22      H      -2.4704232739     4.1462989898    -0.8368818303
   23      H      -1.0696834634     3.0789514102    -0.9501551414
   24      H      -5.6581889225    -2.0693777776    -0.8158686758
   25      H      -5.1213755754    -1.5992453942    -2.4587995638
   26      H      -1.8418528807    -3.7579345738     0.9442674462
   27      H      -3.4979200994    -3.1771658911     1.3098881176
   28      H      -3.2790544901     1.7993689647     2.2925829659
   29      H      -3.4525250711     2.1583141351    -1.8462477773
   30      C       3.6419919290     0.2925448134     0.6501464786
   31      C       3.5551130645     0.3740423979    -0.9138232864
   32      C       3.1258841846    -0.9814305514     1.2926889527
   33      C       2.8720898066    -0.7705384226    -1.6330570578
   34      O       3.7712428002    -2.0553309634     0.7852289830
   35      O       2.3107925114    -1.0479935701     2.1764180697
   36      O       1.7201565712    -1.1364336348    -1.0420028972
   37      O       3.2856541221    -1.2649195079    -2.6547802999
   38      C       0.9891714376    -2.2041639322    -1.6683225093
   39      C       3.3553655271    -3.3390638971     1.2837009501
   40      C       2.8589326162     1.5580042934     1.0741767144
   41      C       3.7488931767     2.7957219916     0.8479852826
   42      C       3.7322665327     2.8851804663    -0.7055383234
   43      C       2.7654853601     1.7278524535    -1.0835451836
   44      O       1.8733980433     1.6921206792     0.0417647725
   45      H       4.6924145784     0.3593275494     0.9475068236
   46      H       4.5438402369     0.4447235165    -1.3635637537
   47      H       1.6106270492    -3.0980669797    -1.7423810427
   48      H       3.5480642768    -3.4157241224     2.3548822222
   49      H       3.2896051222     3.6760196305     1.3000142217
   50      H       4.7499852982     2.6829545626     1.2690024828
   51      H       3.3174262563     3.8352150249    -1.0466012665
   52      H       4.7181660668     2.7678674453    -1.1598745776
   53      H       0.1296606078    -2.3804617424    -1.0255881119
   54      H       0.6664739548    -1.9103293590    -2.6685189999
   55      H       3.9459966495    -4.0690185386     0.7345480101
   56      H       2.2899294308    -3.4882498560     1.1001686815
   57      H       2.5087950402     1.4882849998     2.0828635297
   58      H       2.3353244591     1.8472301702    -2.0559672134
 ----------------------------------------------------------------

   15   -1531.7260060536      5.35E-09 Convergence criterion met
 Total energy in the final basis set = -1531.72600605

                    Orbital Energies (a.u.)
 --------------------------------------------------------------

 Alpha MOs
 -- Occupied --
-19.179 -19.172 -19.171 -19.171 -19.144 -19.129 -19.124 -19.116
-19.114 -19.113 -10.313 -10.307 -10.303 -10.303 -10.248 -10.238
-10.235 -10.234 -10.229 -10.228 -10.223 -10.223 -10.211 -10.210
-10.198 -10.196 -10.187 -10.185 -10.174 -10.171  -1.122  -1.116
 -1.114  -1.109  -1.073  -1.058  -1.035  -1.027  -1.025  -1.025
 -0.838  -0.825  -0.790  -0.782  -0.777  -0.771  -0.742  -0.735
 -0.728  -0.725  -0.662  -0.652  -0.614  -0.604  -0.601  -0.588
 -0.582  -0.575  -0.568  -0.562  -0.554  -0.545  -0.523  -0.513
 -0.509  -0.501  -0.500  -0.491  -0.489  -0.486  -0.483  -0.479
 -0.476  -0.474  -0.472  -0.468  -0.465  -0.455  -0.443  -0.433
 -0.429  -0.426  -0.422  -0.420  -0.419  -0.413  -0.400  -0.395
 -0.389  -0.377  -0.377  -0.375  -0.374  -0.371  -0.366  -0.364
 -0.360  -0.360  -0.356  -0.347  -0.342  -0.340  -0.329  -0.326
 -0.322  -0.316  -0.312  -0.309  -0.294  -0.286  -0.285  -0.280
 -0.278  -0.269

          Ground-State Mulliken Net Atomic Charges

     Atom                 Charge (a.u.)
  ----------------------------------------
      1 C                    -0.111827
      2 C                     0.792457
      3 C                    -0.601313
      4 C                    -0.760066
      5 O                     0.040988
      6 O                    -0.189053
      7 O                     0.007118
      8 O                    -0.136972
      9 C                    -0.198600
     10 C                    -0.234766
     11 C                    -0.377472
     12 C                    -0.272275
     13 C                    -0.433441
     14 C                    -0.157262
     15 O                    -0.089456
     16 H                     0.215254
     17 H                     0.344654
     18 H                     0.185763
     19 H                     0.185603
     20 H                     0.199300
     21 H                     0.114266
     22 H                     0.191963
     23 H                     0.089317
     24 H                     0.172803
     25 H                     0.175111
     26 H                     0.132655
     27 H                     0.184051
     28 H                     0.283273
     29 H                     0.264072
     30 C                    -0.025684
     31 C                     0.279856
     32 C                    -0.446286
     33 C                    -0.554273
     34 O                     0.011772
     35 O                    -0.134355
     36 O                    -0.015458
     37 O                    -0.151497
     38 C                    -0.310466
     39 C                    -0.168393
     40 C                    -0.197040
     41 C                    -0.613296
     42 C                    -0.453183
     43 C                    -0.104691
     44 O                     0.119808
     45 H                     0.246708
     46 H                     0.286670
     47 H                     0.208024
     48 H                     0.170245
     49 H                     0.184365
     50 H                     0.134926
     51 H                     0.180292
     52 H                     0.131181
     53 H                     0.125881
     54 H                     0.203750
     55 H                     0.166987
     56 H                     0.182033
     57 H                     0.269515
     58 H                     0.256467
  ----------------------------------------
  Sum of atomic charges =     0.000000

                    Cartesian Multipole Moments
 -----------------------------------------------------------------
    Charge (ESU x 10^10)
                 0.0000
    Dipole Moment (Debye)
         X       3.1738      Y      -0.0190      Z       0.5929
       Tot       3.2288
    Quadrupole Moments (Debye-Ang)
        XX    -177.4548     XY      14.1921     YY    -153.2867
        XZ      17.5795     YZ      -6.6940     ZZ    -193.3205

 Total job time:  6967.05s(wall), 6950.51s(cpu)
        *  Thank you very much for using Q-Chem.  Have a nice day.  *
