 Q-Chem 5.0, Q-Chem, Inc., Pleasanton, CA (2017)
 Q-Chem 5.0.1 for Intel X86 EM64T Linux

User input:
--------------------------------------------------------------
$molecule
0  1
C        +0.22270000        +1.04488000        +0.58595000
C        +0.62626000        -0.41353000        +0.99871000
C        -1.18200000        +1.23223000        +0.04377000
C        -0.37457000        -1.51643000        +0.72333000
O        -2.09172000        +0.78832000        +0.93966000
O        -1.47336000        +1.75939000        -0.99882000
O        -0.91364000        -1.42792000        -0.50620000
O        -0.62208000        -2.40877000        +1.49911000
C        -1.86134000        -2.44741000        -0.86560000
C        -3.47068000        +0.87492000        +0.53920000
C        +1.33008000        +1.39974000        -0.43491000
C        +2.63070000        +1.71700000        +0.32855000
C        +3.04336000        +0.29351000        +0.80300000
C        +1.94423000        -0.59299000        +0.15262000
O        +1.62840000        +0.13663000        -1.04376000
H        +0.27811000        +1.68786000        +1.46900000
H        +0.83923000        -0.48042000        +2.06408000
H        -2.68749000        -2.46677000        -0.15296000
H        -3.76076000        +1.91522000        +0.38406000
H        +3.37234000        +2.13782000        -0.35195000
H        +2.48236000        +2.42488000        +1.14651000
H        +4.02182000        +0.00994000        +0.41161000
H        +3.07359000        +0.18738000        +1.88928000
H        -2.21148000        -2.17765000        -1.85937000
H        -1.38062000        -3.42697000        -0.88096000
H        -4.03855000        +0.43623000        +1.35671000
H        -3.63120000        +0.31700000        -0.38495000
H        +1.03270000        +2.19943000        -1.08064000
H        +2.24339000        -1.61496000        +0.04786000
@C        +0.25296000        +2.75872000        +6.12687000
@C        +0.65652000        +1.30031000        +6.53963000
@C        -1.15174000        +2.94607000        +5.58469000
@C        -0.34431000        +0.19741000        +6.26425000
@O        -2.06146000        +2.50216000        +6.48058000
@O        -1.44310000        +3.47323000        +4.54210000
@O        -0.88338000        +0.28592000        +5.03472000
@O        -0.59182000        -0.69493000        +7.04003000
@C        -1.83108000        -0.73357000        +4.67532000
@C        -3.44042000        +2.58876000        +6.08012000
@C        +1.36034000        +3.11358000        +5.10601000
@C        +2.66096000        +3.43084000        +5.86947000
@C        +3.07362000        +2.00735000        +6.34392000
@C        +1.97449000        +1.12085000        +5.69354000
@O        +1.65866000        +1.85047000        +4.49716000
@H        +0.30837000        +3.40170000        +7.00992000
@H        +0.86949000        +1.23342000        +7.60500000
@H        -2.65723000        -0.75293000        +5.38796000
@H        -3.73050000        +3.62906000        +5.92498000
@H        +3.40260000        +3.85166000        +5.18897000
@H        +2.51262000        +4.13872000        +6.68743000
@H        +4.05208000        +1.72378000        +5.95253000
@H        +3.10385000        +1.90122000        +7.43020000
@H        -2.18122000        -0.46381000        +3.68155000
@H        -1.35036000        -1.71313000        +4.65996000
@H        -4.00829000        +2.15007000        +6.89763000
@H        -3.60094000        +2.03084000        +5.15597000
@H        +1.06296000        +3.91327000        +4.46028000
@H        +2.27365000        +0.09888000        +5.58878000
$end

$rem
JOBTYPE                   SP
METHOD                    B3LYP
DFT_D                     d3_op
BASIS                     6-311++G(d,p)
SYMMETRY                  False
THRESH                    12
SCF_CONVERGENCE           8
MAX_SUB_FILE_NUM          128
MEM_STATIC                400
MEM_TOTAL                 4000
$end
--------------------------------------------------------------

             Standard Nuclear Orientation (Angstroms)
    I     Atom           X                Y                Z
 ----------------------------------------------------------------
    1      C       0.2227000000     1.0448800000     0.5859500000
    2      C       0.6262600000    -0.4135300000     0.9987100000
    3      C      -1.1820000000     1.2322300000     0.0437700000
    4      C      -0.3745700000    -1.5164300000     0.7233300000
    5      O      -2.0917200000     0.7883200000     0.9396600000
    6      O      -1.4733600000     1.7593900000    -0.9988200000
    7      O      -0.9136400000    -1.4279200000    -0.5062000000
    8      O      -0.6220800000    -2.4087700000     1.4991100000
    9      C      -1.8613400000    -2.4474100000    -0.8656000000
   10      C      -3.4706800000     0.8749200000     0.5392000000
   11      C       1.3300800000     1.3997400000    -0.4349100000
   12      C       2.6307000000     1.7170000000     0.3285500000
   13      C       3.0433600000     0.2935100000     0.8030000000
   14      C       1.9442300000    -0.5929900000     0.1526200000
   15      O       1.6284000000     0.1366300000    -1.0437600000
   16      H       0.2781100000     1.6878600000     1.4690000000
   17      H       0.8392300000    -0.4804200000     2.0640800000
   18      H      -2.6874900000    -2.4667700000    -0.1529600000
   19      H      -3.7607600000     1.9152200000     0.3840600000
   20      H       3.3723400000     2.1378200000    -0.3519500000
   21      H       2.4823600000     2.4248800000     1.1465100000
   22      H       4.0218200000     0.0099400000     0.4116100000
   23      H       3.0735900000     0.1873800000     1.8892800000
   24      H      -2.2114800000    -2.1776500000    -1.8593700000
   25      H      -1.3806200000    -3.4269700000    -0.8809600000
   26      H      -4.0385500000     0.4362300000     1.3567100000
   27      H      -3.6312000000     0.3170000000    -0.3849500000
   28      H       1.0327000000     2.1994300000    -1.0806400000
   29      H       2.2433900000    -1.6149600000     0.0478600000
   30      GH      0.2529600000     2.7587200000     6.1268700000
   31      GH      0.6565200000     1.3003100000     6.5396300000
   32      GH     -1.1517400000     2.9460700000     5.5846900000
   33      GH     -0.3443100000     0.1974100000     6.2642500000
   34      GH     -2.0614600000     2.5021600000     6.4805800000
   35      GH     -1.4431000000     3.4732300000     4.5421000000
   36      GH     -0.8833800000     0.2859200000     5.0347200000
   37      GH     -0.5918200000    -0.6949300000     7.0400300000
   38      GH     -1.8310800000    -0.7335700000     4.6753200000
   39      GH     -3.4404200000     2.5887600000     6.0801200000
   40      GH      1.3603400000     3.1135800000     5.1060100000
   41      GH      2.6609600000     3.4308400000     5.8694700000
   42      GH      3.0736200000     2.0073500000     6.3439200000
   43      GH      1.9744900000     1.1208500000     5.6935400000
   44      GH      1.6586600000     1.8504700000     4.4971600000
   45      GH      0.3083700000     3.4017000000     7.0099200000
   46      GH      0.8694900000     1.2334200000     7.6050000000
   47      GH     -2.6572300000    -0.7529300000     5.3879600000
   48      GH     -3.7305000000     3.6290600000     5.9249800000
   49      GH      3.4026000000     3.8516600000     5.1889700000
   50      GH      2.5126200000     4.1387200000     6.6874300000
   51      GH      4.0520800000     1.7237800000     5.9525300000
   52      GH      3.1038500000     1.9012200000     7.4302000000
   53      GH     -2.1812200000    -0.4638100000     3.6815500000
   54      GH     -1.3503600000    -1.7131300000     4.6599600000
   55      GH     -4.0082900000     2.1500700000     6.8976300000
   56      GH     -3.6009400000     2.0308400000     5.1559700000
   57      GH      1.0629600000     3.9132700000     4.4602800000
   58      GH      2.2736500000     0.0988800000     5.5887800000
 ----------------------------------------------------------------

   14    -765.8587200182      6.74E-09 Convergence criterion met
 Total energy in the final basis set = -765.85872002

                    Orbital Energies (a.u.)
 --------------------------------------------------------------

 Alpha MOs
 -- Occupied --
-19.176 -19.174 -19.136 -19.120 -19.116 -10.310 -10.306 -10.242
-10.232 -10.231 -10.230 -10.207 -10.206 -10.182 -10.180  -1.120
 -1.113  -1.065  -1.031  -1.028  -0.833  -0.785  -0.778  -0.740
 -0.729  -0.659  -0.610  -0.596  -0.580  -0.567  -0.551  -0.520
 -0.506  -0.496  -0.489  -0.484  -0.475  -0.473  -0.462  -0.439
 -0.427  -0.425  -0.418  -0.399  -0.385  -0.376  -0.371  -0.369
 -0.362  -0.356  -0.337  -0.334  -0.320  -0.313  -0.290  -0.282
 -0.276

          Ground-State Mulliken Net Atomic Charges

     Atom                 Charge (a.u.)
  ----------------------------------------
      1 C                    -0.095816
      2 C                     0.783351
      3 C                    -0.567038
      4 C                    -0.788783
      5 O                     0.045756
      6 O                    -0.184209
      7 O                     0.002647
      8 O                    -0.125329
      9 C                    -0.199708
     10 C                    -0.247123
     11 C                    -0.346680
     12 C                    -0.277361
     13 C                    -0.438361
     14 C                    -0.137111
     15 O                    -0.085243
     16 H                     0.155150
     17 H                     0.317476
     18 H                     0.188386
     19 H                     0.182837
     20 H                     0.204894
     21 H                     0.107843
     22 H                     0.197003
     23 H                     0.084820
     24 H                     0.172456
     25 H                     0.175509
     26 H                     0.141615
     27 H                     0.183853
     28 H                     0.286955
     29 H                     0.271344
     30 GH                    0.002111
     31 GH                    0.000177
     32 GH                    0.002287
     33 GH                    0.005564
     34 GH                    0.000202
     35 GH                    0.000485
     36 GH                    0.003065
     37 GH                    0.000043
     38 GH                    0.006207
     39 GH                    0.000427
     40 GH                   -0.008876
     41 GH                    0.001415
     42 GH                   -0.000622
     43 GH                   -0.003998
     44 GH                   -0.004181
     45 GH                   -0.000033
     46 GH                    0.000068
     47 GH                   -0.001066
     48 GH                    0.000022
     49 GH                    0.000815
     50 GH                   -0.000011
     51 GH                    0.000886
     52 GH                   -0.000057
     53 GH                   -0.015796
     54 GH                   -0.002804
     55 GH                    0.000041
     56 GH                   -0.000297
     57 GH                    0.003857
     58 GH                    0.000937
  ----------------------------------------
  Sum of atomic charges =     0.000000

                    Cartesian Multipole Moments
 -----------------------------------------------------------------
    Charge (ESU x 10^10)
                 0.0000
    Dipole Moment (Debye)
         X      -0.0119      Y       0.7206      Z       1.2183
       Tot       1.4155
    Quadrupole Moments (Debye-Ang)
        XX     -75.1992     XY       2.9695     YY     -89.6506
        XZ       3.3636     YZ      10.6918     ZZ     -95.8445

 Total job time:  5944.82s(wall), 5930.62s(cpu)
        *  Thank you very much for using Q-Chem.  Have a nice day.  *
