 Q-Chem 5.0, Q-Chem, Inc., Pleasanton, CA (2017)
 Q-Chem 5.0.1 for Intel X86 EM64T Linux

User input:
--------------------------------------------------------------
$molecule
0  1
C        -0.54444000        -0.68370000        -0.06689000
C        -0.55709000        +0.71878000        +0.05493000
C        +0.74969000        -1.43776000        -0.09374000
C        +0.72843000        +1.48436000        +0.06598000
O        +1.53645000        -1.09176000        +0.94813000
O        +1.04702000        -2.28405000        -0.90088000
O        +1.53784000        +1.08301000        -0.93877000
O        +1.01035000        +2.37097000        +0.83478000
C        +2.83449000        +1.70121000        -0.99358000
C        +2.82316000        -1.73208000        +1.00475000
C        -1.74320000        -1.41616000        -0.12552000
C        -2.93952000        -0.70056000        -0.05285000
C        -2.95313000        +0.68255000        +0.06934000
C        -1.77161000        +1.42404000        +0.12810000
H        +2.73835000        +2.77989000        -1.12464000
H        +2.70778000        -2.81319000        +1.09555000
H        -3.90354000        +1.20325000        +0.11710000
H        +3.38998000        +1.50093000        -0.07544000
H        +3.33184000        +1.25269000        -1.85067000
H        +3.31095000        -1.32281000        +1.88650000
H        +3.39889000        -1.50934000        +0.10459000
H        -3.87892000        -1.24211000        -0.08988000
H        -1.78886000        +2.45164000        +0.22176000
H        -1.73878000        -2.44393000        -0.21875000
@C        -0.50453000        -1.18941000        +5.71088000
@C        -0.51718000        +0.21307000        +5.83270000
@C        +0.78960000        -1.94347000        +5.68403000
@C        +0.76834000        +0.97865000        +5.84375000
@O        +1.57636000        -1.59747000        +6.72590000
@O        +1.08693000        -2.78976000        +4.87689000
@O        +1.57775000        +0.57730000        +4.83900000
@O        +1.05026000        +1.86526000        +6.61255000
@C        +2.87440000        +1.19550000        +4.78419000
@C        +2.86307000        -2.23779000        +6.78252000
@C        -1.70329000        -1.92187000        +5.65225000
@C        -2.89961000        -1.20627000        +5.72492000
@C        -2.91322000        +0.17684000        +5.84711000
@C        -1.73170000        +0.91833000        +5.90587000
@H        +2.77826000        +2.27418000        +4.65313000
@H        +2.74769000        -3.31890000        +6.87332000
@H        -3.86363000        +0.69754000        +5.89487000
@H        +3.42989000        +0.99522000        +5.70233000
@H        +3.37175000        +0.74698000        +3.92710000
@H        +3.35086000        -1.82852000        +7.66427000
@H        +3.43880000        -2.01505000        +5.88236000
@H        -3.83901000        -1.74782000        +5.68789000
@H        -1.74895000        +1.94593000        +5.99953000
@H        -1.69887000        -2.94964000        +5.55902000
$end

$rem
JOBTYPE                   SP
METHOD                    B3LYP
DFT_D                     d3_op
BASIS                     6-311++G(d,p)
SYMMETRY                  False
THRESH                    12
SCF_CONVERGENCE           8
MAX_SUB_FILE_NUM          128
MEM_STATIC                400
MEM_TOTAL                 4000
$end
--------------------------------------------------------------

             Standard Nuclear Orientation (Angstroms)
    I     Atom           X                Y                Z
 ----------------------------------------------------------------
    1      C      -0.5444400000    -0.6837000000    -0.0668900000
    2      C      -0.5570900000     0.7187800000     0.0549300000
    3      C       0.7496900000    -1.4377600000    -0.0937400000
    4      C       0.7284300000     1.4843600000     0.0659800000
    5      O       1.5364500000    -1.0917600000     0.9481300000
    6      O       1.0470200000    -2.2840500000    -0.9008800000
    7      O       1.5378400000     1.0830100000    -0.9387700000
    8      O       1.0103500000     2.3709700000     0.8347800000
    9      C       2.8344900000     1.7012100000    -0.9935800000
   10      C       2.8231600000    -1.7320800000     1.0047500000
   11      C      -1.7432000000    -1.4161600000    -0.1255200000
   12      C      -2.9395200000    -0.7005600000    -0.0528500000
   13      C      -2.9531300000     0.6825500000     0.0693400000
   14      C      -1.7716100000     1.4240400000     0.1281000000
   15      H       2.7383500000     2.7798900000    -1.1246400000
   16      H       2.7077800000    -2.8131900000     1.0955500000
   17      H      -3.9035400000     1.2032500000     0.1171000000
   18      H       3.3899800000     1.5009300000    -0.0754400000
   19      H       3.3318400000     1.2526900000    -1.8506700000
   20      H       3.3109500000    -1.3228100000     1.8865000000
   21      H       3.3988900000    -1.5093400000     0.1045900000
   22      H      -3.8789200000    -1.2421100000    -0.0898800000
   23      H      -1.7888600000     2.4516400000     0.2217600000
   24      H      -1.7387800000    -2.4439300000    -0.2187500000
   25      GH     -0.5045300000    -1.1894100000     5.7108800000
   26      GH     -0.5171800000     0.2130700000     5.8327000000
   27      GH      0.7896000000    -1.9434700000     5.6840300000
   28      GH      0.7683400000     0.9786500000     5.8437500000
   29      GH      1.5763600000    -1.5974700000     6.7259000000
   30      GH      1.0869300000    -2.7897600000     4.8768900000
   31      GH      1.5777500000     0.5773000000     4.8390000000
   32      GH      1.0502600000     1.8652600000     6.6125500000
   33      GH      2.8744000000     1.1955000000     4.7841900000
   34      GH      2.8630700000    -2.2377900000     6.7825200000
   35      GH     -1.7032900000    -1.9218700000     5.6522500000
   36      GH     -2.8996100000    -1.2062700000     5.7249200000
   37      GH     -2.9132200000     0.1768400000     5.8471100000
   38      GH     -1.7317000000     0.9183300000     5.9058700000
   39      GH      2.7782600000     2.2741800000     4.6531300000
   40      GH      2.7476900000    -3.3189000000     6.8733200000
   41      GH     -3.8636300000     0.6975400000     5.8948700000
   42      GH      3.4298900000     0.9952200000     5.7023300000
   43      GH      3.3717500000     0.7469800000     3.9271000000
   44      GH      3.3508600000    -1.8285200000     7.6642700000
   45      GH      3.4388000000    -2.0150500000     5.8823600000
   46      GH     -3.8390100000    -1.7478200000     5.6878900000
   47      GH     -1.7489500000     1.9459300000     5.9995300000
   48      GH     -1.6988700000    -2.9496400000     5.5590200000
 ----------------------------------------------------------------

   14    -688.2108245969      5.70E-09 Convergence criterion met
 Total energy in the final basis set = -688.21082460

                    Orbital Energies (a.u.)
 --------------------------------------------------------------

 Alpha MOs
 -- Occupied --
-19.178 -19.178 -19.122 -19.122 -10.314 -10.314 -10.233 -10.233
-10.215 -10.214 -10.198 -10.198 -10.197 -10.197  -1.123  -1.117
 -1.033  -1.032  -0.887  -0.800  -0.787  -0.744  -0.733  -0.656
 -0.646  -0.596  -0.579  -0.555  -0.524  -0.516  -0.493  -0.492
 -0.485  -0.479  -0.472  -0.468  -0.440  -0.431  -0.416  -0.408
 -0.389  -0.387  -0.384  -0.369  -0.366  -0.324  -0.315  -0.301
 -0.297  -0.275  -0.272

          Ground-State Mulliken Net Atomic Charges

     Atom                 Charge (a.u.)
  ----------------------------------------
      1 C                     0.812176
      2 C                     0.970346
      3 C                    -0.691271
      4 C                    -0.866848
      5 O                     0.080842
      6 O                    -0.180739
      7 O                     0.050835
      8 O                    -0.126644
      9 C                    -0.196101
     10 C                    -0.320658
     11 C                    -0.425160
     12 C                    -0.222659
     13 C                    -0.190667
     14 C                    -0.458123
     15 H                     0.171493
     16 H                     0.190071
     17 H                     0.182650
     18 H                     0.176592
     19 H                     0.171812
     20 H                     0.122731
     21 H                     0.187925
     22 H                     0.180939
     23 H                     0.187213
     24 H                     0.194190
     25 GH                   -0.028061
     26 GH                    0.048927
     27 GH                    0.006814
     28 GH                   -0.014645
     29 GH                    0.000014
     30 GH                    0.000242
     31 GH                   -0.001527
     32 GH                   -0.000048
     33 GH                   -0.006591
     34 GH                   -0.001922
     35 GH                   -0.003264
     36 GH                   -0.009645
     37 GH                    0.007908
     38 GH                   -0.007949
     39 GH                   -0.000348
     40 GH                    0.000081
     41 GH                    0.000030
     42 GH                    0.000256
     43 GH                    0.009459
     44 GH                   -0.000085
     45 GH                    0.001206
     46 GH                   -0.000593
     47 GH                   -0.001541
     48 GH                    0.000338
  ----------------------------------------
  Sum of atomic charges =     0.000000

                    Cartesian Multipole Moments
 -----------------------------------------------------------------
    Charge (ESU x 10^10)
                 0.0000
    Dipole Moment (Debye)
         X      -0.0467      Y      -0.1156      Z       0.0789
       Tot       0.1476
    Quadrupole Moments (Debye-Ang)
        XX     -61.3115     XY      -0.0471     YY     -84.3202
        XZ       0.0724     YZ      -9.7213     ZZ     -87.0516

 Total job time:  1085.24s(wall), 2154.55s(cpu)
        *  Thank you very much for using Q-Chem.  Have a nice day.  *
