 Q-Chem 5.0, Q-Chem, Inc., Pleasanton, CA (2017)
 Q-Chem 5.0.1 for Intel X86 EM64T Linux

User input:
--------------------------------------------------------------
$molecule
0  1
--
0  1
C        -0.54444000        -0.68370000        -0.06689000
C        -0.55709000        +0.71878000        +0.05493000
C        +0.74969000        -1.43776000        -0.09374000
C        +0.72843000        +1.48436000        +0.06598000
O        +1.53645000        -1.09176000        +0.94813000
O        +1.04702000        -2.28405000        -0.90088000
O        +1.53784000        +1.08301000        -0.93877000
O        +1.01035000        +2.37097000        +0.83478000
C        +2.83449000        +1.70121000        -0.99358000
C        +2.82316000        -1.73208000        +1.00475000
C        -1.74320000        -1.41616000        -0.12552000
C        -2.93952000        -0.70056000        -0.05285000
C        -2.95313000        +0.68255000        +0.06934000
C        -1.77161000        +1.42404000        +0.12810000
H        +2.73835000        +2.77989000        -1.12464000
H        +2.70778000        -2.81319000        +1.09555000
H        -3.90354000        +1.20325000        +0.11710000
H        +3.38998000        +1.50093000        -0.07544000
H        +3.33184000        +1.25269000        -1.85067000
H        +3.31095000        -1.32281000        +1.88650000
H        +3.39889000        -1.50934000        +0.10459000
H        -3.87892000        -1.24211000        -0.08988000
H        -1.78886000        +2.45164000        +0.22176000
H        -1.73878000        -2.44393000        -0.21875000
--
0  1
C        -0.50453000        -1.18941000        +5.71088000
C        -0.51718000        +0.21307000        +5.83270000
C        +0.78960000        -1.94347000        +5.68403000
C        +0.76834000        +0.97865000        +5.84375000
O        +1.57636000        -1.59747000        +6.72590000
O        +1.08693000        -2.78976000        +4.87689000
O        +1.57775000        +0.57730000        +4.83900000
O        +1.05026000        +1.86526000        +6.61255000
C        +2.87440000        +1.19550000        +4.78419000
C        +2.86307000        -2.23779000        +6.78252000
C        -1.70329000        -1.92187000        +5.65225000
C        -2.89961000        -1.20627000        +5.72492000
C        -2.91322000        +0.17684000        +5.84711000
C        -1.73170000        +0.91833000        +5.90587000
H        +2.77826000        +2.27418000        +4.65313000
H        +2.74769000        -3.31890000        +6.87332000
H        -3.86363000        +0.69754000        +5.89487000
H        +3.42989000        +0.99522000        +5.70233000
H        +3.37175000        +0.74698000        +3.92710000
H        +3.35086000        -1.82852000        +7.66427000
H        +3.43880000        -2.01505000        +5.88236000
H        -3.83901000        -1.74782000        +5.68789000
H        -1.74895000        +1.94593000        +5.99953000
H        -1.69887000        -2.94964000        +5.55902000
$end

$rem
JOBTYPE                   SP
METHOD                    B3LYP
DFT_D                     d3_op
BASIS                     6-311++G(d,p)
SYMMETRY                  False
THRESH                    12
SCF_CONVERGENCE           8
MAX_SUB_FILE_NUM          128
MEM_STATIC                400
MEM_TOTAL                 4000
$end
--------------------------------------------------------------

             Standard Nuclear Orientation (Angstroms)
    I     Atom           X                Y                Z
 ----------------------------------------------------------------
    1      C      -2.8803455652     0.8089883972     0.8135528996
    2      C      -2.9371987104     0.8304810689    -0.5929520134
    3      C      -2.7988041061    -0.4893961061     1.5562833589
    4      C      -3.0105445457    -0.4507076836    -1.3623493609
    5      O      -1.8014501988    -1.2632091617     1.0759720712
    6      O      -3.4893451649    -0.7998067647     2.4959030381
    7      O      -3.9484005913    -1.2728572861    -0.8424984188
    8      O      -2.3574509685    -0.7196948130    -2.3409832669
    9      C      -4.0683047525    -2.5666661866    -1.4574440422
   10      C      -1.6515875179    -2.5526780544     1.6953663742
   11      C      -2.8575359605     2.0030980453     1.5555384360
   12      C      -2.8877988113     3.2039572782     0.8445060217
   13      C      -2.9418420135     3.2263094663    -0.5428254499
   14      C      -2.9658351823     2.0494886164    -1.2936694304
   15      H      -4.3358152698    -2.4661101199    -2.5102007882
   16      H      -1.4257800601    -2.4421682644     2.7570417459
   17      H      -2.9697233741     4.1799625938    -1.0590201979
   18      H      -3.1267872531    -3.1134776035    -1.3786763411
   19      H      -4.8567878775    -3.0754689418    -0.9074034993
   20      H      -0.8240029283    -3.0288962159     1.1745553825
   21      H      -2.5670081781    -3.1366955700     1.5844848046
   22      H      -2.8651881545     4.1399821398     1.3926539945
   23      H      -3.0032033623     2.0732636933    -2.3247222336
   24      H      -2.8198456995     1.9921556992     2.5867911943
   25      C       2.9150681709     0.8275128627     0.5837746209
   26      C       2.8582150256     0.8490055344    -0.8227302921
   27      C       2.9966096299    -0.4708716405     1.3265050802
   28      C       2.7848691903    -0.4321832180    -1.5921276395
   29      O       3.9939635372    -1.2446846961     0.8461937925
   30      O       2.3060685711    -0.7812822992     2.2661247595
   31      O       1.8470131447    -1.2543328205    -1.0722766975
   32      O       3.4379627676    -0.7011703474    -2.5707615456
   33      C       1.7271089835    -2.5481417210    -1.6872223209
   34      C       4.1438262181    -2.5341535888     1.4655880956
   35      C       2.9378777755     2.0216225109     1.3257601573
   36      C       2.9076149248     3.2224817437     0.6147277431
   37      C       2.8535717225     3.2448339319    -0.7726037286
   38      C       2.8295785538     2.0680130819    -1.5234477091
   39      H       1.4595984662    -2.4475856543    -2.7399790668
   40      H       4.3696336760    -2.4236437988     2.5272634672
   41      H       2.8256903619     4.1984870594    -1.2887984765
   42      H       2.6686264829    -3.0949531380    -1.6084546197
   43      H       0.9386258585    -3.0569444762    -1.1371817780
   44      H       4.9714108078    -3.0103717504     0.9447771038
   45      H       3.2284055580    -3.1181711044     1.3547065259
   46      H       2.9302255815     4.1585066054     1.1628757158
   47      H       2.7922103737     2.0917881589    -2.5545005123
   48      H       2.9755680366     2.0106801648     2.3570129156
 ----------------------------------------------------------------

   15   -1376.4235931381      4.68E-09 Convergence criterion met
 Total energy in the final basis set = -1376.42359314

                    Orbital Energies (a.u.)
 --------------------------------------------------------------

 Alpha MOs
 -- Occupied --
-19.178 -19.177 -19.174 -19.173 -19.121 -19.121 -19.118 -19.117
-10.313 -10.313 -10.310 -10.309 -10.233 -10.233 -10.229 -10.228
-10.212 -10.212 -10.211 -10.211 -10.196 -10.195 -10.195 -10.195
-10.195 -10.195 -10.195 -10.194  -1.121  -1.121  -1.113  -1.113
 -1.032  -1.031  -1.028  -1.027  -0.885  -0.884  -0.797  -0.797
 -0.785  -0.784  -0.741  -0.741  -0.730  -0.730  -0.654  -0.653
 -0.643  -0.643  -0.593  -0.593  -0.576  -0.576  -0.553  -0.552
 -0.521  -0.521  -0.513  -0.513  -0.491  -0.491  -0.489  -0.488
 -0.483  -0.482  -0.477  -0.476  -0.469  -0.469  -0.466  -0.465
 -0.439  -0.437  -0.430  -0.428  -0.413  -0.413  -0.406  -0.405
 -0.387  -0.386  -0.385  -0.384  -0.381  -0.381  -0.367  -0.366
 -0.363  -0.362  -0.321  -0.321  -0.312  -0.311  -0.299  -0.299
 -0.294  -0.293  -0.273  -0.272  -0.269  -0.269

          Ground-State Mulliken Net Atomic Charges

     Atom                 Charge (a.u.)
  ----------------------------------------
      1 C                     0.855525
      2 C                     0.959423
      3 C                    -0.706419
      4 C                    -0.863282
      5 O                     0.087305
      6 O                    -0.184729
      7 O                     0.052422
      8 O                    -0.133478
      9 C                    -0.196397
     10 C                    -0.314945
     11 C                    -0.427765
     12 C                    -0.212883
     13 C                    -0.199816
     14 C                    -0.464664
     15 H                     0.171321
     16 H                     0.193189
     17 H                     0.179302
     18 H                     0.173409
     19 H                     0.172125
     20 H                     0.118705
     21 H                     0.185061
     22 H                     0.178815
     23 H                     0.185721
     24 H                     0.193050
     25 C                     0.937450
     26 C                     0.895381
     27 C                    -0.915364
     28 C                    -0.659895
     29 O                     0.060698
     30 O                    -0.122763
     31 O                     0.073714
     32 O                    -0.188466
     33 C                    -0.319154
     34 C                    -0.198109
     35 C                    -0.453665
     36 C                    -0.196695
     37 C                    -0.220323
     38 C                    -0.444527
     39 H                     0.195591
     40 H                     0.170903
     41 H                     0.178427
     42 H                     0.188305
     43 H                     0.115279
     44 H                     0.170239
     45 H                     0.173023
     46 H                     0.179907
     47 H                     0.194372
     48 H                     0.184679
  ----------------------------------------
  Sum of atomic charges =    -0.000000

                    Cartesian Multipole Moments
 -----------------------------------------------------------------
    Charge (ESU x 10^10)
                -0.0000
    Dipole Moment (Debye)
         X       0.1843      Y       0.1477      Z       0.2071
       Tot       0.3141
    Quadrupole Moments (Debye-Ang)
        XX    -170.4404     XY      -0.7434     YY    -124.0841
        XZ      18.9242     YZ       0.5017     ZZ    -173.4846

 Total job time:  1182.94s(wall), 2353.85s(cpu)
        *  Thank you very much for using Q-Chem.  Have a nice day.  *
