 Q-Chem 5.0, Q-Chem, Inc., Pleasanton, CA (2017)
 Q-Chem 5.0.1 for Intel X86 EM64T Linux

User input:
--------------------------------------------------------------
$molecule
0  1
--
0  1
C        +0.22270000        +1.04488000        +0.58595000
C        +0.62626000        -0.41353000        +0.99871000
C        -1.18200000        +1.23223000        +0.04377000
C        -0.37457000        -1.51643000        +0.72333000
O        -2.09172000        +0.78832000        +0.93966000
O        -1.47336000        +1.75939000        -0.99882000
O        -0.91364000        -1.42792000        -0.50620000
O        -0.62208000        -2.40877000        +1.49911000
C        -1.86134000        -2.44741000        -0.86560000
C        -3.47068000        +0.87492000        +0.53920000
C        +1.33008000        +1.39974000        -0.43491000
C        +2.63070000        +1.71700000        +0.32855000
C        +3.04336000        +0.29351000        +0.80300000
C        +1.94423000        -0.59299000        +0.15262000
O        +1.62840000        +0.13663000        -1.04376000
H        +0.27811000        +1.68786000        +1.46900000
H        +0.83923000        -0.48042000        +2.06408000
H        -2.68749000        -2.46677000        -0.15296000
H        -3.76076000        +1.91522000        +0.38406000
H        +3.37234000        +2.13782000        -0.35195000
H        +2.48236000        +2.42488000        +1.14651000
H        +4.02182000        +0.00994000        +0.41161000
H        +3.07359000        +0.18738000        +1.88928000
H        -2.21148000        -2.17765000        -1.85937000
H        -1.38062000        -3.42697000        -0.88096000
H        -4.03855000        +0.43623000        +1.35671000
H        -3.63120000        +0.31700000        -0.38495000
C        +2.35450000        -2.01267000        -0.16812000
H        +3.26311000        -2.00678000        -0.77366000
H        +2.54990000        -2.57059000        +0.75079000
H        +1.57335000        -2.52896000        -0.72872000
H        +1.03270000        +2.19943000        -1.08064000
--
0  1
C        +0.25296000        +2.75872000        +6.12687000
C        +0.65652000        +1.30031000        +6.53963000
C        -1.15174000        +2.94607000        +5.58469000
C        -0.34431000        +0.19741000        +6.26425000
O        -2.06146000        +2.50216000        +6.48058000
O        -1.44310000        +3.47323000        +4.54210000
O        -0.88338000        +0.28592000        +5.03472000
O        -0.59182000        -0.69493000        +7.04003000
C        -1.83108000        -0.73357000        +4.67532000
C        -3.44042000        +2.58876000        +6.08012000
C        +1.36034000        +3.11358000        +5.10601000
C        +2.66096000        +3.43084000        +5.86947000
C        +3.07362000        +2.00735000        +6.34392000
C        +1.97449000        +1.12085000        +5.69354000
O        +1.65866000        +1.85047000        +4.49716000
H        +0.30837000        +3.40170000        +7.00992000
H        +0.86949000        +1.23342000        +7.60500000
H        -2.65723000        -0.75293000        +5.38796000
H        -3.73050000        +3.62906000        +5.92498000
H        +3.40260000        +3.85166000        +5.18897000
H        +2.51262000        +4.13872000        +6.68743000
H        +4.05208000        +1.72378000        +5.95253000
H        +3.10385000        +1.90122000        +7.43020000
H        -2.18122000        -0.46381000        +3.68155000
H        -1.35036000        -1.71313000        +4.65996000
H        -4.00829000        +2.15007000        +6.89763000
H        -3.60094000        +2.03084000        +5.15597000
C        +2.38476000        -0.29883000        +5.37280000
H        +3.29337000        -0.29294000        +4.76726000
H        +2.58016000        -0.85675000        +6.29171000
H        +1.60361000        -0.81512000        +4.81220000
H        +1.06296000        +3.91327000        +4.46028000
$end

$rem
JOBTYPE                   SP
METHOD                    B3LYP
DFT_D                     d3_op
BASIS                     6-311++G(d,p)
SYMMETRY                  False
THRESH                    12
SCF_CONVERGENCE           8
MAX_SUB_FILE_NUM          128
MEM_STATIC                400
MEM_TOTAL                 4000
$end
--------------------------------------------------------------

             Standard Nuclear Orientation (Angstroms)
    I     Atom           X                Y                Z
 ----------------------------------------------------------------
    1      C      -2.0734269713     0.2070927258     1.1141089237
    2      C      -2.1922708775     0.5649969902    -0.4083797898
    3      C      -2.5387229312    -1.1778302243     1.5236566704
    4      C      -2.8540156779    -0.4538520224    -1.3127711608
    5      O      -1.8710483718    -2.1213476479     0.8227636594
    6      O      -3.3345893911    -1.4287533282     2.3916522909
    7      O      -3.9830361058    -0.9576811239    -0.7820701001
    8      O      -2.4451510293    -0.7429465975    -2.4121439410
    9      C      -4.6932686044    -1.9192250722    -1.5806103581
   10      C      -2.2386072410    -3.4867043330     1.0875278060
   11      C      -2.8860571745     1.3493803307     1.7692290683
   12      C      -2.0381821899     2.6362810888     1.7577437246
   13      C      -2.0868603370     3.0024565721     0.2460358125
   14      C      -3.0253491807     1.9004794612    -0.3212809321
   15      O      -3.8945232940     1.6339793860     0.7908940130
   16      H      -1.0200559081     0.2540611649     1.4047534145
   17      H      -1.2147978298     0.7478235477    -0.8510587036
   18      H      -4.0467050819    -2.7643256391    -1.8225091900
   19      H      -2.0234722050    -3.7479332918     2.1247911589
   20      H      -2.5151255056     3.4055326547     2.3668223024
   21      H      -1.0263694395     2.4828959254     2.1383555497
   22      H      -2.5364762482     3.9840553040     0.0870027639
   23      H      -1.1066426408     3.0011758558    -0.2349561793
   24      H      -5.5347799540    -2.2362623969    -0.9688152345
   25      H      -5.0435137775    -1.4614948707    -2.5072585237
   26      H      -1.6367643249    -4.0863737838     0.4082417785
   27      H      -3.3023505138    -3.6356138441     0.8942124516
   28      C      -3.8171842562     2.2855773701    -1.5506644104
   29      H      -4.3668315628     3.2099099031    -1.3615011940
   30      H      -3.1495100092     2.4431767382    -2.4010907820
   31      H      -4.5363330604     1.5077109885    -1.8129084503
   32      H      -3.2148059033     1.0882754852     2.7534316523
   33      C       3.7161630640     0.1298708148     0.7755211808
   34      C       3.5973191577     0.4877750792    -0.7469675327
   35      C       3.2508671040    -1.2550521354     1.1850689275
   36      C       2.9355743574    -0.5310739335    -1.6513589037
   37      O       3.9185416635    -2.1985695589     0.4841759165
   38      O       2.4550006441    -1.5059752392     2.0530645480
   39      O       1.8065539294    -1.0349030349    -1.1206578430
   40      O       3.3444390060    -0.8201685085    -2.7507316839
   41      C       1.0963214309    -1.9964469832    -1.9191981010
   42      C       3.5509827943    -3.5639262440     0.7489400631
   43      C       2.9035328607     1.2721584197     1.4306413254
   44      C       3.7514078454     2.5590591777     1.4191559817
   45      C       3.7027296983     2.9252346611    -0.0925519304
   46      C       2.7642408545     1.8232575502    -0.6598686750
   47      O       1.8950667412     1.5567574750     0.4523062701
   48      H       4.7695341271     0.1768392539     1.0661656717
   49      H       4.5747922055     0.6706016367    -1.1896464465
   50      H       1.7428849534    -2.8415475501    -2.1610969329
   51      H       3.7661178302    -3.8251552029     1.7862034160
   52      H       3.2744645297     3.3283107436     2.0282345595
   53      H       4.7632205958     2.4056740144     1.7997678068
   54      H       3.2531137871     3.9068333930    -0.2515849790
   55      H       4.6829473944     2.9239539448    -0.5735439222
   56      H       0.2548100812    -2.3134843079    -1.3074029774
   57      H       0.7460762577    -1.5387167817    -2.8458462666
   58      H       4.1528257103    -4.1635956949     0.0696540356
   59      H       2.4872395214    -3.7128357552     0.5556247087
   60      C       1.9724057791     2.2083554591    -1.8892521533
   61      H       1.4227584724     3.1326879921    -1.7000889369
   62      H       2.6400800261     2.3659548272    -2.7396785249
   63      H       1.2532569749     1.4304890775    -2.1514961932
   64      H       2.5747841319     1.0110535742     2.4148439094
 ----------------------------------------------------------------

   15   -1610.4031700151      5.42E-09 Convergence criterion met
 Total energy in the final basis set = -1610.40317002

                    Orbital Energies (a.u.)
 --------------------------------------------------------------

 Alpha MOs
 -- Occupied --
-19.178 -19.172 -19.171 -19.170 -19.138 -19.124 -19.122 -19.116
-19.114 -19.113 -10.312 -10.306 -10.303 -10.302 -10.251 -10.239
-10.234 -10.234 -10.229 -10.229 -10.223 -10.220 -10.209 -10.207
-10.197 -10.195 -10.184 -10.183 -10.175 -10.172 -10.169 -10.166
 -1.121  -1.116  -1.113  -1.109  -1.070  -1.056  -1.033  -1.027
 -1.026  -1.025  -0.836  -0.825  -0.800  -0.789  -0.788  -0.777
 -0.747  -0.742  -0.728  -0.725  -0.701  -0.691  -0.658  -0.649
 -0.609  -0.600  -0.594  -0.584  -0.568  -0.566  -0.565  -0.556
 -0.537  -0.528  -0.521  -0.513  -0.512  -0.505  -0.496  -0.492
 -0.486  -0.485  -0.485  -0.479  -0.476  -0.473  -0.472  -0.468
 -0.464  -0.455  -0.446  -0.438  -0.435  -0.429  -0.426  -0.420
 -0.418  -0.412  -0.408  -0.400  -0.397  -0.394  -0.394  -0.385
 -0.384  -0.374  -0.374  -0.372  -0.370  -0.365  -0.364  -0.358
 -0.356  -0.354  -0.348  -0.343  -0.338  -0.336  -0.326  -0.325
 -0.321  -0.316  -0.312  -0.309  -0.292  -0.284  -0.284  -0.279
 -0.277  -0.267

          Ground-State Mulliken Net Atomic Charges

     Atom                 Charge (a.u.)
  ----------------------------------------
      1 C                    -0.080422
      2 C                     0.750591
      3 C                    -0.731713
      4 C                    -0.806277
      5 O                     0.041421
      6 O                    -0.180961
      7 O                     0.040059
      8 O                    -0.097415
      9 C                    -0.176943
     10 C                    -0.234268
     11 C                    -0.220571
     12 C                    -0.413181
     13 C                    -0.295683
     14 C                    -0.333413
     15 O                     0.000200
     16 H                     0.242021
     17 H                     0.295424
     18 H                     0.193509
     19 H                     0.186302
     20 H                     0.196882
     21 H                     0.120827
     22 H                     0.184999
     23 H                     0.074050
     24 H                     0.178654
     25 H                     0.175703
     26 H                     0.132069
     27 H                     0.183471
     28 C                    -0.256298
     29 H                     0.182920
     30 H                     0.159267
     31 H                     0.180927
     32 H                     0.290132
     33 C                    -0.007636
     34 C                     0.503731
     35 C                    -0.582085
     36 C                    -0.872523
     37 O                     0.008133
     38 O                    -0.116666
     39 O                     0.037580
     40 O                    -0.103375
     41 C                    -0.291571
     42 C                    -0.162314
     43 C                    -0.179284
     44 C                    -0.638596
     45 C                    -0.322540
     46 C                    -0.304548
     47 O                     0.194264
     48 H                     0.248664
     49 H                     0.285313
     50 H                     0.208277
     51 H                     0.171294
     52 H                     0.179212
     53 H                     0.137649
     54 H                     0.168306
     55 H                     0.147397
     56 H                     0.129216
     57 H                     0.208470
     58 H                     0.165686
     59 H                     0.179728
     60 C                    -0.218764
     61 H                     0.192516
     62 H                     0.189244
     63 H                     0.189763
     64 H                     0.273174
  ----------------------------------------
  Sum of atomic charges =     0.000000

                    Cartesian Multipole Moments
 -----------------------------------------------------------------
    Charge (ESU x 10^10)
                 0.0000
    Dipole Moment (Debye)
         X       2.8360      Y       0.0613      Z       0.1770
       Tot       2.8422
    Quadrupole Moments (Debye-Ang)
        XX    -189.7814     XY       8.7832     YY    -164.7151
        XZ      19.9416     YZ       0.7852     ZZ    -208.0108

 Total job time:  6812.28s(wall), 6796.47s(cpu)
        *  Thank you very much for using Q-Chem.  Have a nice day.  *
