 Q-Chem 5.0, Q-Chem, Inc., Pleasanton, CA (2017)
 Q-Chem 5.0.1 for Intel X86 EM64T Linux

User input:
--------------------------------------------------------------
$molecule
0  1
--
0  1
C        +0.22270000        +1.04488000        +0.58595000
C        +0.62626000        -0.41353000        +0.99871000
C        -1.18200000        +1.23223000        +0.04377000
C        -0.37457000        -1.51643000        +0.72333000
O        -2.09172000        +0.78832000        +0.93966000
O        -1.47336000        +1.75939000        -0.99882000
O        -0.91364000        -1.42792000        -0.50620000
O        -0.62208000        -2.40877000        +1.49911000
C        -1.86134000        -2.44741000        -0.86560000
C        -3.47068000        +0.87492000        +0.53920000
C        +1.33008000        +1.39974000        -0.43491000
C        +2.63070000        +1.71700000        +0.32855000
C        +3.04336000        +0.29351000        +0.80300000
C        +1.94423000        -0.59299000        +0.15262000
O        +1.62840000        +0.13663000        -1.04376000
H        +0.27811000        +1.68786000        +1.46900000
H        +0.83923000        -0.48042000        +2.06408000
H        -2.68749000        -2.46677000        -0.15296000
H        -3.76076000        +1.91522000        +0.38406000
H        +3.37234000        +2.13782000        -0.35195000
H        +2.48236000        +2.42488000        +1.14651000
H        +4.02182000        +0.00994000        +0.41161000
H        +3.07359000        +0.18738000        +1.88928000
H        -2.21148000        -2.17765000        -1.85937000
H        -1.38062000        -3.42697000        -0.88096000
H        -4.03855000        +0.43623000        +1.35671000
H        -3.63120000        +0.31700000        -0.38495000
C        +0.90028000        +2.39077000        -1.49430000
C        +2.35450000        -2.01267000        -0.16812000
H        +3.26311000        -2.00678000        -0.77366000
H        +2.54990000        -2.57059000        +0.75079000
H        +1.57335000        -2.52896000        -0.72872000
H        +1.71845000        +2.58186000        -2.15686000
H        +0.59919000        +3.30478000        -1.02650000
H        +0.07925000        +1.98653000        -2.04874000
--
0  1
C        +0.25296000        +2.75872000        +6.12687000
C        +0.65652000        +1.30031000        +6.53963000
C        -1.15174000        +2.94607000        +5.58469000
C        -0.34431000        +0.19741000        +6.26425000
O        -2.06146000        +2.50216000        +6.48058000
O        -1.44310000        +3.47323000        +4.54210000
O        -0.88338000        +0.28592000        +5.03472000
O        -0.59182000        -0.69493000        +7.04003000
C        -1.83108000        -0.73357000        +4.67532000
C        -3.44042000        +2.58876000        +6.08012000
C        +1.36034000        +3.11358000        +5.10601000
C        +2.66096000        +3.43084000        +5.86947000
C        +3.07362000        +2.00735000        +6.34392000
C        +1.97449000        +1.12085000        +5.69354000
O        +1.65866000        +1.85047000        +4.49716000
H        +0.30837000        +3.40170000        +7.00992000
H        +0.86949000        +1.23342000        +7.60500000
H        -2.65723000        -0.75293000        +5.38796000
H        -3.73050000        +3.62906000        +5.92498000
H        +3.40260000        +3.85166000        +5.18897000
H        +2.51262000        +4.13872000        +6.68743000
H        +4.05208000        +1.72378000        +5.95253000
H        +3.10385000        +1.90122000        +7.43020000
H        -2.18122000        -0.46381000        +3.68155000
H        -1.35036000        -1.71313000        +4.65996000
H        -4.00829000        +2.15007000        +6.89763000
H        -3.60094000        +2.03084000        +5.15597000
C        +0.93054000        +4.10461000        +4.04662000
C        +2.38476000        -0.29883000        +5.37280000
H        +3.29337000        -0.29294000        +4.76726000
H        +2.58016000        -0.85675000        +6.29171000
H        +1.60361000        -0.81512000        +4.81220000
H        +1.74871000        +4.29570000        +3.38406000
H        +0.62945000        +5.01862000        +4.51442000
H        +0.10951000        +3.70037000        +3.49218000
$end

$rem
JOBTYPE                   SP
METHOD                    B3LYP
DFT_D                     d3_op
BASIS                     6-311++G(d,p)
SYMMETRY                  False
THRESH                    12
SCF_CONVERGENCE           8
MAX_SUB_FILE_NUM          128
MEM_STATIC                400
MEM_TOTAL                 4000
$end
--------------------------------------------------------------

             Standard Nuclear Orientation (Angstroms)
    I     Atom           X                Y                Z
 ----------------------------------------------------------------
    1      C      -2.0504780873     0.2522107166     0.8506200737
    2      C      -2.1365236465     0.3985780918    -0.7086630861
    3      C      -2.5128092117    -1.0698191863     1.4343392974
    4      C      -2.7674840157    -0.7416136649    -1.4805018088
    5      O      -1.8202660918    -2.0915912013     0.8833116800
    6      O      -3.3266750493    -1.2101998883     2.3105229997
    7      O      -3.9041417508    -1.1823915178    -0.9113809223
    8      O      -2.3301536405    -1.1723318569    -2.5209778854
    9      C      -4.5865935979    -2.2520282781    -1.5872508709
   10      C      -2.1816454563    -3.4127109853     1.3231365593
   11      C      -2.8886420627     1.4629192499     1.3260537927
   12      C      -2.0523796252     2.7465478817     1.1584228438
   13      C      -2.0686113726     2.9034260012    -0.3897504812
   14      C      -2.9834451235     1.7232929587    -0.8225649468
   15      O      -3.8762267059     1.5997487896     0.2959594928
   16      H      -1.0047386104     0.3510114740     1.1554777582
   17      H      -1.1505488894     0.5314622930    -1.1502956226
   18      H      -3.9268929428    -3.1142286754    -1.6975229083
   19      H      -1.9887417844    -3.5280280165     2.3908111688
   20      H      -2.5505096564     3.5855311757     1.6464526751
   21      H      -1.0485039536     2.6585782095     1.5787231939
   22      H      -2.5231816116     3.8487979173    -0.6907818529
   23      H      -1.0773258415     2.8487526441    -0.8442232395
   24      H      -5.4394368271    -2.4932520038    -0.9568408212
   25      H      -4.9189521336    -1.9286656886    -2.5750969526
   26      H      -1.5585264440    -4.0917117663     0.7452711000
   27      H      -3.2391346886    -3.5994098803     1.1283169880
   28      C      -3.5671028442     1.2588715094     2.6629274444
   29      C      -3.7494404489     1.9282239125    -2.1101756755
   30      H      -4.3117242712     2.8629329005    -2.0607638670
   31      H      -3.0632989748     1.9769802214    -2.9591068708
   32      H      -4.4551406327     1.1132689644    -2.2800542488
   33      H      -4.1231393149     2.1366392434     2.9183692948
   34      H      -2.8274754921     1.0741292302     3.4137456505
   35      H      -4.2304993996     0.4215485051     2.6021068170
   36      C       3.7459589947     0.2000937844     0.6542565347
   37      C       3.6599134355     0.3464611596    -0.9050266251
   38      C       3.2836278703    -1.1219361185     1.2379757584
   39      C       3.0289530663    -0.7937305971    -1.6768653477
   40      O       3.9761709902    -2.1437081335     0.6869481411
   41      O       2.4697620327    -1.2623168205     2.1141594607
   42      O       1.8922953312    -1.2345084500    -1.1077444612
   43      O       3.4662834415    -1.2244487891    -2.7173414244
   44      C       1.2098434841    -2.3041452103    -1.7836144098
   45      C       3.6147916257    -3.4648279175     1.1267730204
   46      C       2.9077950193     1.4108023177     1.1296902537
   47      C       3.7440574568     2.6944309495     0.9620593048
   48      C       3.7278257094     2.8513090690    -0.5861140202
   49      C       2.8129919585     1.6711760265    -1.0189284858
   50      O       1.9202103761     1.5476318574     0.0995959539
   51      H       4.7916984716     0.2988945418     0.9591142192
   52      H       4.6458881926     0.4793453608    -1.3466591616
   53      H       1.8695441392    -3.1663456076    -1.8938864473
   54      H       3.8076952976    -3.5801449487     2.1944476298
   55      H       3.2459274256     3.5334142435     1.4500891362
   56      H       4.7479331284     2.6064612773     1.3823596549
   57      H       3.2732554704     3.7966809851    -0.8871453919
   58      H       4.7191112405     2.7966357119    -1.0405867785
   59      H       0.3570002549    -2.5453689360    -1.1532043602
   60      H       0.8774849484    -1.9807826208    -2.7714604915
   61      H       4.2379106380    -4.1438286985     0.5489075611
   62      H       2.5573023934    -3.6515268125     0.9319534490
   63      C       2.2293342378     1.2067545772     2.4665639054
   64      C       2.0469966331     1.8761069803    -2.3065392144
   65      H       1.4847128108     2.8108159683    -2.2571274060
   66      H       2.7331381072     1.9248632892    -3.1554704098
   67      H       1.3412964493     1.0611520322    -2.4764177878
   68      H       1.6732977671     2.0845223112     2.7220057559
   69      H       2.9689615899     1.0220122980     3.2173821115
   70      H       1.5659376824     0.3694315729     2.4057432781
 ----------------------------------------------------------------

   15   -1689.0448472129      5.39E-09 Convergence criterion met
 Total energy in the final basis set = -1689.04484721

                    Orbital Energies (a.u.)
 --------------------------------------------------------------

 Alpha MOs
 -- Occupied --
-19.178 -19.172 -19.172 -19.172 -19.132 -19.120 -19.118 -19.115
-19.115 -19.112 -10.314 -10.306 -10.305 -10.303 -10.247 -10.237
-10.237 -10.234 -10.231 -10.230 -10.224 -10.223 -10.208 -10.206
-10.197 -10.195 -10.182 -10.180 -10.173 -10.170 -10.166 -10.165
-10.144 -10.130  -1.123  -1.118  -1.113  -1.111  -1.067  -1.055
 -1.037  -1.029  -1.026  -1.026  -0.836  -0.825  -0.809  -0.798
 -0.788  -0.777  -0.748  -0.745  -0.731  -0.727  -0.724  -0.715
 -0.677  -0.669  -0.649  -0.638  -0.605  -0.598  -0.584  -0.574
 -0.570  -0.566  -0.564  -0.556  -0.528  -0.519  -0.516  -0.511
 -0.511  -0.502  -0.496  -0.491  -0.489  -0.485  -0.482  -0.476
 -0.475  -0.473  -0.473  -0.466  -0.462  -0.453  -0.445  -0.439
 -0.438  -0.434  -0.430  -0.430  -0.418  -0.412  -0.409  -0.407
 -0.406  -0.403  -0.398  -0.395  -0.395  -0.391  -0.377  -0.373
 -0.370  -0.369  -0.368  -0.362  -0.359  -0.358  -0.354  -0.352
 -0.351  -0.348  -0.343  -0.339  -0.338  -0.333  -0.327  -0.323
 -0.322  -0.318  -0.312  -0.311  -0.285  -0.282  -0.278  -0.274
 -0.266  -0.265

          Ground-State Mulliken Net Atomic Charges

     Atom                 Charge (a.u.)
  ----------------------------------------
      1 C                     0.123271
      2 C                     0.538755
      3 C                    -0.575041
      4 C                    -0.674329
      5 O                     0.074595
      6 O                    -0.134047
      7 O                     0.028909
      8 O                    -0.098435
      9 C                    -0.164462
     10 C                    -0.226566
     11 C                    -0.656404
     12 C                    -0.195170
     13 C                    -0.089635
     14 C                    -0.565188
     15 O                     0.143670
     16 H                     0.212375
     17 H                     0.208161
     18 H                     0.192687
     19 H                     0.184079
     20 H                     0.193072
     21 H                     0.147370
     22 H                     0.191926
     23 H                     0.109128
     24 H                     0.173791
     25 H                     0.177475
     26 H                     0.133631
     27 H                     0.188004
     28 C                    -0.431156
     29 C                    -0.248857
     30 H                     0.174518
     31 H                     0.166337
     32 H                     0.176097
     33 H                     0.141118
     34 H                     0.150265
     35 H                     0.200980
     36 C                    -0.135009
     37 C                     0.522094
     38 C                    -0.542037
     39 C                    -0.776355
     40 O                     0.031963
     41 O                    -0.091903
     42 O                     0.033984
     43 O                    -0.103759
     44 C                    -0.271960
     45 C                    -0.164237
     46 C                     0.014007
     47 C                    -0.441758
     48 C                    -0.411210
     49 C                    -0.323441
     50 O                     0.291663
     51 H                     0.268167
     52 H                     0.286734
     53 H                     0.208129
     54 H                     0.168736
     55 H                     0.174461
     56 H                     0.149240
     57 H                     0.168987
     58 H                     0.147219
     59 H                     0.141414
     60 H                     0.208090
     61 H                     0.165433
     62 H                     0.177031
     63 C                    -0.608249
     64 C                    -0.331189
     65 H                     0.194288
     66 H                     0.190868
     67 H                     0.196946
     68 H                     0.129121
     69 H                     0.176418
     70 H                     0.185188
  ----------------------------------------
  Sum of atomic charges =    -0.000000

                    Cartesian Multipole Moments
 -----------------------------------------------------------------
    Charge (ESU x 10^10)
                -0.0000
    Dipole Moment (Debye)
         X       2.4996      Y      -0.5650      Z       0.4866
       Tot       2.6084
    Quadrupole Moments (Debye-Ang)
        XX    -203.0372     XY      11.3213     YY    -179.9005
        XZ      17.9272     YZ      -6.2442     ZZ    -220.3961

 Total job time:  3615.43s(wall), 7197.00s(cpu)
        *  Thank you very much for using Q-Chem.  Have a nice day.  *
