 Q-Chem 5.0, Q-Chem, Inc., Pleasanton, CA (2017)
 Q-Chem 5.0.1 for Intel X86 EM64T Linux

User input:
--------------------------------------------------------------
$molecule
0  1
C        -0.54444000        -0.68370000        -0.06689000
C        -0.55709000        +0.71878000        +0.05493000
C        +0.74969000        -1.43776000        -0.09374000
C        +0.72843000        +1.48436000        +0.06598000
O        +1.53645000        -1.09176000        +0.94813000
O        +1.04702000        -2.28405000        -0.90088000
O        +1.53784000        +1.08301000        -0.93877000
O        +1.01035000        +2.37097000        +0.83478000
C        +2.83449000        +1.70121000        -0.99358000
C        +2.82316000        -1.73208000        +1.00475000
C        -1.74320000        -1.41616000        -0.12552000
C        -2.93952000        -0.70056000        -0.05285000
C        -2.95313000        +0.68255000        +0.06934000
C        -1.77161000        +1.42404000        +0.12810000
H        +2.73835000        +2.77989000        -1.12464000
H        +2.70778000        -2.81319000        +1.09555000
H        -3.90354000        +1.20325000        +0.11710000
H        +3.38998000        +1.50093000        -0.07544000
H        +3.33184000        +1.25269000        -1.85067000
H        +3.31095000        -1.32281000        +1.88650000
H        +3.39889000        -1.50934000        +0.10459000
H        -3.87892000        -1.24211000        -0.08988000
C        -1.83960000        +2.92746000        +0.24839000
H        -1.24214000        +3.42352000        -0.52065000
H        -1.45503000        +3.26427000        +1.21284000
H        -2.87211000        +3.26623000        +0.14638000
H        -1.73878000        -2.44393000        -0.21875000
@C        -0.50453000        -1.18941000        +5.71088000
@C        -0.51718000        +0.21307000        +5.83270000
@C        +0.78960000        -1.94347000        +5.68403000
@C        +0.76834000        +0.97865000        +5.84375000
@O        +1.57636000        -1.59747000        +6.72590000
@O        +1.08693000        -2.78976000        +4.87689000
@O        +1.57775000        +0.57730000        +4.83900000
@O        +1.05026000        +1.86526000        +6.61255000
@C        +2.87440000        +1.19550000        +4.78419000
@C        +2.86307000        -2.23779000        +6.78252000
@C        -1.70329000        -1.92187000        +5.65225000
@C        -2.89961000        -1.20627000        +5.72492000
@C        -2.91322000        +0.17684000        +5.84711000
@C        -1.73170000        +0.91833000        +5.90587000
@H        +2.77826000        +2.27418000        +4.65313000
@H        +2.74769000        -3.31890000        +6.87332000
@H        -3.86363000        +0.69754000        +5.89487000
@H        +3.42989000        +0.99522000        +5.70233000
@H        +3.37175000        +0.74698000        +3.92710000
@H        +3.35086000        -1.82852000        +7.66427000
@H        +3.43880000        -2.01505000        +5.88236000
@H        -3.83901000        -1.74782000        +5.68789000
@C        -1.79969000        +2.42175000        +6.02616000
@H        -1.20223000        +2.91781000        +5.25712000
@H        -1.41512000        +2.75856000        +6.99061000
@H        -2.83220000        +2.76052000        +5.92415000
@H        -1.69887000        -2.94964000        +5.55902000
$end

$rem
JOBTYPE                   SP
METHOD                    B3LYP
DFT_D                     d3_op
BASIS                     6-311++G(d,p)
SYMMETRY                  False
THRESH                    12
SCF_CONVERGENCE           8
MAX_SUB_FILE_NUM          128
MEM_STATIC                400
MEM_TOTAL                 4000
$end
--------------------------------------------------------------

             Standard Nuclear Orientation (Angstroms)
    I     Atom           X                Y                Z
 ----------------------------------------------------------------
    1      C      -0.5444400000    -0.6837000000    -0.0668900000
    2      C      -0.5570900000     0.7187800000     0.0549300000
    3      C       0.7496900000    -1.4377600000    -0.0937400000
    4      C       0.7284300000     1.4843600000     0.0659800000
    5      O       1.5364500000    -1.0917600000     0.9481300000
    6      O       1.0470200000    -2.2840500000    -0.9008800000
    7      O       1.5378400000     1.0830100000    -0.9387700000
    8      O       1.0103500000     2.3709700000     0.8347800000
    9      C       2.8344900000     1.7012100000    -0.9935800000
   10      C       2.8231600000    -1.7320800000     1.0047500000
   11      C      -1.7432000000    -1.4161600000    -0.1255200000
   12      C      -2.9395200000    -0.7005600000    -0.0528500000
   13      C      -2.9531300000     0.6825500000     0.0693400000
   14      C      -1.7716100000     1.4240400000     0.1281000000
   15      H       2.7383500000     2.7798900000    -1.1246400000
   16      H       2.7077800000    -2.8131900000     1.0955500000
   17      H      -3.9035400000     1.2032500000     0.1171000000
   18      H       3.3899800000     1.5009300000    -0.0754400000
   19      H       3.3318400000     1.2526900000    -1.8506700000
   20      H       3.3109500000    -1.3228100000     1.8865000000
   21      H       3.3988900000    -1.5093400000     0.1045900000
   22      H      -3.8789200000    -1.2421100000    -0.0898800000
   23      C      -1.8396000000     2.9274600000     0.2483900000
   24      H      -1.2421400000     3.4235200000    -0.5206500000
   25      H      -1.4550300000     3.2642700000     1.2128400000
   26      H      -2.8721100000     3.2662300000     0.1463800000
   27      H      -1.7387800000    -2.4439300000    -0.2187500000
   28      GH     -0.5045300000    -1.1894100000     5.7108800000
   29      GH     -0.5171800000     0.2130700000     5.8327000000
   30      GH      0.7896000000    -1.9434700000     5.6840300000
   31      GH      0.7683400000     0.9786500000     5.8437500000
   32      GH      1.5763600000    -1.5974700000     6.7259000000
   33      GH      1.0869300000    -2.7897600000     4.8768900000
   34      GH      1.5777500000     0.5773000000     4.8390000000
   35      GH      1.0502600000     1.8652600000     6.6125500000
   36      GH      2.8744000000     1.1955000000     4.7841900000
   37      GH      2.8630700000    -2.2377900000     6.7825200000
   38      GH     -1.7032900000    -1.9218700000     5.6522500000
   39      GH     -2.8996100000    -1.2062700000     5.7249200000
   40      GH     -2.9132200000     0.1768400000     5.8471100000
   41      GH     -1.7317000000     0.9183300000     5.9058700000
   42      GH      2.7782600000     2.2741800000     4.6531300000
   43      GH      2.7476900000    -3.3189000000     6.8733200000
   44      GH     -3.8636300000     0.6975400000     5.8948700000
   45      GH      3.4298900000     0.9952200000     5.7023300000
   46      GH      3.3717500000     0.7469800000     3.9271000000
   47      GH      3.3508600000    -1.8285200000     7.6642700000
   48      GH      3.4388000000    -2.0150500000     5.8823600000
   49      GH     -3.8390100000    -1.7478200000     5.6878900000
   50      GH     -1.7996900000     2.4217500000     6.0261600000
   51      GH     -1.2022300000     2.9178100000     5.2571200000
   52      GH     -1.4151200000     2.7585600000     6.9906100000
   53      GH     -2.8322000000     2.7605200000     5.9241500000
   54      GH     -1.6988700000    -2.9496400000     5.5590200000
 ----------------------------------------------------------------

   14    -727.5440656877      5.53E-09 Convergence criterion met
 Total energy in the final basis set = -727.54406569

                    Orbital Energies (a.u.)
 --------------------------------------------------------------

 Alpha MOs
 -- Occupied --
-19.178 -19.177 -19.121 -19.119 -10.313 -10.312 -10.233 -10.232
-10.211 -10.208 -10.207 -10.193 -10.191 -10.190 -10.174  -1.122
 -1.115  -1.033  -1.030  -0.886  -0.801  -0.795  -0.747  -0.731
 -0.704  -0.655  -0.627  -0.581  -0.575  -0.550  -0.521  -0.514
 -0.492  -0.490  -0.482  -0.478  -0.472  -0.447  -0.435  -0.432
 -0.429  -0.412  -0.407  -0.396  -0.384  -0.378  -0.371  -0.365
 -0.364  -0.322  -0.314  -0.296  -0.294  -0.269  -0.264

          Ground-State Mulliken Net Atomic Charges

     Atom                 Charge (a.u.)
  ----------------------------------------
      1 C                     0.473454
      2 C                     1.122614
      3 C                    -0.501805
      4 C                    -0.945004
      5 O                     0.090619
      6 O                    -0.180407
      7 O                     0.071785
      8 O                    -0.094483
      9 C                    -0.194454
     10 C                    -0.319003
     11 C                    -0.615527
     12 C                    -0.157902
     13 C                    -0.472009
     14 C                     0.225031
     15 H                     0.168052
     16 H                     0.190365
     17 H                     0.144945
     18 H                     0.178773
     19 H                     0.171097
     20 H                     0.119343
     21 H                     0.187348
     22 H                     0.187416
     23 C                    -0.558833
     24 H                     0.173674
     25 H                     0.199746
     26 H                     0.148018
     27 H                     0.186748
     28 GH                   -0.007992
     29 GH                    0.061711
     30 GH                    0.014306
     31 GH                   -0.014475
     32 GH                    0.000026
     33 GH                    0.000433
     34 GH                   -0.001355
     35 GH                   -0.000081
     36 GH                   -0.004875
     37 GH                   -0.001850
     38 GH                   -0.023518
     39 GH                   -0.001223
     40 GH                   -0.006417
     41 GH                   -0.017162
     42 GH                   -0.000620
     43 GH                    0.000115
     44 GH                   -0.000658
     45 GH                    0.000449
     46 GH                    0.011350
     47 GH                   -0.000094
     48 GH                    0.001262
     49 GH                   -0.000230
     50 GH                   -0.007222
     51 GH                   -0.001461
     52 GH                    0.000035
     53 GH                    0.000476
     54 GH                   -0.000529
  ----------------------------------------
  Sum of atomic charges =     0.000000

                    Cartesian Multipole Moments
 -----------------------------------------------------------------
    Charge (ESU x 10^10)
                 0.0000
    Dipole Moment (Debye)
         X       0.0047      Y       0.4769      Z       0.2062
       Tot       0.5196
    Quadrupole Moments (Debye-Ang)
        XX     -68.7534     XY      -0.6857     YY     -89.6886
        XZ      -0.0864     YZ      -9.3216     ZZ     -93.2759

 Total job time:  1443.48s(wall), 2840.26s(cpu)
        *  Thank you very much for using Q-Chem.  Have a nice day.  *
