 Q-Chem 5.0, Q-Chem, Inc., Pleasanton, CA (2017)
 Q-Chem 5.0.1 for Intel X86 EM64T Linux

User input:
--------------------------------------------------------------
$molecule
0  1
--
0  1
C        -0.54444000        -0.68370000        -0.06689000
C        -0.55709000        +0.71878000        +0.05493000
C        +0.74969000        -1.43776000        -0.09374000
C        +0.72843000        +1.48436000        +0.06598000
O        +1.53645000        -1.09176000        +0.94813000
O        +1.04702000        -2.28405000        -0.90088000
O        +1.53784000        +1.08301000        -0.93877000
O        +1.01035000        +2.37097000        +0.83478000
C        +2.83449000        +1.70121000        -0.99358000
C        +2.82316000        -1.73208000        +1.00475000
C        -1.74320000        -1.41616000        -0.12552000
C        -2.93952000        -0.70056000        -0.05285000
C        -2.95313000        +0.68255000        +0.06934000
C        -1.77161000        +1.42404000        +0.12810000
H        +2.73835000        +2.77989000        -1.12464000
H        +2.70778000        -2.81319000        +1.09555000
H        -3.90354000        +1.20325000        +0.11710000
H        +3.38998000        +1.50093000        -0.07544000
H        +3.33184000        +1.25269000        -1.85067000
H        +3.31095000        -1.32281000        +1.88650000
H        +3.39889000        -1.50934000        +0.10459000
H        -3.87892000        -1.24211000        -0.08988000
C        -1.83960000        +2.92746000        +0.24839000
H        -1.24214000        +3.42352000        -0.52065000
H        -1.45503000        +3.26427000        +1.21284000
H        -2.87211000        +3.26623000        +0.14638000
H        -1.73878000        -2.44393000        -0.21875000
--
0  1
C        -0.50453000        -1.18941000        +5.71088000
C        -0.51718000        +0.21307000        +5.83270000
C        +0.78960000        -1.94347000        +5.68403000
C        +0.76834000        +0.97865000        +5.84375000
O        +1.57636000        -1.59747000        +6.72590000
O        +1.08693000        -2.78976000        +4.87689000
O        +1.57775000        +0.57730000        +4.83900000
O        +1.05026000        +1.86526000        +6.61255000
C        +2.87440000        +1.19550000        +4.78419000
C        +2.86307000        -2.23779000        +6.78252000
C        -1.70329000        -1.92187000        +5.65225000
C        -2.89961000        -1.20627000        +5.72492000
C        -2.91322000        +0.17684000        +5.84711000
C        -1.73170000        +0.91833000        +5.90587000
H        +2.77826000        +2.27418000        +4.65313000
H        +2.74769000        -3.31890000        +6.87332000
H        -3.86363000        +0.69754000        +5.89487000
H        +3.42989000        +0.99522000        +5.70233000
H        +3.37175000        +0.74698000        +3.92710000
H        +3.35086000        -1.82852000        +7.66427000
H        +3.43880000        -2.01505000        +5.88236000
H        -3.83901000        -1.74782000        +5.68789000
C        -1.79969000        +2.42175000        +6.02616000
H        -1.20223000        +2.91781000        +5.25712000
H        -1.41512000        +2.75856000        +6.99061000
H        -2.83220000        +2.76052000        +5.92415000
H        -1.69887000        -2.94964000        +5.55902000
$end

$rem
JOBTYPE                   SP
METHOD                    B3LYP
DFT_D                     d3_op
BASIS                     6-311++G(d,p)
SYMMETRY                  False
THRESH                    12
SCF_CONVERGENCE           8
MAX_SUB_FILE_NUM          128
MEM_STATIC                400
MEM_TOTAL                 4000
$end
--------------------------------------------------------------

             Standard Nuclear Orientation (Angstroms)
    I     Atom           X                Y                Z
 ----------------------------------------------------------------
    1      C      -2.8705194496     0.2433301172     1.2011184521
    2      C      -2.9294728998     0.7460478192    -0.1125594720
    3      C      -2.7825809647    -1.2307433937     1.4530588624
    4      C      -2.9986545629    -0.1935155807    -1.2749841036
    5      O      -1.7827441748    -1.7883315111     0.7363844039
    6      O      -3.4704955373    -1.8478176749     2.2289968398
    7      O      -3.9323796886    -1.1482247171    -1.0689821917
    8      O      -2.3458622039    -0.1074034764    -2.2864466388
    9      C      -4.0478463801    -2.1528590215    -2.0906739046
   10      C      -1.6266982271    -3.2113991904     0.8755468751
   11      C      -2.8515549547     1.1102949212     2.3079034550
   12      C      -2.8877692308     2.4821121026     2.0522631251
   13      C      -2.9438888615     2.9790680941     0.7568889591
   14      C      -2.9641206241     2.1313770211    -0.3522819874
   15      H      -4.3172739101    -1.6982216027    -3.0449714416
   16      H      -1.3998278673    -3.4710388551     1.9106667236
   17      H      -2.9764271154     4.0518335577     0.5993954739
   18      H      -3.1039782453    -2.6893842317    -2.2043221382
   19      H      -4.8334443397    -2.8229744227    -1.7487504101
   20      H      -0.7979099113    -3.4763129049     0.2229714151
   21      H      -2.5398691594    -3.7258517519     0.5708772565
   22      H      -2.8682205718     3.1732078675     2.8883997629
   23      C      -3.0382864997     2.7206738366    -1.7402995330
   24      H      -3.8561248626     2.2877206716    -2.3218048777
   25      H      -2.1196452660     2.5322333222    -2.2989472931
   26      H      -3.1971943045     3.7989489501    -1.6826875367
   27      H      -2.8123444967     0.7462072046     3.2727481144
   28      C       2.9244345288     0.3648124968     0.9920442934
   29      C       2.8654810787     0.8675301988    -0.3216336306
   30      C       3.0123730138    -1.1092610141     1.2439847038
   31      C       2.7962994155    -0.0720332011    -1.4840582623
   32      O       4.0122098037    -1.6668491315     0.5273102453
   33      O       2.3244584412    -1.7263352953     2.0199226812
   34      O       1.8625742899    -1.0267423375    -1.2780563504
   35      O       3.4490917746     0.0140789032    -2.4955207974
   36      C       1.7471075983    -2.0313766419    -2.2997480632
   37      C       4.1682557514    -3.0899168108     0.6664727165
   38      C       2.9433990238     1.2317773008     2.0988292964
   39      C       2.9071847477     2.6035944822     1.8431889665
   40      C       2.8510651170     3.1005504737     0.5478148005
   41      C       2.8308333544     2.2528594007    -0.5613561460
   42      H       1.4776800684    -1.5767392231    -3.2540456002
   43      H       4.3951261112    -3.3495564755     1.7015925650
   44      H       2.8185268631     4.1733159373     0.3903213153
   45      H       2.6909757331    -2.5679018522    -2.4133962969
   46      H       0.9615096388    -2.7014920431    -1.9578245687
   47      H       4.9970440672    -3.3548305253     0.0138972565
   48      H       3.2550848191    -3.6043693723     0.3618030979
   49      H       2.9267334067     3.2946902471     2.6793256043
   50      C       2.7566674788     2.8421562162    -1.9493736916
   51      H       1.9388291159     2.4092030512    -2.5308790363
   52      H       3.6753087125     2.6537157018    -2.5080214517
   53      H       2.5977596740     3.9204313297    -1.8917616953
   54      H       2.9826094818     0.8676895842     3.0636739558
 ----------------------------------------------------------------

   15   -1455.0902099215      5.70E-09 Convergence criterion met
 Total energy in the final basis set = -1455.09020992

                    Orbital Energies (a.u.)
 --------------------------------------------------------------

 Alpha MOs
 -- Occupied --
-19.176 -19.176 -19.173 -19.171 -19.120 -19.118 -19.117 -19.114
-10.312 -10.310 -10.309 -10.307 -10.233 -10.232 -10.229 -10.227
-10.209 -10.208 -10.205 -10.205 -10.205 -10.204 -10.191 -10.191
-10.189 -10.188 -10.187 -10.187 -10.173 -10.171  -1.120  -1.120
 -1.113  -1.111  -1.032  -1.029  -1.029  -1.025  -0.884  -0.883
 -0.799  -0.798  -0.793  -0.792  -0.745  -0.744  -0.729  -0.728
 -0.702  -0.701  -0.653  -0.652  -0.624  -0.624  -0.579  -0.578
 -0.574  -0.571  -0.547  -0.547  -0.519  -0.518  -0.512  -0.511
 -0.490  -0.490  -0.487  -0.486  -0.481  -0.479  -0.476  -0.475
 -0.470  -0.469  -0.445  -0.444  -0.433  -0.432  -0.430  -0.429
 -0.427  -0.425  -0.411  -0.409  -0.405  -0.403  -0.393  -0.393
 -0.382  -0.381  -0.376  -0.375  -0.368  -0.368  -0.363  -0.362
 -0.361  -0.360  -0.320  -0.320  -0.311  -0.310  -0.295  -0.294
 -0.292  -0.291  -0.267  -0.266  -0.262  -0.261

          Ground-State Mulliken Net Atomic Charges

     Atom                 Charge (a.u.)
  ----------------------------------------
      1 C                     0.478146
      2 C                     1.142492
      3 C                    -0.519002
      4 C                    -0.949461
      5 O                     0.098332
      6 O                    -0.184701
      7 O                     0.073710
      8 O                    -0.103040
      9 C                    -0.195108
     10 C                    -0.313346
     11 C                    -0.612147
     12 C                    -0.153166
     13 C                    -0.475401
     14 C                     0.233830
     15 H                     0.167930
     16 H                     0.193626
     17 H                     0.142359
     18 H                     0.175730
     19 H                     0.171572
     20 H                     0.113943
     21 H                     0.184323
     22 H                     0.185167
     23 C                    -0.559987
     24 H                     0.173263
     25 H                     0.193191
     26 H                     0.147424
     27 H                     0.186772
     28 C                     0.672555
     29 C                     0.979181
     30 C                    -0.847211
     31 C                    -0.739672
     32 O                     0.061600
     33 O                    -0.112953
     34 O                     0.096636
     35 O                    -0.161815
     36 C                    -0.303007
     37 C                    -0.193458
     38 C                    -0.584542
     39 C                    -0.142819
     40 C                    -0.499684
     41 C                     0.292328
     42 H                     0.188766
     43 H                     0.171166
     44 H                     0.143167
     45 H                     0.191798
     46 H                     0.120137
     47 H                     0.171148
     48 H                     0.171480
     49 H                     0.185702
     50 C                    -0.570881
     51 H                     0.191283
     52 H                     0.211280
     53 H                     0.137608
     54 H                     0.173757
  ----------------------------------------
  Sum of atomic charges =     0.000000

                    Cartesian Multipole Moments
 -----------------------------------------------------------------
    Charge (ESU x 10^10)
                 0.0000
    Dipole Moment (Debye)
         X       0.2692      Y       0.3504      Z      -0.8337
       Tot       0.9436
    Quadrupole Moments (Debye-Ang)
        XX    -183.0575     XY      -7.1085     YY    -143.9103
        XZ      17.0423     YZ      14.1439     ZZ    -179.8251

 Total job time:  1586.08s(wall), 3156.85s(cpu)
        *  Thank you very much for using Q-Chem.  Have a nice day.  *
