 Q-Chem 5.0, Q-Chem, Inc., Pleasanton, CA (2017)
 Q-Chem 5.0.1 for Intel X86 EM64T Linux

User input:
--------------------------------------------------------------
$molecule
0  1
C        -0.54444000        -0.68370000        -0.06689000
C        -0.55709000        +0.71878000        +0.05493000
C        +0.74969000        -1.43776000        -0.09374000
C        +0.72843000        +1.48436000        +0.06598000
O        +1.53645000        -1.09176000        +0.94813000
O        +1.04702000        -2.28405000        -0.90088000
O        +1.53784000        +1.08301000        -0.93877000
O        +1.01035000        +2.37097000        +0.83478000
C        +2.83449000        +1.70121000        -0.99358000
C        +2.82316000        -1.73208000        +1.00475000
C        -1.74320000        -1.41616000        -0.12552000
C        -2.93952000        -0.70056000        -0.05285000
C        -2.95313000        +0.68255000        +0.06934000
C        -1.77161000        +1.42404000        +0.12810000
H        +2.73835000        +2.77989000        -1.12464000
H        +2.70778000        -2.81319000        +1.09555000
H        -3.90354000        +1.20325000        +0.11710000
H        +3.38998000        +1.50093000        -0.07544000
H        +3.33184000        +1.25269000        -1.85067000
H        +3.31095000        -1.32281000        +1.88650000
H        +3.39889000        -1.50934000        +0.10459000
H        -3.87892000        -1.24211000        -0.08988000
C        -1.83960000        +2.92746000        +0.24839000
C        -1.78103000        -2.92226000        -0.24590000
H        -1.39752000        -3.25223000        -1.21323000
H        -2.80572000        -3.28175000        -0.13627000
H        -1.16958000        -3.40777000        +0.51926000
H        -1.24214000        +3.42352000        -0.52065000
H        -1.45503000        +3.26427000        +1.21284000
H        -2.87211000        +3.26623000        +0.14638000
@C        -0.50453000        -1.18941000        +5.71088000
@C        -0.51718000        +0.21307000        +5.83270000
@C        +0.78960000        -1.94347000        +5.68403000
@C        +0.76834000        +0.97865000        +5.84375000
@O        +1.57636000        -1.59747000        +6.72590000
@O        +1.08693000        -2.78976000        +4.87689000
@O        +1.57775000        +0.57730000        +4.83900000
@O        +1.05026000        +1.86526000        +6.61255000
@C        +2.87440000        +1.19550000        +4.78419000
@C        +2.86307000        -2.23779000        +6.78252000
@C        -1.70329000        -1.92187000        +5.65225000
@C        -2.89961000        -1.20627000        +5.72492000
@C        -2.91322000        +0.17684000        +5.84711000
@C        -1.73170000        +0.91833000        +5.90587000
@H        +2.77826000        +2.27418000        +4.65313000
@H        +2.74769000        -3.31890000        +6.87332000
@H        -3.86363000        +0.69754000        +5.89487000
@H        +3.42989000        +0.99522000        +5.70233000
@H        +3.37175000        +0.74698000        +3.92710000
@H        +3.35086000        -1.82852000        +7.66427000
@H        +3.43880000        -2.01505000        +5.88236000
@H        -3.83901000        -1.74782000        +5.68789000
@C        -1.79969000        +2.42175000        +6.02616000
@C        -1.74112000        -3.42797000        +5.53187000
@H        -1.35761000        -3.75794000        +4.56454000
@H        -2.76581000        -3.78746000        +5.64150000
@H        -1.12967000        -3.91348000        +6.29703000
@H        -1.20223000        +2.91781000        +5.25712000
@H        -1.41512000        +2.75856000        +6.99061000
@H        -2.83220000        +2.76052000        +5.92415000
$end

$rem
JOBTYPE                   SP
METHOD                    B3LYP
DFT_D                     d3_op
BASIS                     6-311++G(d,p)
SYMMETRY                  False
THRESH                    12
SCF_CONVERGENCE           8
MAX_SUB_FILE_NUM          128
MEM_STATIC                400
MEM_TOTAL                 4000
$end
--------------------------------------------------------------

             Standard Nuclear Orientation (Angstroms)
    I     Atom           X                Y                Z
 ----------------------------------------------------------------
    1      C      -0.5444400000    -0.6837000000    -0.0668900000
    2      C      -0.5570900000     0.7187800000     0.0549300000
    3      C       0.7496900000    -1.4377600000    -0.0937400000
    4      C       0.7284300000     1.4843600000     0.0659800000
    5      O       1.5364500000    -1.0917600000     0.9481300000
    6      O       1.0470200000    -2.2840500000    -0.9008800000
    7      O       1.5378400000     1.0830100000    -0.9387700000
    8      O       1.0103500000     2.3709700000     0.8347800000
    9      C       2.8344900000     1.7012100000    -0.9935800000
   10      C       2.8231600000    -1.7320800000     1.0047500000
   11      C      -1.7432000000    -1.4161600000    -0.1255200000
   12      C      -2.9395200000    -0.7005600000    -0.0528500000
   13      C      -2.9531300000     0.6825500000     0.0693400000
   14      C      -1.7716100000     1.4240400000     0.1281000000
   15      H       2.7383500000     2.7798900000    -1.1246400000
   16      H       2.7077800000    -2.8131900000     1.0955500000
   17      H      -3.9035400000     1.2032500000     0.1171000000
   18      H       3.3899800000     1.5009300000    -0.0754400000
   19      H       3.3318400000     1.2526900000    -1.8506700000
   20      H       3.3109500000    -1.3228100000     1.8865000000
   21      H       3.3988900000    -1.5093400000     0.1045900000
   22      H      -3.8789200000    -1.2421100000    -0.0898800000
   23      C      -1.8396000000     2.9274600000     0.2483900000
   24      C      -1.7810300000    -2.9222600000    -0.2459000000
   25      H      -1.3975200000    -3.2522300000    -1.2132300000
   26      H      -2.8057200000    -3.2817500000    -0.1362700000
   27      H      -1.1695800000    -3.4077700000     0.5192600000
   28      H      -1.2421400000     3.4235200000    -0.5206500000
   29      H      -1.4550300000     3.2642700000     1.2128400000
   30      H      -2.8721100000     3.2662300000     0.1463800000
   31      GH     -0.5045300000    -1.1894100000     5.7108800000
   32      GH     -0.5171800000     0.2130700000     5.8327000000
   33      GH      0.7896000000    -1.9434700000     5.6840300000
   34      GH      0.7683400000     0.9786500000     5.8437500000
   35      GH      1.5763600000    -1.5974700000     6.7259000000
   36      GH      1.0869300000    -2.7897600000     4.8768900000
   37      GH      1.5777500000     0.5773000000     4.8390000000
   38      GH      1.0502600000     1.8652600000     6.6125500000
   39      GH      2.8744000000     1.1955000000     4.7841900000
   40      GH      2.8630700000    -2.2377900000     6.7825200000
   41      GH     -1.7032900000    -1.9218700000     5.6522500000
   42      GH     -2.8996100000    -1.2062700000     5.7249200000
   43      GH     -2.9132200000     0.1768400000     5.8471100000
   44      GH     -1.7317000000     0.9183300000     5.9058700000
   45      GH      2.7782600000     2.2741800000     4.6531300000
   46      GH      2.7476900000    -3.3189000000     6.8733200000
   47      GH     -3.8636300000     0.6975400000     5.8948700000
   48      GH      3.4298900000     0.9952200000     5.7023300000
   49      GH      3.3717500000     0.7469800000     3.9271000000
   50      GH      3.3508600000    -1.8285200000     7.6642700000
   51      GH      3.4388000000    -2.0150500000     5.8823600000
   52      GH     -3.8390100000    -1.7478200000     5.6878900000
   53      GH     -1.7996900000     2.4217500000     6.0261600000
   54      GH     -1.7411200000    -3.4279700000     5.5318700000
   55      GH     -1.3576100000    -3.7579400000     4.5645400000
   56      GH     -2.7658100000    -3.7874600000     5.6415000000
   57      GH     -1.1296700000    -3.9134800000     6.2970300000
   58      GH     -1.2022300000     2.9178100000     5.2571200000
   59      GH     -1.4151200000     2.7585600000     6.9906100000
   60      GH     -2.8322000000     2.7605200000     5.9241500000
 ----------------------------------------------------------------

   14    -766.8767787091      6.05E-09 Convergence criterion met
 Total energy in the final basis set = -766.87677871

                    Orbital Energies (a.u.)
 --------------------------------------------------------------

 Alpha MOs
 -- Occupied --
-19.176 -19.176 -19.119 -19.119 -10.311 -10.311 -10.232 -10.232
-10.205 -10.205 -10.201 -10.201 -10.187 -10.186 -10.171 -10.170
 -1.121  -1.114  -1.031  -1.030  -0.885  -0.807  -0.795  -0.747
 -0.734  -0.725  -0.675  -0.649  -0.620  -0.577  -0.565  -0.537
 -0.517  -0.515  -0.491  -0.489  -0.480  -0.477  -0.469  -0.442
 -0.434  -0.429  -0.420  -0.416  -0.411  -0.406  -0.396  -0.387
 -0.380  -0.373  -0.362  -0.359  -0.357  -0.321  -0.313  -0.293
 -0.292  -0.266  -0.253

          Ground-State Mulliken Net Atomic Charges

     Atom                 Charge (a.u.)
  ----------------------------------------
      1 C                     0.517853
      2 C                     0.806326
      3 C                    -0.724294
      4 C                    -1.064209
      5 O                     0.116787
      6 O                    -0.151007
      7 O                     0.066260
      8 O                    -0.080874
      9 C                    -0.192606
     10 C                    -0.312169
     11 C                     0.543553
     12 C                    -0.478061
     13 C                    -0.477540
     14 C                     0.363006
     15 H                     0.167455
     16 H                     0.184205
     17 H                     0.156400
     18 H                     0.176332
     19 H                     0.172106
     20 H                     0.115984
     21 H                     0.191392
     22 H                     0.152145
     23 C                    -0.646970
     24 C                    -0.642689
     25 H                     0.212329
     26 H                     0.138472
     27 H                     0.185215
     28 H                     0.171638
     29 H                     0.194241
     30 H                     0.139820
     31 GH                    0.020451
     32 GH                    0.005149
     33 GH                   -0.017362
     34 GH                    0.005187
     35 GH                    0.000051
     36 GH                    0.001272
     37 GH                   -0.001617
     38 GH                   -0.000081
     39 GH                   -0.004076
     40 GH                   -0.001965
     41 GH                    0.000257
     42 GH                   -0.000967
     43 GH                   -0.000094
     44 GH                   -0.007638
     45 GH                   -0.000670
     46 GH                    0.000057
     47 GH                   -0.000881
     48 GH                    0.000380
     49 GH                    0.013452
     50 GH                   -0.000091
     51 GH                    0.001331
     52 GH                   -0.000307
     53 GH                   -0.005232
     54 GH                   -0.004604
     55 GH                   -0.003226
     56 GH                    0.000067
     57 GH                   -0.000034
     58 GH                   -0.000248
     59 GH                    0.000016
     60 GH                    0.000325
  ----------------------------------------
  Sum of atomic charges =     0.000000

                    Cartesian Multipole Moments
 -----------------------------------------------------------------
    Charge (ESU x 10^10)
                 0.0000
    Dipole Moment (Debye)
         X       0.0685      Y      -0.1076      Z       0.0777
       Tot       0.1494
    Quadrupole Moments (Debye-Ang)
        XX     -76.1464     XY      -0.0653     YY     -95.4316
        XZ       0.0794     YZ      -8.9475     ZZ     -99.5049

 Total job time:  2062.91s(wall), 4102.94s(cpu)
        *  Thank you very much for using Q-Chem.  Have a nice day.  *
