 Q-Chem 5.0, Q-Chem, Inc., Pleasanton, CA (2017)
 Q-Chem 5.0.1 for Intel X86 EM64T Linux

User input:
--------------------------------------------------------------
$molecule
0  1
--
0  1
C        -0.54444000        -0.68370000        -0.06689000
C        -0.55709000        +0.71878000        +0.05493000
C        +0.74969000        -1.43776000        -0.09374000
C        +0.72843000        +1.48436000        +0.06598000
O        +1.53645000        -1.09176000        +0.94813000
O        +1.04702000        -2.28405000        -0.90088000
O        +1.53784000        +1.08301000        -0.93877000
O        +1.01035000        +2.37097000        +0.83478000
C        +2.83449000        +1.70121000        -0.99358000
C        +2.82316000        -1.73208000        +1.00475000
C        -1.74320000        -1.41616000        -0.12552000
C        -2.93952000        -0.70056000        -0.05285000
C        -2.95313000        +0.68255000        +0.06934000
C        -1.77161000        +1.42404000        +0.12810000
H        +2.73835000        +2.77989000        -1.12464000
H        +2.70778000        -2.81319000        +1.09555000
H        -3.90354000        +1.20325000        +0.11710000
H        +3.38998000        +1.50093000        -0.07544000
H        +3.33184000        +1.25269000        -1.85067000
H        +3.31095000        -1.32281000        +1.88650000
H        +3.39889000        -1.50934000        +0.10459000
H        -3.87892000        -1.24211000        -0.08988000
C        -1.83960000        +2.92746000        +0.24839000
C        -1.78103000        -2.92226000        -0.24590000
H        -1.39752000        -3.25223000        -1.21323000
H        -2.80572000        -3.28175000        -0.13627000
H        -1.16958000        -3.40777000        +0.51926000
H        -1.24214000        +3.42352000        -0.52065000
H        -1.45503000        +3.26427000        +1.21284000
H        -2.87211000        +3.26623000        +0.14638000
--
0  1
C        -0.50453000        -1.18941000        +5.71088000
C        -0.51718000        +0.21307000        +5.83270000
C        +0.78960000        -1.94347000        +5.68403000
C        +0.76834000        +0.97865000        +5.84375000
O        +1.57636000        -1.59747000        +6.72590000
O        +1.08693000        -2.78976000        +4.87689000
O        +1.57775000        +0.57730000        +4.83900000
O        +1.05026000        +1.86526000        +6.61255000
C        +2.87440000        +1.19550000        +4.78419000
C        +2.86307000        -2.23779000        +6.78252000
C        -1.70329000        -1.92187000        +5.65225000
C        -2.89961000        -1.20627000        +5.72492000
C        -2.91322000        +0.17684000        +5.84711000
C        -1.73170000        +0.91833000        +5.90587000
H        +2.77826000        +2.27418000        +4.65313000
H        +2.74769000        -3.31890000        +6.87332000
H        -3.86363000        +0.69754000        +5.89487000
H        +3.42989000        +0.99522000        +5.70233000
H        +3.37175000        +0.74698000        +3.92710000
H        +3.35086000        -1.82852000        +7.66427000
H        +3.43880000        -2.01505000        +5.88236000
H        -3.83901000        -1.74782000        +5.68789000
C        -1.79969000        +2.42175000        +6.02616000
C        -1.74112000        -3.42797000        +5.53187000
H        -1.35761000        -3.75794000        +4.56454000
H        -2.76581000        -3.78746000        +5.64150000
H        -1.12967000        -3.91348000        +6.29703000
H        -1.20223000        +2.91781000        +5.25712000
H        -1.41512000        +2.75856000        +6.99061000
H        -2.83220000        +2.76052000        +5.92415000
$end

$rem
JOBTYPE                   SP
METHOD                    B3LYP
DFT_D                     d3_op
BASIS                     6-311++G(d,p)
SYMMETRY                  False
THRESH                    12
SCF_CONVERGENCE           8
MAX_SUB_FILE_NUM          128
MEM_STATIC                400
MEM_TOTAL                 4000
$end
--------------------------------------------------------------

             Standard Nuclear Orientation (Angstroms)
    I     Atom           X                Y                Z
 ----------------------------------------------------------------
    1      C      -2.8767650982     0.4968155822     0.8338666464
    2      C      -2.9365867739     0.5643264070    -0.5710582416
    3      C      -2.7934353340    -0.8251674071     1.5335215537
    4      C      -3.0113345353    -0.6910062815    -1.3818289383
    5      O      -1.7969633997    -1.5826023671     1.0260411501
    6      O      -3.4819408303    -1.1663371536     2.4639248309
    7      O      -3.9479515489    -1.5299586118    -0.8872013102
    8      O      -2.3602592652    -0.9276556048    -2.3701141750
    9      C      -4.0689297760    -2.8029720131    -1.5439187131
   10      C      -1.6455740938    -2.8916205607     1.6025745817
   11      C      -2.8525962983     1.6660010395     1.6144958168
   12      C      -2.8845640145     2.8894856969     0.9432215140
   13      C      -2.9415354826     2.9572285914    -0.4425180187
   14      C      -2.9669094843     1.8056123710    -1.2314324051
   15      H      -4.3386762030    -2.6680711346    -2.5922549109
   16      H      -1.4175480476    -2.8158707026     2.6668217794
   17      H      -2.9706685716     3.9272620115    -0.9271571656
   18      H      -3.1271545131    -3.3518424453    -1.4850724652
   19      H      -4.8561643274    -3.3296978111    -1.0091737496
   20      H      -0.8190075348    -3.3503351675     1.0647152017
   21      H      -2.5611262415    -3.4719153860     1.4745576040
   22      H      -2.8609584965     3.8070701187     1.5216690844
   23      C      -3.0417911560     1.9322125662    -2.7340065784
   24      C      -2.7785145343     1.6450305490     3.1239102046
   25      H      -3.6914594955     1.2348854962     3.5598000800
   26      H      -2.6337575527     2.6569148538     3.5065026289
   27      H      -1.9511726635     1.0271690033     3.4828160798
   28      H      -3.8622792611     1.3425056282    -3.1505416832
   29      H      -2.1249206748     1.5751289288    -3.2065937768
   30      H      -3.1968461617     2.9751559610    -3.0159198161
   31      C       2.9181481151     0.5242459432     0.5926405890
   32      C       2.8583264394     0.5917567680    -0.8122842991
   33      C       3.0014778793    -0.7977370461     1.2922954962
   34      C       2.7835786780    -0.6635759205    -1.6230549957
   35      O       3.9979498136    -1.5551720061     0.7848150926
   36      O       2.3129723830    -1.1389067926     2.2226987734
   37      O       1.8469616644    -1.5025282508    -1.1284273677
   38      O       3.4346539480    -0.9002252438    -2.6113402324
   39      C       1.7259834373    -2.7755416521    -1.7851447705
   40      C       4.1493391195    -2.8641901997     1.3613485242
   41      C       2.9423169150     1.6934314005     1.3732697594
   42      C       2.9103491988     2.9169160579     0.7019954565
   43      C       2.8533777307     2.9846589524    -0.6837440761
   44      C       2.8280037290     1.8330427320    -1.4726584625
   45      H       1.4562370103    -2.6406407736    -2.8334809684
   46      H       4.3773651657    -2.7884403416     2.4255957219
   47      H       2.8242446417     3.9546923725    -1.1683832231
   48      H       2.6677587002    -3.3244120843    -1.7262985227
   49      H       0.9387488859    -3.3022674500    -1.2503998071
   50      H       4.9759056785    -3.3229048065     0.8234891443
   51      H       3.2337869718    -3.4444850250     1.2333315465
   52      H       2.9339547168     3.8345004797     1.2804430270
   53      C       2.7531220573     1.9596429272    -2.9752326359
   54      C       3.0163986790     1.6724609101     2.8826841472
   55      H       2.1034537178     1.2623158572     3.3185740225
   56      H       3.1611556606     2.6843452148     3.2652765715
   57      H       3.8437405498     1.0545993643     3.2415900223
   58      H       1.9326339522     1.3699359892    -3.3917677406
   59      H       3.6699925385     1.6025592898    -3.4478198342
   60      H       2.5980670516     3.0025863220    -3.2571458735
 ----------------------------------------------------------------

   14   -1533.7560814420      9.46E-09 Convergence criterion met
 Total energy in the final basis set = -1533.75608144

                    Orbital Energies (a.u.)
 --------------------------------------------------------------

 Alpha MOs
 -- Occupied --
-19.175 -19.175 -19.171 -19.171 -19.118 -19.118 -19.115 -19.114
-10.310 -10.309 -10.307 -10.306 -10.232 -10.231 -10.228 -10.227
-10.203 -10.202 -10.202 -10.202 -10.199 -10.199 -10.198 -10.198
-10.184 -10.184 -10.184 -10.183 -10.170 -10.169 -10.167 -10.167
 -1.119  -1.118  -1.111  -1.111  -1.030  -1.030  -1.027  -1.026
 -0.883  -0.882  -0.805  -0.804  -0.793  -0.793  -0.744  -0.744
 -0.732  -0.731  -0.722  -0.722  -0.673  -0.672  -0.647  -0.646
 -0.618  -0.618  -0.575  -0.574  -0.563  -0.562  -0.535  -0.534
 -0.515  -0.514  -0.512  -0.512  -0.489  -0.489  -0.486  -0.485
 -0.478  -0.477  -0.475  -0.474  -0.467  -0.466  -0.441  -0.439
 -0.432  -0.432  -0.428  -0.426  -0.418  -0.418  -0.414  -0.413
 -0.409  -0.409  -0.403  -0.403  -0.394  -0.393  -0.385  -0.385
 -0.378  -0.377  -0.371  -0.370  -0.360  -0.359  -0.356  -0.356
 -0.355  -0.354  -0.319  -0.318  -0.310  -0.309  -0.292  -0.291
 -0.289  -0.289  -0.264  -0.263  -0.251  -0.250

          Ground-State Mulliken Net Atomic Charges

     Atom                 Charge (a.u.)
  ----------------------------------------
      1 C                     0.535045
      2 C                     0.836471
      3 C                    -0.715253
      4 C                    -1.075695
      5 O                     0.122413
      6 O                    -0.155852
      7 O                     0.067925
      8 O                    -0.088704
      9 C                    -0.192896
     10 C                    -0.305080
     11 C                     0.538660
     12 C                    -0.482919
     13 C                    -0.482513
     14 C                     0.363797
     15 H                     0.167284
     16 H                     0.186508
     17 H                     0.154019
     18 H                     0.173175
     19 H                     0.172493
     20 H                     0.116020
     21 H                     0.188684
     22 H                     0.149678
     23 C                    -0.654771
     24 C                    -0.653355
     25 H                     0.211559
     26 H                     0.136082
     27 H                     0.190095
     28 H                     0.171293
     29 H                     0.187158
     30 H                     0.139212
     31 C                     0.819213
     32 C                     0.518813
     33 C                    -1.132180
     34 C                    -0.660985
     35 O                     0.082315
     36 O                    -0.076541
     37 O                     0.102776
     38 O                    -0.158366
     39 C                    -0.305024
     40 C                    -0.193490
     41 C                     0.374183
     42 C                    -0.469115
     43 C                    -0.483689
     44 C                     0.547186
     45 H                     0.188765
     46 H                     0.166770
     47 H                     0.149241
     48 H                     0.191443
     49 H                     0.115433
     50 H                     0.170344
     51 H                     0.172726
     52 H                     0.154918
     53 C                    -0.642034
     54 C                    -0.667730
     55 H                     0.187811
     56 H                     0.140254
     57 H                     0.171266
     58 H                     0.189574
     59 H                     0.210638
     60 H                     0.134946
  ----------------------------------------
  Sum of atomic charges =     0.000000

                    Cartesian Multipole Moments
 -----------------------------------------------------------------
    Charge (ESU x 10^10)
                 0.0000
    Dipole Moment (Debye)
         X       0.1824      Y      -0.1119      Z       0.1852
       Tot       0.2830
    Quadrupole Moments (Debye-Ang)
        XX    -195.7560     XY      -1.3571     YY    -153.8912
        XZ      17.7827     YZ       1.7225     ZZ    -195.6574

 Total job time:  2151.10s(wall), 4280.53s(cpu)
        *  Thank you very much for using Q-Chem.  Have a nice day.  *
