 Q-Chem 4.4, Q-Chem, Inc., Pleasanton, CA (2016)
 Q-Chem 4.3.0 for Intel X86 EM64T Linux

User input:
--------------------------------------------------------------
$molecule
0  1
C    0.469  -2.369   0.246
C   -0.100  -2.666   1.497
C    0.820  -0.970  -0.128
C   -0.250  -1.617   2.525
O    1.710  -0.973  -1.154
O    0.353   0.027   0.395
O    0.994  -1.244   2.918
O   -1.315  -1.271   3.005
C    0.990  -0.231   3.923
C    2.104   0.331  -1.586
C    0.633  -3.406  -0.690
C    0.237  -4.708  -0.384
C   -0.335  -4.993   0.854
C   -0.510  -3.982   1.810
H    0.475   0.666   3.564
H    1.246   0.871  -1.997
H   -0.645  -6.015   1.070
H    0.524  -0.605   4.840
H    2.028   0.031   4.144
H    2.851   0.214  -2.376
H    2.557   0.890  -0.761
H    0.365  -5.501  -1.118
H    1.053  -3.209  -1.674
C   -1.128  -4.326   3.139
H   -2.093  -3.824   3.253
H   -0.462  -4.036   3.958
H   -1.304  -5.403   3.231
$end

$opt
CONSTRAINT
tors    2    1    3    5    163.6
tors    1    2    4    7    -67.3
ENDCONSTRAINT
$end

$rem
JOBTYPE                   OPT
METHOD                    B3LYP
DFT_D                     EMPIRICAL_GRIMME3
BASIS                     6-31G*
GEOM_OPT_MAX_CYCLES       500
GEOM_OPT_TOL_GRADIENT     5
GEOM_OPT_TOL_DISPLACEMENT 5
GEOM_OPT_TOL_ENERGY       5
SYMMETRY                  False
THRESH                    12
SCF_CONVERGENCE           8
MAX_SUB_FILE_NUM          128
MEM_STATIC                400
MEM_TOTAL                 4000
$end

--------------------------------------------------------------

   15    -727.3327487984      9.66E-09 Convergence criterion met
 Total energy in the final basis set = -727.3327487984
   13    -727.3368822284      5.06E-09 Convergence criterion met
 Total energy in the final basis set = -727.3368822284
   11    -727.3372520690      7.36E-09 Convergence criterion met
 Total energy in the final basis set = -727.3372520690
   11    -727.3373186285      5.21E-09 Convergence criterion met
 Total energy in the final basis set = -727.3373186285
   10    -727.3373409473      7.30E-09 Convergence criterion met
 Total energy in the final basis set = -727.3373409473
   10    -727.3373585517      4.45E-09 Convergence criterion met
 Total energy in the final basis set = -727.3373585517
    9    -727.3373677839      9.35E-09 Convergence criterion met
 Total energy in the final basis set = -727.3373677839
   10    -727.3373820971      3.89E-09 Convergence criterion met
 **  OPTIMIZATION CONVERGED  **
 Total job time:  240.03s(wall), 4238.92s(cpu)
        *  Thank you very much for using Q-Chem.  Have a nice day.  *

User input: 2 of 2

                  Welcome to Q-Chem
     A Quantum Leap Into The Future Of Chemistry

 Q-Chem 4.4, Q-Chem, Inc., Pleasanton, CA (2016)

 Y. Shao,  Z. Gan,  E. Epifanovsky,  A. T. B. Gilbert,  M. Wormit,
 J. Kussmann,  A. W. Lange,  A. Behn,  J. Deng,  X. Feng,  D. Ghosh,
 M. Goldey,  P. R. Horn,  L. D. Jacobson,  I. Kaliman,  R. Z. Khaliullin,
 T. Kus,  A. Landau,  J. Liu,  E. I. Proynov,  Y. M. Rhee,  R. M. Richard,
 M. A. Rohrdanz,  R. P. Steele,  E. J. Sundstrom,  H. L. Woodcock III,
 P. M. Zimmerman,  D. Zuev,  B. Albrecht,  E. Alguire,  B. Austin,
 S. A. Baeppler,  G. J. O. Beran,  Y. A. Bernard,  E. Berquist,
 K. Brandhorst,  K. B. Bravaya,  S. T. Brown,  D. Casanova,  C.-M. Chang,
 Y. Chen,  S. H. Chien,  K. D. Closser,  M. P. Coons,  D. L. Crittenden,
 S. Dasgupta,  M. Diedenhofen,  R. A. DiStasio Jr.,  H. Do,  A. D. Dutoi,
 R. G. Edgar,  P.-T. Fang,  S. Fatehi,  Q. Feng,  L. Fusti-Molnar,
 A. Ghysels,  A. Golubeva-Zadorozhnaya,  J. Gomes,  A. Gunina,
 M. W. D. Hanson-Heine,  P. H. P. Harbach,  A. W. Hauser,  E. G. Hohenstein,
 Z. C. Holden,  K. Hui,  T.-C. Jagau,  H. Ji,  B. Kaduk,  K. Khistyaev,
 Jaehoon Kim,  Jihan Kim,  R. A. King,  P. Klunzinger,  D. Kosenkov,
 T. Kowalczyk,  C. M. Krauter,  A. Kunitsa,  K. U. Lao,  A. Laurent,
 K. V. Lawler,  D. Lefrancois,  S. Lehtola,  S. V. Levchenko,  C. Y. Lin,
 Y.-S. Lin,  F. Liu,  E. Livshits,  R. C. Lochan,  A. Luenser,  P. Manohar,
 S. F. Manzer,  S.-P. Mao,  Y. Mao,  N. Mardirossian,  A. V. Marenich,
 L. A. Martinez-Martinez,  S. A. Maurer,  N. J. Mayhall,  J.-M. Mewes,
 A. F. Morrison,  K. Nanda,  C. M. Oana,  R. Olivares-Amaya,  D. P. O'Neill,
 J. A. Parkhill,  T. M. Perrine,  R. Peverati,  P. A. Pieniazek,  F. Plasser,
 A. Prociuk,  D. R. Rehn,  E. Rosta,  N. J. Russ,  N. Sergueev,
 S. M. Sharada,  S. Sharma,  D. W. Small,  A. Sodt,  T. Stauch,  T. Stein,
 D. Stuck,  Y.-C. Su,  A. J. W. Thom,  T. Tsuchimochi,  L. Vogt,  O. Vydrov,
 T. Wang,  M. A. Watson,  J. Wenzel,  A. White,  C. F. Williams,
 V. Vanovschi,  S. Yeganeh,  S. R. Yost,  Z.-Q. You,  I. Y. Zhang,  X. Zhang,
 Y. Zhao,  B. R. Brooks,  G. K. L. Chan,  D. M. Chipman,  C. J. Cramer,
 W. A. Goddard III,  M. S. Gordon,  W. J. Hehre,  A. Klamt,
 H. F. Schaefer III,  M. W. Schmidt,  C. D. Sherrill,  D. G. Truhlar,
 A. Warshel,  X. Xu,  A. Aspuru-Guzik,  R. Baer,  A. T. Bell,  N. A. Besley,
 J.-D. Chai,  A. Dreuw,  B. D. Dunietz,  T. R. Furlani,  S. R. Gwaltney,
 C.-P. Hsu,  Y. Jung,  J. Kong,  D. S. Lambrecht,  W. Liang,  C. Ochsenfeld,
 V. A. Rassolov,  L. V. Slipchenko,  J. E. Subotnik,  T. Van Voorhis,
 J. M. Herbert,  A. I. Krylov,  P. M. W. Gill,  M. Head-Gordon

 Contributors to earlier versions of Q-Chem not listed above:
 R. D. Adamson,  J. Baker,  E. F. C. Byrd,  A. K. Chakraborty,  C.-L. Cheng,
 H. Dachsel,  R. J. Doerksen,  G. Hawkins,  A. Heyden,  S. Hirata,
 G. Kedziora,  F. J. Keil,  C. Kelley,  P. P. Korambath,  W. Kurlancheek,
 A. M. Lee,  M. S. Lee,  D. Liotard,  I. Lotan,  P. E. Maslen,  N. Nair,
 D. Neuhauser,  R. Olson,  B. Peters,  J. Ritchie,  N. E. Schultz,
 N. Shenvi,  A. C. Simmonett,  K. S. Thanthiriwatte,  Q. Wu,  W. Zhang

 Please cite Q-Chem as follows:
 Y. Shao et al., Mol. Phys. 113, 184-215 (2015)
 DOI: 10.1080/00268976.2014.952696

 Q-Chem 4.3.0 for Intel X86 EM64T Linux

 Parts of Q-Chem use Armadillo 5.200.1 (Boston Tea Smuggler).
 http://arma.sourceforge.net/

 Q-Chem begins on Mon Oct  2 23:38:40 2017

Host: nid06079
0

     Scratch files written to /global/cscratch1/sd/junteng/scratch/17/opt_11n01.save//

Checking the input file for inconsistencies... 	...done.

--------------------------------------------------------------
User input:
--------------------------------------------------------------

$molecule
   read
$end

$rem
JOBTYPE                   OPT
METHOD                    B3LYP
DFT_D                     EMPIRICAL_GRIMME3
BASIS                     6-31G*
GEOM_OPT_MAX_CYCLES       500
GEOM_OPT_TOL_GRADIENT     5
GEOM_OPT_TOL_DISPLACEMENT 5
GEOM_OPT_TOL_ENERGY       5
SYMMETRY                  False
THRESH                    12
SCF_CONVERGENCE           8
MAX_SUB_FILE_NUM          128
MEM_STATIC                400
MEM_TOTAL                 4000
$end
--------------------------------------------------------------

   11    -727.3374254768      3.88E-09 Convergence criterion met
 Total energy in the final basis set = -727.3374254768
   10    -727.3374185617      7.88E-09 Convergence criterion met
 Total energy in the final basis set = -727.3374185617
   10    -727.3374260415      5.13E-09 Convergence criterion met
 Total energy in the final basis set = -727.3374260415
    8    -727.3374266453      3.86E-09 Convergence criterion met
 Total energy in the final basis set = -727.3374266453
    8    -727.3374265653      4.86E-09 Convergence criterion met
 Total energy in the final basis set = -727.3374265653
    9    -727.3374263289      3.77E-09 Convergence criterion met
 Total energy in the final basis set = -727.3374263289

             Standard Nuclear Orientation (Angstroms)
    I     Atom           X                Y                Z
 ----------------------------------------------------------------
    1      C       0.3847611639    -0.8915185696    -0.0157796697
    2      C      -0.8231868069    -0.1716597521    -0.0780582584
    3      C       1.6830742793    -0.1804753093    -0.2064134982
    4      C      -0.8355482094     1.3245037126    -0.2263177278
    5      O       2.7366242185    -0.9306183707     0.1883198757
    6      O       1.8070193712     0.9316516544    -0.6817538274
    7      O      -0.3341257327     1.9215282395     0.8719645262
    8      O      -1.3080345196     1.9149030834    -1.1726594587
    9      C      -0.1716102031     3.3455755879     0.7621601519
   10      C       4.0238487166    -0.3291512994    -0.0224408789
   11      C       0.3591554983    -2.2826556430     0.1491214936
   12      C      -0.8582728763    -2.9482244193     0.2440210317
   13      C      -2.0510917782    -2.2306034078     0.1686179565
   14      C      -2.0575561785    -0.8409960420     0.0031559888
   15      H       0.5529316997     3.5702035103    -0.0255183242
   16      H       4.1830613494    -0.1265273952    -1.0854814585
   17      H      -3.0002230887    -2.7562634462     0.2403993907
   18      H      -1.1243873319     3.8280202307     0.5277415032
   19      H       0.2002172841     3.6738154503     1.7333698420
   20      H       4.7490672883    -1.0559486419     0.3449349655
   21      H       4.1026987157     0.6103194695     0.5315997811
   22      H      -0.8802764789    -4.0271373679     0.3698024072
   23      H       1.2928243676    -2.8308280751     0.1913672097
   24      C      -3.3650147605    -0.0870935390    -0.0793524834
   25      H      -3.4573100789     0.4277636131    -1.0401819600
   26      H      -3.4336746797     0.6802592251     0.7009734495
   27      H      -4.2150393702    -0.7654771817     0.0400092339
 ----------------------------------------------------------------

    7    -727.3374263493      8.16E-09 Convergence criterion met
 Total energy in the final basis set = -727.3374263493
 Final energy is   -727.337426349256
 **  OPTIMIZATION CONVERGED  **

                    Orbital Energies (a.u.)
 --------------------------------------------------------------

 Alpha MOs
 -- Occupied --
-19.196 -19.185 -19.138 -19.129 -10.319 -10.311 -10.243 -10.231
-10.215 -10.213 -10.212 -10.202 -10.202 -10.201 -10.184  -1.106
 -1.095  -1.016  -1.007  -0.873  -0.791  -0.779  -0.737  -0.715
 -0.690  -0.642  -0.613  -0.570  -0.561  -0.531  -0.507  -0.490
 -0.482  -0.476  -0.469  -0.463  -0.450  -0.434  -0.424  -0.418
 -0.412  -0.403  -0.392  -0.381  -0.371  -0.360  -0.358  -0.354
 -0.346  -0.307  -0.291  -0.279  -0.273  -0.258  -0.249

          Ground-State Mulliken Net Atomic Charges

     Atom                 Charge (a.u.)
  ----------------------------------------
      1 C                     0.055883
      2 C                     0.024210
      3 C                     0.591048
      4 C                     0.538412
      5 O                    -0.462922
      6 O                    -0.493628
      7 O                    -0.438791
      8 O                    -0.476528
      9 C                    -0.221022
     10 C                    -0.216918
     11 C                    -0.177056
     12 C                    -0.120537
     13 C                    -0.179935
     14 C                     0.143944
     15 H                     0.181988
     16 H                     0.173101
     17 H                     0.134212
     18 H                     0.167752
     19 H                     0.160002
     20 H                     0.165491
     21 H                     0.172741
     22 H                     0.138682
     23 H                     0.158581
     24 C                    -0.534628
     25 H                     0.197214
     26 H                     0.167027
     27 H                     0.151676
  ----------------------------------------
  Sum of atomic charges =     0.000000

                    Cartesian Multipole Moments
 -----------------------------------------------------------------
    Charge (ESU x 10^10)
                 0.0000
    Dipole Moment (Debye)
         X       0.8838      Y      -1.7827      Z       1.9653
       Tot       2.7967
    Quadrupole Moments (Debye-Ang)
        XX     -71.6037     XY       1.9600     YY     -77.3792
        XZ      -1.6759     YZ       5.6231     ZZ     -90.8820

 Total job time:  133.85s(wall), 2948.74s(cpu)
        *  Thank you very much for using Q-Chem.  Have a nice day.  *
