 Q-Chem 5.0, Q-Chem, Inc., Pleasanton, CA (2017)
 Q-Chem 5.0.0 for Intel X86 EM64T Linux

User input:
--------------------------------------------------------------
$molecule
0  1
C    0.579  -1.978   0.499
C   -0.345  -1.987   1.740
C    0.941  -0.610  -0.048
C   -0.562  -0.630   2.386
O    2.215  -0.645  -0.542
O    0.210   0.366  -0.087
O    0.648  -0.161   2.826
O   -1.631  -0.088   2.617
C    0.572   1.116   3.461
C    2.652   0.593  -1.106
C   -0.242  -2.782  -0.524
C   -0.292  -4.259  -0.098
C   -1.265  -4.223   1.081
C   -1.594  -2.718   1.188
O   -1.591  -2.362  -0.216
H    1.516  -2.494   0.747
H    0.090  -2.606   2.538
H   -0.024   1.052   4.377
H    2.622   1.389  -0.356
H   -0.708  -4.895  -0.888
H    0.690  -4.657   0.174
H   -2.154  -4.811   0.825
H   -0.840  -4.639   1.999
H    1.587   1.422   3.729
H    0.156   1.863   2.777
H    2.039   0.852  -1.975
H    3.687   0.467  -1.436
C   -2.945  -2.478   1.828
H   -3.699  -3.155   1.411
H   -2.911  -2.635   2.910
H   -3.320  -1.473   1.614
C    0.085  -2.603  -1.994
H   -0.579  -3.214  -2.616
H   -0.074  -1.570  -2.320
H    1.119  -2.890  -2.210
$end

$opt
CONSTRAINT
tors    2    1    3    5    142.3
tors    1    2    4    7    -69.6
ENDCONSTRAINT
$end

$rem
JOBTYPE                   OPT
METHOD                    B3LYP
DFT_D                     D3_OP
BASIS                     STO-3G
GEOM_OPT_MAX_CYCLES       500
SYMMETRY                  False
THRESH                    12
SCF_CONVERGENCE           8
MAX_SUB_FILE_NUM          128
MEM_STATIC                400
MEM_TOTAL                 4000
$end

--------------------------------------------------------------

   14    -833.4099632771      3.41E-09 Convergence criterion met
 Total energy in the final basis set = -833.4099632771
   13    -833.4387440050      4.04E-09 Convergence criterion met
 Total energy in the final basis set = -833.4387440050
   13    -833.4461149472      4.11E-09 Convergence criterion met
 Total energy in the final basis set = -833.4461149472
   12    -833.4471937016      6.67E-09 Convergence criterion met
 Total energy in the final basis set = -833.4471937016
   12    -833.4476812532      4.54E-09 Convergence criterion met
 Total energy in the final basis set = -833.4476812532
   12    -833.4480648351      3.76E-09 Convergence criterion met
 Total energy in the final basis set = -833.4480648351
   11    -833.4483663715      5.78E-09 Convergence criterion met
 Total energy in the final basis set = -833.4483663715
   11    -833.4486596705      7.50E-09 Convergence criterion met
 **  OPTIMIZATION CONVERGED  **
 Total job time:  125.04s(wall), 2504.34s(cpu)
        *  Thank you very much for using Q-Chem.  Have a nice day.  *

User input: 2 of 3

nid04253 10.128.16
Q-Chem Developer Version! Running on 10.128.16.*
                  Welcome to Q-Chem
     A Quantum Leap Into The Future Of Chemistry

 Q-Chem 5.0, Q-Chem, Inc., Pleasanton, CA (2017)

 Yihan Shao,  Zhengting Gan,  E. Epifanovsky,  A. T. B. Gilbert,  M. Wormit,
 J. Kussmann,  A. W. Lange,  A. Behn,  Jia Deng,  Xintian Feng,  D. Ghosh,
 M. Goldey,  P. R. Horn,  L. D. Jacobson,  I. Kaliman,  T. Kus,  A. Landau,
 Jie Liu,  E. I. Proynov,  R. M. Richard,  R. P. Steele,  E. J. Sundstrom,
 H. L. Woodcock III,  P. M. Zimmerman,  D. Zuev,  B. Albrecht,  E. Alguire,
 S. A. Baeppler,  Z. Benda,  Y. A. Bernard,  E. J. Berquist,  K. B. Bravaya,
 D. Casanova,  Chun-Min Chang,  Yunqing Chen,  A. Chien,  K. D. Closser,
 M. P. Coons,  S. Dasgupta,  M. Diedenhofen,  Hainam Do,  R. G. Edgar,
 Po-Tung Fang,  S. Fatehi,  Qingguo Feng,  Qinghui Ge,  A. Ghysels,
 J. Gomes,  J. Gonthier,  A. Gunina,  M. W. D. Hanson-Heine,
 P. H. P. Harbach,  A. W. Hauser,  J. E. Herr,  E. G. Hohenstein,
 Z. C. Holden,  Kerwin Hui,  T.-C. Jagau,  Hyunjun Ji,  B. Kaduk,
 K. Khistyaev,  Jaehoon Kim,  P. Klunzinger,  K. Koh,  D. Kosenkov,
 T. Kowalczyk,  C. M. Krauter,  A. Kunitsa,  Ka Un Lao,  A. Laurent,
 K. V. Lawler,  Joonho Lee,  D. Lefrancois,  S. Lehtola,  D. S. Levine,
 Yi-Pei Li,  You-Sheng Lin,  Fenglai Liu,  E. Livshits,  A. Luenser,
 P. Manohar,  E. Mansoor,  S. F. Manzer,  Shan-Ping Mao,  Yuezhi Mao,
 N. Mardirossian,  A. V. Marenich,  L. A. Martinez-Martinez,  S. A. Maurer,
 N. J. Mayhall,  S. C. McKenzie,  J.-M. Mewes,  A. F. Morrison,  K. Nanda,
 T. S. Nguyen-Beck,  R. Olivares-Amaya,  J. A. Parkhill,  T. M. Perrine,
 F. Plasser,  S. Prager,  A. Prociuk,  D. R. Rehn,  F. Rob,  M. Schneider,
 N. Sergueev,  S. M. Sharada,  S. Sharma,  D. W. Small,  T. Stauch,
 T. Stein,  Yu-Chuan Su,  A. J. W. Thom,  T. Tsuchimochi,  L. Vogt,
 O. Vydrov,  M. A. Watson,  J. Wenzel,  M. de Wergifosse,  T. A. Wesolowski,
 A. White,  J. Witte,  A. Yamada,  Jun Yang,  K. Yao,  S. Yeganeh,
 S. R. Yost,  Zhi-Qiang You,  A. Zech,  Igor Ying Zhang,  Xing Zhang,
 Yan Zhao,  Ying Zhu,  B. R. Brooks,  G. K. L. Chan,  C. J. Cramer,
 M. S. Gordon,  W. J. Hehre,  A. Klamt,  M. W. Schmidt,  C. D. Sherrill,
 D. G. Truhlar,  A. Aspuru-Guzik,  R. Baer,  A. T. Bell,  N. A. Besley,
 Jeng-Da Chai,  A. Dreuw,  B. D. Dunietz,  T. R. Furlani,  Chao-Ping Hsu,
 Yousung Jung,  Jing Kong,  D. S. Lambrecht,  WanZhen Liang,  C. Ochsenfeld,
 V. A. Rassolov,  L. V. Slipchenko,  J. E. Subotnik,  T. Van Voorhis,
 J. M. Herbert,  A. I. Krylov,  P. M. W. Gill,  M. Head-Gordon

 Contributors to earlier versions of Q-Chem not listed above:
 R. D. Adamson,  B. Austin,  J. Baker,  G. J. O. Beran,  K. Brandhorst,
 S. T. Brown,  E. F. C. Byrd,  A. K. Chakraborty,  C.-L. Cheng,
 Siu Hung Chien,  D. M. Chipman,  D. L. Crittenden,  H. Dachsel,
 R. A. DiStasio Jr.,  R. J. Doerksen,  A. D. Dutoi,  L. Fusti-Molnar,
 W. A. Goddard III,  A. Golubeva-Zadorozhnaya,  S. R. Gwaltney,  G. Hawkins,
 A. Heyden,  S. Hirata,  G. Kedziora,  F. J. Keil,  C. Kelley,  Jihan Kim,
 R. A. King,  R. Z. Khaliullin,  P. P. Korambath,  W. Kurlancheek,
 A. M. Lee,  M. S. Lee,  S. V. Levchenko,  Ching Yeh Lin,  D. Liotard,
 R. C. Lochan,  I. Lotan,  P. E. Maslen,  N. Nair,  D. P. O'Neill,
 D. Neuhauser,  E. Neuscamman,  C. M. Oana,  R. Olson,  B. Peters,
 R. Peverati,  P. A. Pieniazek,  Y. M. Rhee,  J. Ritchie,  M. A. Rohrdanz,
 E. Rosta,  N. J. Russ,  H. F. Schaefer III,  N. E. Schultz,  N. Shenvi,
 A. C. Simmonett,  A. Sodt,  D. Stuck,  K. S. Thanthiriwatte,  V. Vanovschi,
 Tao Wang,  A. Warshel,  C. F. Williams,  Q. Wu,  X. Xu,  W. Zhang

 Please cite Q-Chem as follows:
 Y. Shao et al., Mol. Phys. 113, 184-215 (2015)
 DOI: 10.1080/00268976.2014.952696

 Q-Chem 5.0.0 for Intel X86 EM64T Linux

 Parts of Q-Chem use Armadillo 5.200.1 (Boston Tea Smuggler).
 http://arma.sourceforge.net/

 Q-Chem begins on Wed Oct  4 18:01:36 2017

Host: nid04253
0

     Scratch files written to /global/cscratch1/sd/junteng/scratch/15/opt_1111--.save//
The previous job contains 0 fragments, simply inherited here

Checking the input file for inconsistencies... 	...done.

--------------------------------------------------------------
User input:
--------------------------------------------------------------

$molecule
   read
$end

$rem
JOBTYPE                   OPT
METHOD                    B3LYP
DFT_D                     D3_OP
BASIS                     6-311++G(d,p)
GEOM_OPT_MAX_CYCLES       500
GEOM_OPT_TOL_GRADIENT     1
GEOM_OPT_TOL_DISPLACEMENT 1
GEOM_OPT_TOL_ENERGY       1
SYMMETRY                  False
THRESH                    12
SCF_CONVERGENCE           8
MAX_SUB_FILE_NUM          128
MEM_STATIC                400
MEM_TOTAL                 4000
$end

--------------------------------------------------------------

   10    -844.5292858847      6.94E-09 Convergence criterion met
 Total energy in the final basis set = -844.5292858847
    9    -844.5292866421      8.47E-09 Convergence criterion met
 Total energy in the final basis set = -844.5292866421
    9    -844.5292866212      2.27E-09 Convergence criterion met
 Total energy in the final basis set = -844.5292866212
    7    -844.5292867336      4.93E-09 Convergence criterion met
 Total energy in the final basis set = -844.5292867336
    6    -844.5292867055      5.26E-09 Convergence criterion met
 Total energy in the final basis set = -844.5292867055
    6    -844.5292867131      3.30E-09 Convergence criterion met
 Total energy in the final basis set = -844.5292867131
 Final energy is   -844.529286713129
        *  Thank you very much for using Q-Chem.  Have a nice day.  *
 Q-Chem 5.0, Q-Chem, Inc., Pleasanton, CA (2017)
 Q-Chem 5.0.0 for Intel X86 EM64T Linux

             Standard Nuclear Orientation (Angstroms)
    I     Atom           X                Y                Z
 ----------------------------------------------------------------
    1      C       0.0310609437     0.6586820886     0.6511637319
    2      C       0.5093312691    -0.8335517372     0.6411035230
    3      C      -1.2558480228     0.9302593691    -0.0946777652
    4      C      -0.5134207189    -1.8067776099     0.0711278518
    5      O      -1.9714764653     1.8872151108     0.5396527428
    6      O      -1.6012236799     0.4262471704    -1.1340845892
    7      O      -1.6363642542    -1.7472976648     0.8302999552
    8      O      -0.3833040887    -2.5662997214    -0.8511029614
    9      C      -2.7521325453    -2.5242068439     0.3585408000
   10      C      -3.1905795550     2.2942131721    -0.1087795688
   11      C       1.2449188595     1.3683092752    -0.0633973345
   12      C       2.4128413759     1.4040950961     0.9553693958
   13      C       2.8707489764    -0.0765101511     0.9510396159
   14      C       1.8944743021    -0.7195087062    -0.0763452206
   15      O       1.6727961175     0.3695121291    -0.9947530556
   16      H      -0.0912854180     1.0360903454     1.6646605921
   17      H       0.6499134268    -1.1597605986     1.6748023548
   18      H      -2.4962317009    -3.5840522405     0.3208100363
   19      H      -3.8558879480     1.4398513329    -0.2410136603
   20      H       3.1995535432     2.0655868919     0.5871863052
   21      H       2.1007825196     1.7675213944     1.9363328923
   22      H       3.8946004825    -0.1726874991     0.5858335683
   23      H       2.8197651028    -0.5553435015     1.9311081815
   24      H      -3.5515402947    -2.3492856786     1.0756345800
   25      H      -3.0450326578    -2.1853655359    -0.6365050897
   26      H      -2.9760047252     2.7347925087    -1.0838490687
   27      H      -3.6395386871     3.0311049613     0.5535422735
   28      C       2.4535925490    -1.9249737555    -0.8007939192
   29      H       3.4483126941    -1.6840399620    -1.1831903528
   30      H       2.5419428124    -2.7727819405    -0.1161047962
   31      H       1.8083093973    -2.2208988609    -1.6234197972
   32      C       0.9473517606     2.6722670242    -0.7705432725
   33      H       1.8578643134     3.0542692677    -1.2366740490
   34      H       0.1976726473     2.5282427823    -1.5506614935
   35      H       0.5793482913     3.4179568116    -0.0614362390
 ----------------------------------------------------------------

   15    -844.5291962462      3.72E-09 Convergence criterion met
 Total energy in the final basis set = -844.5291962462

                    Orbital Energies (a.u.)
 --------------------------------------------------------------

 Alpha MOs
 -- Occupied --
-19.176 -19.166 -19.125 -19.117 -19.111 -10.306 -10.303 -10.243
-10.236 -10.232 -10.223 -10.203 -10.203 -10.177 -10.175 -10.169
-10.154  -1.117  -1.108  -1.059  -1.029  -1.023  -0.830  -0.803
 -0.782  -0.749  -0.725  -0.720  -0.670  -0.642  -0.601  -0.581
 -0.563  -0.553  -0.526  -0.508  -0.501  -0.491  -0.488  -0.480
 -0.473  -0.470  -0.456  -0.439  -0.433  -0.422  -0.419  -0.411
 -0.405  -0.396  -0.392  -0.373  -0.369  -0.365  -0.358  -0.355
 -0.352  -0.346  -0.331  -0.323  -0.318  -0.308  -0.289  -0.274
 -0.269

          Ground-State Mulliken Net Atomic Charges

     Atom                 Charge (a.u.)
  ----------------------------------------
      1 C                     0.679734
      2 C                     0.422253
      3 C                    -1.521539
      4 C                    -0.517991
      5 O                     0.041265
      6 O                    -0.151240
      7 O                    -0.018690
      8 O                    -0.172373
      9 C                    -0.176145
     10 C                    -0.186859
     11 C                    -0.168204
     12 C                    -0.288839
     13 C                    -0.442103
     14 C                    -0.752435
     15 O                     0.039785
     16 H                     0.294756
     17 H                     0.260765
     18 H                     0.169542
     19 H                     0.162238
     20 H                     0.170208
     21 H                     0.140819
     22 H                     0.174775
     23 H                     0.139452
     24 H                     0.148867
     25 H                     0.190256
     26 H                     0.178807
     27 H                     0.154163
     28 C                    -0.023038
     29 H                     0.140970
     30 H                     0.160351
     31 H                     0.208026
     32 C                    -0.018298
     33 H                     0.178027
     34 H                     0.218622
     35 H                     0.164072
  ----------------------------------------
  Sum of atomic charges =     0.000000

                    Cartesian Multipole Moments
 -----------------------------------------------------------------
    Charge (ESU x 10^10)
                 0.0000
    Dipole Moment (Debye)
         X      -0.8159      Y       2.0110      Z       3.4993
       Tot       4.1176
    Quadrupole Moments (Debye-Ang)
        XX     -89.2154     XY      -1.0144     YY     -97.8394
        XZ       1.5699     YZ      -4.7618     ZZ    -107.8126

 Frequency:        23.79                  38.22                  80.09
 Force Cnst:      0.0013                 0.0042                 0.0195
 Red. Mass:       3.8712                 4.8949                 5.1654
 IR Intens:        0.025                  0.831                  2.947
 Frequency:       100.21                 120.14                 146.91
 Force Cnst:      0.0205                 0.0146                 0.0321
 Red. Mass:       3.4624                 1.7215                 2.5233
 IR Intens:        2.077                  0.229                  1.816
 Frequency:       150.09                 151.29                 186.39
 Force Cnst:      0.0209                 0.0185                 0.0637
 Red. Mass:       1.5718                 1.3749                 3.1146
 IR Intens:        0.532                  0.445                  0.535
 Frequency:       218.02                 220.51                 227.38
 Force Cnst:      0.0406                 0.0763                 0.0599
 Red. Mass:       1.4515                 2.6628                 1.9677
 IR Intens:        1.815                  0.393                  3.748
 Frequency:       233.88                 246.79                 260.79
 Force Cnst:      0.0467                 0.0816                 0.1878
 Red. Mass:       1.4496                 2.2734                 4.6876
 IR Intens:        2.158                  1.725                  4.200
 Frequency:       281.41                 319.89                 325.33
 Force Cnst:      0.1709                 0.2439                 0.1597
 Red. Mass:       3.6618                 4.0447                 2.5618
 IR Intens:        1.119                 11.810                  0.435
 Frequency:       339.71                 367.56                 368.57
 Force Cnst:      0.2389                 0.3354                 0.3021
 Red. Mass:       3.5137                 4.2142                 3.7743
 IR Intens:        5.668                  4.046                  9.095
 Frequency:       422.74                 489.88                 572.10
 Force Cnst:      0.3042                 0.4732                 0.7409
 Red. Mass:       2.8887                 3.3467                 3.8421
 IR Intens:        3.804                 12.588                 11.367
 Frequency:       596.34                 613.41                 647.72
 Force Cnst:      0.9907                 0.8954                 1.1204
 Red. Mass:       4.7285                 4.0391                 4.5328
 IR Intens:        8.913                  3.905                  2.208
 Frequency:       674.06                 719.49                 754.63
 Force Cnst:      1.2805                 1.8094                 1.5507
 Red. Mass:       4.7835                 5.9324                 4.6216
 IR Intens:        0.940                  7.400                  2.892
 Frequency:       807.63                 825.24                 857.92
 Force Cnst:      1.2098                 1.0198                 1.3697
 Red. Mass:       3.1480                 2.5416                 3.1585
 IR Intens:        1.847                  8.067                  6.806
 Frequency:       862.18                 872.31                 887.52
 Force Cnst:      2.0417                 1.8683                 1.1461
 Red. Mass:       4.6618                 4.1674                 2.4696
 IR Intens:        6.733                 23.098                 18.269
 Frequency:       889.90                 913.86                 925.88
 Force Cnst:      1.1387                 1.1068                 1.3344
 Red. Mass:       2.4405                 2.2494                 2.6420
 IR Intens:        8.059                 11.614                 31.524
 Frequency:       967.79                 972.00                 985.72
 Force Cnst:      1.8323                 2.4808                 1.9237
 Red. Mass:       3.3205                 4.4566                 3.3604
 IR Intens:        7.401                  3.457                  5.464
 Frequency:      1010.91                1056.62                1065.05
 Force Cnst:      0.9537                 2.4620                 2.0144
 Red. Mass:       1.5840                 3.7428                 3.0141
 IR Intens:        1.978                 63.480                 52.987
 Frequency:      1109.82                1129.28                1136.94
 Force Cnst:      1.0825                 1.3102                 1.8825
 Red. Mass:       1.4917                 1.7437                 2.4717
 IR Intens:        7.278                 20.055                 24.411
 Frequency:      1165.89                1171.28                1172.26
 Force Cnst:      1.7266                 1.0453                 1.1104
 Red. Mass:       2.1560                 1.2932                 1.3715
 IR Intens:      111.185                  8.373                 14.452
 Frequency:      1181.06                1195.43                1204.98
 Force Cnst:      1.9435                 2.4358                 1.6115
 Red. Mass:       2.3648                 2.8930                 1.8837
 IR Intens:       58.168                368.826                  6.360
 Frequency:      1209.75                1212.35                1220.49
 Force Cnst:      1.3590                 1.6449                 1.5948
 Red. Mass:       1.5761                 1.8995                 1.8171
 IR Intens:       21.202                159.316                 17.695
 Frequency:      1245.78                1258.32                1263.23
 Force Cnst:      2.0239                 1.2637                 1.3860
 Red. Mass:       2.2134                 1.3546                 1.4742
 IR Intens:       37.979                  3.907                 25.560
 Frequency:      1285.68                1329.70                1343.39
 Force Cnst:      1.6724                 1.6247                 2.4345
 Red. Mass:       1.7172                 1.5596                 2.2896
 IR Intens:        8.233                  1.762                  6.049
 Frequency:      1370.65                1395.93                1416.29
 Force Cnst:      1.7397                 1.8094                 1.6315
 Red. Mass:       1.5717                 1.5760                 1.3805
 IR Intens:      100.752                 37.959                 24.568
 Frequency:      1428.99                1467.07                1468.74
 Force Cnst:      1.5915                 1.5037                 1.5300
 Red. Mass:       1.3228                 1.1858                 1.2038
 IR Intens:       12.121                 14.632                 13.826
 Frequency:      1482.00                1483.84                1484.19
 Force Cnst:      1.3734                 1.3580                 1.3554
 Red. Mass:       1.0613                 1.0469                 1.0443
 IR Intens:        4.502                  5.097                 13.032
 Frequency:      1488.39                1494.45                1495.73
 Force Cnst:      1.3871                 1.3948                 1.3813
 Red. Mass:       1.0627                 1.0600                 1.0479
 IR Intens:        5.403                  0.829                  7.690
 Frequency:      1499.17                1501.65                1507.35
 Force Cnst:      1.3840                 1.3981                 1.4126
 Red. Mass:       1.0451                 1.0523                 1.0552
 IR Intens:       14.108                  7.307                 11.414
 Frequency:      1511.53                1791.35                1811.81
 Force Cnst:      1.4699                20.8595                22.1354
 Red. Mass:       1.0920                11.0330                11.4449
 IR Intens:        7.525                 90.138                319.991
 Frequency:      3041.01                3042.62                3048.83
 Force Cnst:      5.6391                 5.6772                 5.6382
 Red. Mass:       1.0350                 1.0408                 1.0295
 IR Intens:       13.827                 17.064                 18.299
 Frequency:      3049.16                3053.36                3061.47
 Force Cnst:      5.6402                 5.8287                 5.9092
 Red. Mass:       1.0296                 1.0611                 1.0701
 IR Intens:       51.771                 29.793                 22.996
 Frequency:      3067.32                3090.50                3099.83
 Force Cnst:      5.9371                 6.2293                 6.2403
 Red. Mass:       1.0710                 1.1070                 1.1023
 IR Intens:       29.541                  0.155                 12.357
 Frequency:      3108.45                3110.56                3115.99
 Force Cnst:      6.2819                 6.2753                 6.3081
 Red. Mass:       1.1034                 1.1008                 1.1027
 IR Intens:       15.340                 28.735                 20.745
 Frequency:      3118.71                3122.03                3123.48
 Force Cnst:      6.2419                 6.3571                 6.3641
 Red. Mass:       1.0892                 1.1070                 1.1071
 IR Intens:       25.927                 20.122                 14.355
 Frequency:      3152.51                3156.15                3165.66
 Force Cnst:      6.4790                 6.4916                 6.4741
 Red. Mass:       1.1065                 1.1061                 1.0965
 IR Intens:       14.023                 14.408                  2.257

 STANDARD THERMODYNAMIC QUANTITIES AT   298.15 K  AND     1.00 ATM

   This Molecule has  0 Imaginary Frequencies
   Zero point vibrational energy:      183.643 kcal/mol

   Atom    1 Element C  Has Mass   12.00000
   Atom    2 Element C  Has Mass   12.00000
   Atom    3 Element C  Has Mass   12.00000
   Atom    4 Element C  Has Mass   12.00000
   Atom    5 Element O  Has Mass   15.99491
   Atom    6 Element O  Has Mass   15.99491
   Atom    7 Element O  Has Mass   15.99491
   Atom    8 Element O  Has Mass   15.99491
   Atom    9 Element C  Has Mass   12.00000
   Atom   10 Element C  Has Mass   12.00000
   Atom   11 Element C  Has Mass   12.00000
   Atom   12 Element C  Has Mass   12.00000
   Atom   13 Element C  Has Mass   12.00000
   Atom   14 Element C  Has Mass   12.00000
   Atom   15 Element O  Has Mass   15.99491
   Atom   16 Element H  Has Mass    1.00783
   Atom   17 Element H  Has Mass    1.00783
   Atom   18 Element H  Has Mass    1.00783
   Atom   19 Element H  Has Mass    1.00783
   Atom   20 Element H  Has Mass    1.00783
   Atom   21 Element H  Has Mass    1.00783
   Atom   22 Element H  Has Mass    1.00783
   Atom   23 Element H  Has Mass    1.00783
   Atom   24 Element H  Has Mass    1.00783
   Atom   25 Element H  Has Mass    1.00783
   Atom   26 Element H  Has Mass    1.00783
   Atom   27 Element H  Has Mass    1.00783
   Atom   28 Element C  Has Mass   12.00000
   Atom   29 Element H  Has Mass    1.00783
   Atom   30 Element H  Has Mass    1.00783
   Atom   31 Element H  Has Mass    1.00783
   Atom   32 Element C  Has Mass   12.00000
   Atom   33 Element H  Has Mass    1.00783
   Atom   34 Element H  Has Mass    1.00783
   Atom   35 Element H  Has Mass    1.00783
   Molecular Mass:   242.115490 amu
   Principal axes and moments of inertia in amu*Bohr^2:
                             1           2           3
    Eigenvalues --     2979.74177  3613.60000  5612.33424
          X               0.99991    -0.01218     0.00559
          Y               0.01220     0.99991    -0.00465
          Z              -0.00553     0.00472     0.99997
   Rotational Symmetry Number is   1
   The Molecule is an Asymmetric Top
   Translational Enthalpy:        0.889 kcal/mol
   Rotational Enthalpy:           0.889 kcal/mol
   Vibrational Enthalpy:        192.696 kcal/mol
   gas constant (RT):             0.592 kcal/mol
   Translational Entropy:        42.354  cal/mol.K
   Rotational Entropy:           32.469  cal/mol.K
   Vibrational Entropy:          58.090  cal/mol.K

   Total Enthalpy:              195.066 kcal/mol
   Total Entropy:               132.912  cal/mol.K

 Total job time:  14266.41s(wall), 84776.87s(cpu)
        *  Thank you very much for using Q-Chem.  Have a nice day.  *
