 Q-Chem 5.0, Q-Chem, Inc., Pleasanton, CA (2017)
 Q-Chem 5.0.0 for Intel X86 EM64T Linux

User input:
--------------------------------------------------------------
$molecule
0  1
C    0.469  -2.369   0.246
C   -0.100  -2.666   1.497
C    0.820  -0.970  -0.128
C   -0.250  -1.617   2.525
O    1.710  -0.973  -1.154
O    0.353   0.027   0.395
O    0.994  -1.244   2.918
O   -1.315  -1.271   3.005
C    0.990  -0.231   3.923
C    2.104   0.331  -1.586
C    0.633  -3.406  -0.690
C    0.237  -4.708  -0.384
C   -0.335  -4.993   0.854
C   -0.510  -3.982   1.810
H    0.475   0.666   3.564
H    1.246   0.871  -1.997
H   -0.645  -6.015   1.070
H    0.524  -0.605   4.840
H    2.028   0.031   4.144
H    2.851   0.214  -2.376
H    2.557   0.890  -0.761
H    0.365  -5.501  -1.118
H    1.053  -3.209  -1.674
C   -1.128  -4.326   3.139
H   -2.093  -3.824   3.253
H   -0.462  -4.036   3.958
H   -1.304  -5.403   3.231
$end

$opt
CONSTRAINT
tors    2    1    3    5    163.6
tors    1    2    4    7    -67.3
ENDCONSTRAINT
$end

$rem
JOBTYPE                   OPT
METHOD                    B3LYP
DFT_D                     D3_OP
BASIS                     STO-3G
GEOM_OPT_MAX_CYCLES       500
SYMMETRY                  False
THRESH                    12
SCF_CONVERGENCE           8
MAX_SUB_FILE_NUM          128
MEM_STATIC                400
MEM_TOTAL                 4000
$end

--------------------------------------------------------------

   15    -717.9257267684      8.11E-09 Convergence criterion met
 Total energy in the final basis set = -717.9257267684
   14    -717.9522984366      4.91E-09 Convergence criterion met
 Total energy in the final basis set = -717.9522984366
   13    -717.9543258623      8.80E-09 Convergence criterion met
 Total energy in the final basis set = -717.9543258623
   12    -717.9545496074      5.54E-09 Convergence criterion met
 Total energy in the final basis set = -717.9545496074
   11    -717.9545648654      4.10E-09 Convergence criterion met
 Total energy in the final basis set = -717.9545648654
   11    -717.9545757371      2.03E-09 Convergence criterion met
 Total energy in the final basis set = -717.9545757371
   11    -717.9545845133      2.38E-09 Convergence criterion met
 Total energy in the final basis set = -717.9545845133
   11    -717.9546029705      1.54E-09 Convergence criterion met
 **  OPTIMIZATION CONVERGED  **
 Total job time:  36.35s(wall), 846.52s(cpu)
        *  Thank you very much for using Q-Chem.  Have a nice day.  *

User input: 2 of 3

nid00976 10.128.3
Q-Chem Developer Version! Running on 10.128.3.*
                  Welcome to Q-Chem
     A Quantum Leap Into The Future Of Chemistry

 Q-Chem 5.0, Q-Chem, Inc., Pleasanton, CA (2017)

 Yihan Shao,  Zhengting Gan,  E. Epifanovsky,  A. T. B. Gilbert,  M. Wormit,
 J. Kussmann,  A. W. Lange,  A. Behn,  Jia Deng,  Xintian Feng,  D. Ghosh,
 M. Goldey,  P. R. Horn,  L. D. Jacobson,  I. Kaliman,  T. Kus,  A. Landau,
 Jie Liu,  E. I. Proynov,  R. M. Richard,  R. P. Steele,  E. J. Sundstrom,
 H. L. Woodcock III,  P. M. Zimmerman,  D. Zuev,  B. Albrecht,  E. Alguire,
 S. A. Baeppler,  Z. Benda,  Y. A. Bernard,  E. J. Berquist,  K. B. Bravaya,
 D. Casanova,  Chun-Min Chang,  Yunqing Chen,  A. Chien,  K. D. Closser,
 M. P. Coons,  S. Dasgupta,  M. Diedenhofen,  Hainam Do,  R. G. Edgar,
 Po-Tung Fang,  S. Fatehi,  Qingguo Feng,  Qinghui Ge,  A. Ghysels,
 J. Gomes,  J. Gonthier,  A. Gunina,  M. W. D. Hanson-Heine,
 P. H. P. Harbach,  A. W. Hauser,  J. E. Herr,  E. G. Hohenstein,
 Z. C. Holden,  Kerwin Hui,  T.-C. Jagau,  Hyunjun Ji,  B. Kaduk,
 K. Khistyaev,  Jaehoon Kim,  P. Klunzinger,  K. Koh,  D. Kosenkov,
 T. Kowalczyk,  C. M. Krauter,  A. Kunitsa,  Ka Un Lao,  A. Laurent,
 K. V. Lawler,  Joonho Lee,  D. Lefrancois,  S. Lehtola,  D. S. Levine,
 Yi-Pei Li,  You-Sheng Lin,  Fenglai Liu,  E. Livshits,  A. Luenser,
 P. Manohar,  E. Mansoor,  S. F. Manzer,  Shan-Ping Mao,  Yuezhi Mao,
 N. Mardirossian,  A. V. Marenich,  L. A. Martinez-Martinez,  S. A. Maurer,
 N. J. Mayhall,  S. C. McKenzie,  J.-M. Mewes,  A. F. Morrison,  K. Nanda,
 T. S. Nguyen-Beck,  R. Olivares-Amaya,  J. A. Parkhill,  T. M. Perrine,
 F. Plasser,  S. Prager,  A. Prociuk,  D. R. Rehn,  F. Rob,  M. Schneider,
 N. Sergueev,  S. M. Sharada,  S. Sharma,  D. W. Small,  T. Stauch,
 T. Stein,  Yu-Chuan Su,  A. J. W. Thom,  T. Tsuchimochi,  L. Vogt,
 O. Vydrov,  M. A. Watson,  J. Wenzel,  M. de Wergifosse,  T. A. Wesolowski,
 A. White,  J. Witte,  A. Yamada,  Jun Yang,  K. Yao,  S. Yeganeh,
 S. R. Yost,  Zhi-Qiang You,  A. Zech,  Igor Ying Zhang,  Xing Zhang,
 Yan Zhao,  Ying Zhu,  B. R. Brooks,  G. K. L. Chan,  C. J. Cramer,
 M. S. Gordon,  W. J. Hehre,  A. Klamt,  M. W. Schmidt,  C. D. Sherrill,
 D. G. Truhlar,  A. Aspuru-Guzik,  R. Baer,  A. T. Bell,  N. A. Besley,
 Jeng-Da Chai,  A. Dreuw,  B. D. Dunietz,  T. R. Furlani,  Chao-Ping Hsu,
 Yousung Jung,  Jing Kong,  D. S. Lambrecht,  WanZhen Liang,  C. Ochsenfeld,
 V. A. Rassolov,  L. V. Slipchenko,  J. E. Subotnik,  T. Van Voorhis,
 J. M. Herbert,  A. I. Krylov,  P. M. W. Gill,  M. Head-Gordon

 Contributors to earlier versions of Q-Chem not listed above:
 R. D. Adamson,  B. Austin,  J. Baker,  G. J. O. Beran,  K. Brandhorst,
 S. T. Brown,  E. F. C. Byrd,  A. K. Chakraborty,  C.-L. Cheng,
 Siu Hung Chien,  D. M. Chipman,  D. L. Crittenden,  H. Dachsel,
 R. A. DiStasio Jr.,  R. J. Doerksen,  A. D. Dutoi,  L. Fusti-Molnar,
 W. A. Goddard III,  A. Golubeva-Zadorozhnaya,  S. R. Gwaltney,  G. Hawkins,
 A. Heyden,  S. Hirata,  G. Kedziora,  F. J. Keil,  C. Kelley,  Jihan Kim,
 R. A. King,  R. Z. Khaliullin,  P. P. Korambath,  W. Kurlancheek,
 A. M. Lee,  M. S. Lee,  S. V. Levchenko,  Ching Yeh Lin,  D. Liotard,
 R. C. Lochan,  I. Lotan,  P. E. Maslen,  N. Nair,  D. P. O'Neill,
 D. Neuhauser,  E. Neuscamman,  C. M. Oana,  R. Olson,  B. Peters,
 R. Peverati,  P. A. Pieniazek,  Y. M. Rhee,  J. Ritchie,  M. A. Rohrdanz,
 E. Rosta,  N. J. Russ,  H. F. Schaefer III,  N. E. Schultz,  N. Shenvi,
 A. C. Simmonett,  A. Sodt,  D. Stuck,  K. S. Thanthiriwatte,  V. Vanovschi,
 Tao Wang,  A. Warshel,  C. F. Williams,  Q. Wu,  X. Xu,  W. Zhang

 Please cite Q-Chem as follows:
 Y. Shao et al., Mol. Phys. 113, 184-215 (2015)
 DOI: 10.1080/00268976.2014.952696

 Q-Chem 5.0.0 for Intel X86 EM64T Linux

 Parts of Q-Chem use Armadillo 5.200.1 (Boston Tea Smuggler).
 http://arma.sourceforge.net/

 Q-Chem begins on Wed Oct  4 18:05:03 2017

Host: nid00976
0

     Scratch files written to /global/cscratch1/sd/junteng/scratch/17/opt_11n01oo.save//
The previous job contains 0 fragments, simply inherited here

Checking the input file for inconsistencies... 	...done.

--------------------------------------------------------------
User input:
--------------------------------------------------------------

$molecule
   read
$end

$rem
JOBTYPE                   OPT
METHOD                    B3LYP
DFT_D                     D3_OP
BASIS                     6-311++G(d,p)
GEOM_OPT_MAX_CYCLES       500
GEOM_OPT_TOL_GRADIENT     1
GEOM_OPT_TOL_DISPLACEMENT 1
GEOM_OPT_TOL_ENERGY       1
SYMMETRY                  False
THRESH                    12
SCF_CONVERGENCE           8
MAX_SUB_FILE_NUM          128
MEM_STATIC                400
MEM_TOTAL                 4000
$end

--------------------------------------------------------------

    9    -727.5472322612      6.30E-09 Convergence criterion met
 Total energy in the final basis set = -727.5472322612
    8    -727.5472321551      6.86E-09 Convergence criterion met
 Total energy in the final basis set = -727.5472321551
    7    -727.5472321702      4.93E-09 Convergence criterion met
 Total energy in the final basis set = -727.5472321702
    6    -727.5472321898      5.27E-09 Convergence criterion met
 Total energy in the final basis set = -727.5472321898
    5    -727.5472322085      6.91E-09 Convergence criterion met
 Total energy in the final basis set = -727.5472322085
    5    -727.5472322113      4.69E-09 Convergence criterion met
 Total energy in the final basis set = -727.5472322113
 Final energy is   -727.547232211290
        *  Thank you very much for using Q-Chem.  Have a nice day.  *
 Q-Chem 5.0, Q-Chem, Inc., Pleasanton, CA (2017)
 Q-Chem 5.0.0 for Intel X86 EM64T Linux

             Standard Nuclear Orientation (Angstroms)
    I     Atom           X                Y                Z
 ----------------------------------------------------------------
    1      C       0.5027958518    -0.8444655631    -0.0055590740
    2      C      -0.7709182318    -0.2566151360    -0.0888075236
    3      C       1.7205137635     0.0048999402    -0.1461609646
    4      C      -0.9474577294     1.2251013999    -0.2833443281
    5      O       2.8542518915    -0.6825298985     0.1080316655
    6      O       1.7169706049     1.1726988754    -0.4626011830
    7      O      -0.7392236393     1.8908877418     0.8648037568
    8      O      -1.3102190263     1.7332865776    -1.3144017288
    9      C      -0.7639642261     3.3274224180     0.7655771701
   10      C       4.0821747597     0.0520751519    -0.0365606585
   11      C       0.6183866357    -2.2292418454     0.1662982785
   12      C      -0.5213995556    -3.0168538209     0.2547295271
   13      C      -1.7797590002    -2.4280010724     0.1667091904
   14      C      -1.9280513676    -1.0497044370    -0.0103298235
   15      H       0.0295217037     3.6592666750     0.0945152717
   16      H       4.1846666207     0.4262262738    -1.0562474070
   17      H      -2.6682371584    -3.0470689278     0.2349789671
   18      H      -1.7289981568     3.6712042405     0.3908290188
   19      H      -0.5906474028     3.6902067469     1.7762196025
   20      H       4.8720137641    -0.6598055367     0.1927668546
   21      H       4.1077287968     0.8920804642     0.6590246200
   22      H      -0.4321112611    -4.0887730476     0.3891407797
   23      H       1.6018130524    -2.6740460311     0.2241493184
   24      C      -3.3059120757    -0.4414727867    -0.1196930307
   25      H      -3.4798429877    -0.0488343064    -1.1247702256
   26      H      -3.4340448723     0.3908322539     0.5780638240
   27      H      -4.0745536901    -1.1849006667     0.0975167136
 ----------------------------------------------------------------

   15    -727.5472277704      5.84E-09 Convergence criterion met
 Total energy in the final basis set = -727.5472277704

                    Orbital Energies (a.u.)
 --------------------------------------------------------------

 Alpha MOs
 -- Occupied --
-19.178 -19.168 -19.120 -19.112 -10.312 -10.306 -10.233 -10.222
-10.207 -10.207 -10.204 -10.192 -10.192 -10.191 -10.175  -1.120
 -1.110  -1.031  -1.024  -0.885  -0.801  -0.790  -0.747  -0.726
 -0.700  -0.653  -0.624  -0.580  -0.571  -0.543  -0.519  -0.501
 -0.495  -0.490  -0.479  -0.477  -0.462  -0.444  -0.434  -0.429
 -0.423  -0.416  -0.403  -0.393  -0.381  -0.371  -0.369  -0.366
 -0.357  -0.321  -0.307  -0.293  -0.290  -0.271  -0.261

          Ground-State Mulliken Net Atomic Charges

     Atom                 Charge (a.u.)
  ----------------------------------------
      1 C                     0.102516
      2 C                     0.764377
      3 C                    -0.052581
      4 C                    -0.930451
      5 O                    -0.103805
      6 O                    -0.225977
      7 O                     0.080195
      8 O                    -0.135819
      9 C                    -0.217214
     10 C                    -0.213969
     11 C                    -0.362916
     12 C                    -0.074224
     13 C                    -0.629225
     14 C                     0.463075
     15 H                     0.191755
     16 H                     0.187133
     17 H                     0.118499
     18 H                     0.161498
     19 H                     0.150194
     20 H                     0.154027
     21 H                     0.178321
     22 H                     0.183349
     23 H                     0.184954
     24 C                    -0.502129
     25 H                     0.193700
     26 H                     0.172816
     27 H                     0.161901
  ----------------------------------------
  Sum of atomic charges =     0.000000

                    Cartesian Multipole Moments
 -----------------------------------------------------------------
    Charge (ESU x 10^10)
                 0.0000
    Dipole Moment (Debye)
         X       0.7571      Y      -1.7101      Z       2.0228
       Tot       2.7549
    Quadrupole Moments (Debye-Ang)
        XX     -72.3928     XY       1.4584     YY     -79.2167
        XZ      -2.2339     YZ       5.4443     ZZ     -94.0235

 Frequency:        17.40                  63.51                  78.09
 Force Cnst:      0.0009                 0.0084                 0.0109
 Red. Mass:       4.8135                 3.5553                 3.0232
 IR Intens:        0.996                  1.146                  2.635
 Frequency:        93.71                 110.91                 120.54
 Force Cnst:      0.0096                 0.0115                 0.0130
 Red. Mass:       1.8519                 1.5891                 1.5147
 IR Intens:        1.182                  2.517                  0.035
 Frequency:       136.41                 142.36                 158.99
 Force Cnst:      0.0224                 0.0147                 0.0549
 Red. Mass:       2.0458                 1.2335                 3.6843
 IR Intens:        1.000                  1.037                  1.687
 Frequency:       183.86                 217.05                 238.69
 Force Cnst:      0.0916                 0.0953                 0.1707
 Red. Mass:       4.5967                 3.4343                 5.0843
 IR Intens:        0.035                  3.286                  4.008
 Frequency:       280.70                 298.45                 316.05
 Force Cnst:      0.2236                 0.2262                 0.3281
 Red. Mass:       4.8167                 4.3101                 5.5757
 IR Intens:        3.289                 10.277                  5.817
 Frequency:       354.43                 383.64                 431.77
 Force Cnst:      0.3114                 0.4797                 0.5089
 Red. Mass:       4.2071                 5.5322                 4.6333
 IR Intens:       15.943                  8.121                  1.223
 Frequency:       486.74                 506.89                 565.24
 Force Cnst:      0.6028                 0.6820                 0.8521
 Red. Mass:       4.3185                 4.5053                 4.5268
 IR Intens:        3.780                  2.733                  0.535
 Frequency:       590.93                 710.31                 733.42
 Force Cnst:      1.0110                 1.9181                 2.0535
 Red. Mass:       4.9140                 6.4523                 6.4796
 IR Intens:        5.634                  8.158                  3.450
 Frequency:       760.52                 781.72                 798.36
 Force Cnst:      1.2463                 0.7478                 2.0703
 Red. Mass:       3.6572                 2.0770                 5.5128
 IR Intens:       47.315                 40.711                  5.907
 Frequency:       829.55                 840.80                 895.02
 Force Cnst:      1.2808                 2.1207                 2.2988
 Red. Mass:       3.1590                 5.0915                 4.8706
 IR Intens:        0.939                  4.387                 12.575
 Frequency:       937.50                 977.62                 998.45
 Force Cnst:      0.7094                 3.5118                 0.7918
 Red. Mass:       1.3699                 6.2364                 1.3481
 IR Intens:        0.096                  9.500                  0.198
 Frequency:      1003.97                1043.88                1062.84
 Force Cnst:      1.4715                 1.7877                 1.0262
 Red. Mass:       2.4778                 2.7845                 1.5418
 IR Intens:        6.881                 22.118                  2.123
 Frequency:      1095.78                1138.51                1169.54
 Force Cnst:      2.2898                 1.7749                 1.0386
 Red. Mass:       3.2366                 2.3241                 1.2887
 IR Intens:       93.753                 84.688                  0.828
 Frequency:      1172.83                1173.47                1198.03
 Force Cnst:      1.0379                 1.9135                 1.1090
 Red. Mass:       1.2807                 2.3585                 1.3114
 IR Intens:        1.049                126.424                  1.907
 Frequency:      1210.74                1216.84                1268.53
 Force Cnst:      1.3667                 1.7167                 1.8446
 Red. Mass:       1.5824                 1.9678                 1.9456
 IR Intens:       29.005                130.619                 64.830
 Frequency:      1286.53                1295.17                1326.53
 Force Cnst:      5.8408                 3.5647                 7.7088
 Red. Mass:       5.9894                 3.6068                 7.4354
 IR Intens:      294.226                348.999                 17.297
 Frequency:      1418.18                1459.92                1468.83
 Force Cnst:      1.4632                 1.8632                 1.5535
 Red. Mass:       1.2347                 1.4837                 1.2221
 IR Intens:        4.261                 10.125                  9.724
 Frequency:      1474.31                1481.50                1482.27
 Force Cnst:      1.8786                 1.3622                 1.3527
 Red. Mass:       1.4669                 1.0534                 1.0449
 IR Intens:       57.165                  9.218                 10.770
 Frequency:      1488.55                1489.14                1495.22
 Force Cnst:      1.8213                 2.1453                 1.3803
 Red. Mass:       1.3951                 1.6420                 1.0479
 IR Intens:        8.733                  5.045                  7.343
 Frequency:      1497.78                1507.49                1616.19
 Force Cnst:      1.3925                 1.7520                10.3541
 Red. Mass:       1.0535                 1.3085                 6.7278
 IR Intens:       10.545                  3.254                  9.994
 Frequency:      1629.93                1766.40                1787.46
 Force Cnst:      9.0277                21.5736                22.3138
 Red. Mass:       5.7675                11.7353                11.8537
 IR Intens:        9.921                249.991                272.503
 Frequency:      3035.15                3050.15                3050.49
 Force Cnst:      5.6250                 5.6434                 5.6431
 Red. Mass:       1.0364                 1.0296                 1.0293
 IR Intens:       18.037                 32.465                 41.058
 Frequency:      3090.48                3111.59                3123.18
 Force Cnst:      6.1903                 6.2884                 6.3621
 Red. Mass:       1.1000                 1.1024                 1.1070
 IR Intens:        8.539                 15.315                 17.425
 Frequency:      3126.27                3156.31                3157.06
 Force Cnst:      6.3759                 6.4930                 6.4972
 Red. Mass:       1.1072                 1.1062                 1.1064
 IR Intens:       13.558                 14.206                 13.913
 Frequency:      3165.10                3184.61                3221.03
 Force Cnst:      6.4218                 6.5339                 6.6801
 Red. Mass:       1.0880                 1.0935                 1.0928
 IR Intens:        7.090                 15.405                  2.052

 STANDARD THERMODYNAMIC QUANTITIES AT   298.15 K  AND     1.00 ATM

   This Molecule has  0 Imaginary Frequencies
   Zero point vibrational energy:      133.290 kcal/mol

   Atom    1 Element C  Has Mass   12.00000
   Atom    2 Element C  Has Mass   12.00000
   Atom    3 Element C  Has Mass   12.00000
   Atom    4 Element C  Has Mass   12.00000
   Atom    5 Element O  Has Mass   15.99491
   Atom    6 Element O  Has Mass   15.99491
   Atom    7 Element O  Has Mass   15.99491
   Atom    8 Element O  Has Mass   15.99491
   Atom    9 Element C  Has Mass   12.00000
   Atom   10 Element C  Has Mass   12.00000
   Atom   11 Element C  Has Mass   12.00000
   Atom   12 Element C  Has Mass   12.00000
   Atom   13 Element C  Has Mass   12.00000
   Atom   14 Element C  Has Mass   12.00000
   Atom   15 Element H  Has Mass    1.00783
   Atom   16 Element H  Has Mass    1.00783
   Atom   17 Element H  Has Mass    1.00783
   Atom   18 Element H  Has Mass    1.00783
   Atom   19 Element H  Has Mass    1.00783
   Atom   20 Element H  Has Mass    1.00783
   Atom   21 Element H  Has Mass    1.00783
   Atom   22 Element H  Has Mass    1.00783
   Atom   23 Element H  Has Mass    1.00783
   Atom   24 Element C  Has Mass   12.00000
   Atom   25 Element H  Has Mass    1.00783
   Atom   26 Element H  Has Mass    1.00783
   Atom   27 Element H  Has Mass    1.00783
   Molecular Mass:   208.073600 amu
   Principal axes and moments of inertia in amu*Bohr^2:
                             1           2           3
    Eigenvalues --     2454.14303  3111.77812  5137.93783
          X               0.99986     0.01655    -0.00183
          Y              -0.01653     0.99982     0.00980
          Z               0.00199    -0.00977     0.99995
   Rotational Symmetry Number is   1
   The Molecule is an Asymmetric Top
   Translational Enthalpy:        0.889 kcal/mol
   Rotational Enthalpy:           0.889 kcal/mol
   Vibrational Enthalpy:        141.064 kcal/mol
   gas constant (RT):             0.592 kcal/mol
   Translational Entropy:        41.902  cal/mol.K
   Rotational Entropy:           32.039  cal/mol.K
   Vibrational Entropy:          51.965  cal/mol.K

   Total Enthalpy:              143.434 kcal/mol
   Total Entropy:               125.907  cal/mol.K

 Total job time:  5905.79s(wall), 30933.93s(cpu)
        *  Thank you very much for using Q-Chem.  Have a nice day.  *
