 Q-Chem 5.0, Q-Chem, Inc., Pleasanton, CA (2017)
 Q-Chem 5.0.0 for Intel X86 EM64T Linux

User input:
--------------------------------------------------------------
$molecule
0  1
C    0.711  -1.958   0.589
C   -0.299  -1.995   1.756
C    1.089  -0.603   0.022
C   -0.528  -0.668   2.454
O    2.255  -0.726  -0.682
O    0.458   0.435   0.138
O    0.672  -0.221   2.944
O   -1.603  -0.140   2.687
C    0.580   1.027   3.634
C    2.698   0.490  -1.286
C   -0.031  -2.720  -0.508
C   -0.144  -4.202  -0.153
C   -1.210  -4.188   0.944
C   -1.515  -2.680   1.086
O   -1.391  -2.278  -0.299
H    1.639  -2.461   0.888
H    0.068  -2.659   2.552
H   -0.050   0.928   4.523
H    1.951   0.864  -1.993
H   -0.511  -4.776  -1.011
H    0.804  -4.638   0.173
H   -2.087  -4.746   0.595
H   -0.869  -4.649   1.876
H    1.587   1.311   3.953
H    0.196   1.807   2.969
H    3.619   0.278  -1.837
H    2.918   1.240  -0.519
H    0.300  -2.531  -1.532
C   -2.908  -2.427   1.624
H   -3.642  -3.061   1.114
H   -2.968  -2.632   2.696
H   -3.235  -1.402   1.426
$end

$opt
CONSTRAINT
tors    2    1    3    5    162.3
tors    1    2    4    7    -60.0
ENDCONSTRAINT
$end

$rem
JOBTYPE                   OPT
METHOD                    B3LYP
DFT_D                     D3_OP
BASIS                     6-311++G(d,p)
GEOM_OPT_MAX_CYCLES       500
GEOM_OPT_TOL_DISPLACEMENT 1
SYMMETRY                  False
THRESH                    12
SCF_CONVERGENCE           8
MAX_SUB_FILE_NUM          128
MEM_STATIC                400
MEM_TOTAL                 4000
$end

--------------------------------------------------------------

   15    -805.1861129088      3.82E-09 Convergence criterion met
 Total energy in the final basis set = -805.1861129088
   12    -805.1928684815      9.67E-09 Convergence criterion met
 Total energy in the final basis set = -805.1928684815
   12    -805.1936988334      3.45E-09 Convergence criterion met
 Total energy in the final basis set = -805.1936988334
   11    -805.1939211273      8.65E-09 Convergence criterion met
 Total energy in the final basis set = -805.1939211273
   10    -805.1939777100      8.91E-09 Convergence criterion met
 Total energy in the final basis set = -805.1939777100
   10    -805.1940057410      4.00E-09 Convergence criterion met
 Total energy in the final basis set = -805.1940057410
   10    -805.1940308605      3.54E-09 Convergence criterion met
 Total energy in the final basis set = -805.1940308605
    9    -805.1940618571      8.79E-09 Convergence criterion met
 **  OPTIMIZATION CONVERGED  **
 Total job time:  1148.94s(wall), 23126.64s(cpu)
        *  Thank you very much for using Q-Chem.  Have a nice day.  *

User input: 2 of 2

nid01519 10.128.5
Q-Chem Developer Version! Running on 10.128.5.*
                  Welcome to Q-Chem
     A Quantum Leap Into The Future Of Chemistry

 Q-Chem 5.0, Q-Chem, Inc., Pleasanton, CA (2017)

 Yihan Shao,  Zhengting Gan,  E. Epifanovsky,  A. T. B. Gilbert,  M. Wormit,
 J. Kussmann,  A. W. Lange,  A. Behn,  Jia Deng,  Xintian Feng,  D. Ghosh,
 M. Goldey,  P. R. Horn,  L. D. Jacobson,  I. Kaliman,  T. Kus,  A. Landau,
 Jie Liu,  E. I. Proynov,  R. M. Richard,  R. P. Steele,  E. J. Sundstrom,
 H. L. Woodcock III,  P. M. Zimmerman,  D. Zuev,  B. Albrecht,  E. Alguire,
 S. A. Baeppler,  Z. Benda,  Y. A. Bernard,  E. J. Berquist,  K. B. Bravaya,
 D. Casanova,  Chun-Min Chang,  Yunqing Chen,  A. Chien,  K. D. Closser,
 M. P. Coons,  S. Dasgupta,  M. Diedenhofen,  Hainam Do,  R. G. Edgar,
 Po-Tung Fang,  S. Fatehi,  Qingguo Feng,  Qinghui Ge,  A. Ghysels,
 J. Gomes,  J. Gonthier,  A. Gunina,  M. W. D. Hanson-Heine,
 P. H. P. Harbach,  A. W. Hauser,  J. E. Herr,  E. G. Hohenstein,
 Z. C. Holden,  Kerwin Hui,  T.-C. Jagau,  Hyunjun Ji,  B. Kaduk,
 K. Khistyaev,  Jaehoon Kim,  P. Klunzinger,  K. Koh,  D. Kosenkov,
 T. Kowalczyk,  C. M. Krauter,  A. Kunitsa,  Ka Un Lao,  A. Laurent,
 K. V. Lawler,  Joonho Lee,  D. Lefrancois,  S. Lehtola,  D. S. Levine,
 Yi-Pei Li,  You-Sheng Lin,  Fenglai Liu,  E. Livshits,  A. Luenser,
 P. Manohar,  E. Mansoor,  S. F. Manzer,  Shan-Ping Mao,  Yuezhi Mao,
 N. Mardirossian,  A. V. Marenich,  L. A. Martinez-Martinez,  S. A. Maurer,
 N. J. Mayhall,  S. C. McKenzie,  J.-M. Mewes,  A. F. Morrison,  K. Nanda,
 T. S. Nguyen-Beck,  R. Olivares-Amaya,  J. A. Parkhill,  T. M. Perrine,
 F. Plasser,  S. Prager,  A. Prociuk,  D. R. Rehn,  F. Rob,  M. Schneider,
 N. Sergueev,  S. M. Sharada,  S. Sharma,  D. W. Small,  T. Stauch,
 T. Stein,  Yu-Chuan Su,  A. J. W. Thom,  T. Tsuchimochi,  L. Vogt,
 O. Vydrov,  M. A. Watson,  J. Wenzel,  M. de Wergifosse,  T. A. Wesolowski,
 A. White,  J. Witte,  A. Yamada,  Jun Yang,  K. Yao,  S. Yeganeh,
 S. R. Yost,  Zhi-Qiang You,  A. Zech,  Igor Ying Zhang,  Xing Zhang,
 Yan Zhao,  Ying Zhu,  B. R. Brooks,  G. K. L. Chan,  C. J. Cramer,
 M. S. Gordon,  W. J. Hehre,  A. Klamt,  M. W. Schmidt,  C. D. Sherrill,
 D. G. Truhlar,  A. Aspuru-Guzik,  R. Baer,  A. T. Bell,  N. A. Besley,
 Jeng-Da Chai,  A. Dreuw,  B. D. Dunietz,  T. R. Furlani,  Chao-Ping Hsu,
 Yousung Jung,  Jing Kong,  D. S. Lambrecht,  WanZhen Liang,  C. Ochsenfeld,
 V. A. Rassolov,  L. V. Slipchenko,  J. E. Subotnik,  T. Van Voorhis,
 J. M. Herbert,  A. I. Krylov,  P. M. W. Gill,  M. Head-Gordon

 Contributors to earlier versions of Q-Chem not listed above:
 R. D. Adamson,  B. Austin,  J. Baker,  G. J. O. Beran,  K. Brandhorst,
 S. T. Brown,  E. F. C. Byrd,  A. K. Chakraborty,  C.-L. Cheng,
 Siu Hung Chien,  D. M. Chipman,  D. L. Crittenden,  H. Dachsel,
 R. A. DiStasio Jr.,  R. J. Doerksen,  A. D. Dutoi,  L. Fusti-Molnar,
 W. A. Goddard III,  A. Golubeva-Zadorozhnaya,  S. R. Gwaltney,  G. Hawkins,
 A. Heyden,  S. Hirata,  G. Kedziora,  F. J. Keil,  C. Kelley,  Jihan Kim,
 R. A. King,  R. Z. Khaliullin,  P. P. Korambath,  W. Kurlancheek,
 A. M. Lee,  M. S. Lee,  S. V. Levchenko,  Ching Yeh Lin,  D. Liotard,
 R. C. Lochan,  I. Lotan,  P. E. Maslen,  N. Nair,  D. P. O'Neill,
 D. Neuhauser,  E. Neuscamman,  C. M. Oana,  R. Olson,  B. Peters,
 R. Peverati,  P. A. Pieniazek,  Y. M. Rhee,  J. Ritchie,  M. A. Rohrdanz,
 E. Rosta,  N. J. Russ,  H. F. Schaefer III,  N. E. Schultz,  N. Shenvi,
 A. C. Simmonett,  A. Sodt,  D. Stuck,  K. S. Thanthiriwatte,  V. Vanovschi,
 Tao Wang,  A. Warshel,  C. F. Williams,  Q. Wu,  X. Xu,  W. Zhang

 Please cite Q-Chem as follows:
 Y. Shao et al., Mol. Phys. 113, 184-215 (2015)
 DOI: 10.1080/00268976.2014.952696

 Q-Chem 5.0.0 for Intel X86 EM64T Linux

 Parts of Q-Chem use Armadillo 5.200.1 (Boston Tea Smuggler).
 http://arma.sourceforge.net/

 Q-Chem begins on Tue Oct  3 18:15:28 2017

Host: nid01519
0

     Scratch files written to /global/cscratch1/sd/junteng/scratch/14/opt_1101.save//
The previous job contains 0 fragments, simply inherited here

Checking the input file for inconsistencies... 	...done.

--------------------------------------------------------------
User input:
--------------------------------------------------------------

$molecule
   read
$end

$rem
JOBTYPE                   OPT
METHOD                    B3LYP
DFT_D                     D3_OP
BASIS                     6-311++G(d,p)
GEOM_OPT_MAX_CYCLES       500
GEOM_OPT_TOL_DISPLACEMENT 1
SYMMETRY                  False
THRESH                    12
SCF_CONVERGENCE           8
MAX_SUB_FILE_NUM          128
MEM_STATIC                400
MEM_TOTAL                 4000
$end
--------------------------------------------------------------

   11    -805.1940430493      9.85E-09 Convergence criterion met
 Total energy in the final basis set = -805.1940430493
   11    -805.1940967925      5.32E-09 Convergence criterion met
 Total energy in the final basis set = -805.1940967925
   11    -805.1940701048      6.07E-09 Convergence criterion met
 Total energy in the final basis set = -805.1940701048
   10    -805.1940957175      9.58E-09 Convergence criterion met
 Total energy in the final basis set = -805.1940957175
   11    -805.1940933001      4.88E-09 Convergence criterion met
 Total energy in the final basis set = -805.1940933001
   10    -805.1940979542      7.10E-09 Convergence criterion met
 Total energy in the final basis set = -805.1940979542

             Standard Nuclear Orientation (Angstroms)
    I     Atom           X                Y                Z
 ----------------------------------------------------------------
    1      C      -0.0507027545     0.8171273157     0.6413540822
    2      C       0.6594081062    -0.5750353464     0.5907910115
    3      C      -1.3340767951     0.9247318445    -0.1539657786
    4      C      -0.2320024742    -1.7209696284     0.1373250896
    5      O      -2.0522132719     1.9894276841     0.2723854057
    6      O      -1.6744020406     0.2220703032    -1.0716338003
    7      O      -1.2926836715    -1.8044709396     0.9791795288
    8      O      -0.0372316161    -2.5021656658    -0.7552662139
    9      C      -2.2933653993    -2.7759775214     0.6254495412
   10      C      -3.2678821909     2.2569225649    -0.4523373404
   11      C       1.0325079138     1.7092375268    -0.0380979734
   12      C       2.2402506220     1.8629309994     0.9118643812
   13      C       2.9217125743     0.4763684363     0.7426282324
   14      C       1.9541101940    -0.2463668363    -0.2364944397
   15      O       1.5211889096     0.8554622702    -1.0690513488
   16      H      -0.2558290202     1.1441631111     1.6598254871
   17      H       0.9422542978    -0.8471530113     1.6115584574
   18      H      -1.8600340091    -3.7758755749     0.5783235714
   19      H      -3.0505690724     2.4535355244    -1.5032672160
   20      H       2.8885812390     2.6722971748     0.5732051151
   21      H       1.9365929802     2.0791684800     1.9382082669
   22      H       3.9024502014     0.5736186639     0.2740096618
   23      H       3.0489891212    -0.0639841013     1.6826446975
   24      H      -3.0443320034    -2.7198293752     1.4109012348
   25      H      -2.7281024572    -2.5215930386    -0.3425208783
   26      H      -3.7010256402     3.1349402489     0.0216906582
   27      H      -3.9479955310     1.4068668417    -0.3802614452
   28      H       0.6489379656     2.6330026366    -0.4666015618
   29      C       2.5957467858    -1.3256219363    -1.0783681662
   30      H       3.4856671496    -0.9161493781    -1.5625788294
   31      H       2.8991551086    -2.1669289077    -0.4500282544
   32      H       1.9075285013    -1.6990814279    -1.8318618422
 ----------------------------------------------------------------

    9    -805.1940969884      8.84E-09 Convergence criterion met
 Total energy in the final basis set = -805.1940969884
 Final energy is   -805.194096988436
 **  OPTIMIZATION CONVERGED  **

                    Orbital Energies (a.u.)
 --------------------------------------------------------------

 Alpha MOs
 -- Occupied --
-19.177 -19.165 -19.128 -19.119 -19.110 -10.308 -10.303 -10.238
-10.237 -10.232 -10.222 -10.205 -10.203 -10.181 -10.177 -10.154
 -1.118  -1.107  -1.062  -1.031  -1.022  -0.831  -0.793  -0.780
 -0.748  -0.723  -0.686  -0.650  -0.603  -0.594  -0.569  -0.552
 -0.532  -0.510  -0.504  -0.491  -0.489  -0.482  -0.477  -0.471
 -0.458  -0.436  -0.425  -0.420  -0.417  -0.407  -0.394  -0.377
 -0.373  -0.369  -0.365  -0.359  -0.359  -0.349  -0.335  -0.328
 -0.319  -0.307  -0.290  -0.275  -0.271

          Ground-State Mulliken Net Atomic Charges

     Atom                 Charge (a.u.)
  ----------------------------------------
      1 C                     0.006229
      2 C                     0.313191
      3 C                    -0.888650
      4 C                    -0.439633
      5 O                    -0.016610
      6 O                    -0.187850
      7 O                    -0.020750
      8 O                    -0.189660
      9 C                    -0.178388
     10 C                    -0.233546
     11 C                     0.467441
     12 C                    -0.449926
     13 C                    -0.473404
     14 C                    -0.281287
     15 O                    -0.051227
     16 H                     0.287958
     17 H                     0.251563
     18 H                     0.165150
     19 H                     0.184836
     20 H                     0.184165
     21 H                     0.121823
     22 H                     0.174021
     23 H                     0.143017
     24 H                     0.149255
     25 H                     0.188077
     26 H                     0.150746
     27 H                     0.171000
     28 H                     0.278661
     29 C                    -0.336527
     30 H                     0.143580
     31 H                     0.158021
     32 H                     0.208724
  ----------------------------------------
  Sum of atomic charges =     0.000000

                    Cartesian Multipole Moments
 -----------------------------------------------------------------
    Charge (ESU x 10^10)
                 0.0000
    Dipole Moment (Debye)
         X      -0.7824      Y       1.9560      Z       3.4158
       Tot       4.0132
    Quadrupole Moments (Debye-Ang)
        XX     -82.9334     XY      -0.9628     YY     -91.6391
        XZ       2.2829     YZ      -4.4238     ZZ    -100.2124

 Total job time:  787.23s(wall), 15990.13s(cpu)
        *  Thank you very much for using Q-Chem.  Have a nice day.  *
