 Q-Chem 4.4, Q-Chem, Inc., Pleasanton, CA (2016)
 Q-Chem 4.3.0 for Intel X86 EM64T Linux

User input:
--------------------------------------------------------------
$molecule
0  1
C    0.304  -2.425   0.241
C   -0.187  -2.670   1.539
C    0.664  -1.037  -0.131
C   -0.223  -1.586   2.547
O    1.892  -1.027  -0.706
O   -0.050  -0.071   0.073
O    1.036  -1.102   2.698
O   -1.208  -1.281   3.197
C    1.131  -0.051   3.659
C    2.346   0.277  -1.069
C    0.337  -3.468  -0.713
C   -0.078  -4.750  -0.324
C   -0.556  -4.992   0.965
C   -0.619  -3.961   1.912
H    0.496   0.792   3.371
H    1.683   0.717  -1.820
H   -0.885  -5.997   1.223
H    0.862  -0.417   4.655
H    2.169   0.291   3.685
H    3.345   0.180  -1.503
H    2.413   0.921  -0.186
H   -0.050  -5.576  -1.034
C   -1.153  -4.262   3.286
C    0.800  -3.263  -2.130
H    0.377  -2.346  -2.553
H    0.472  -4.085  -2.776
H    1.893  -3.221  -2.170
H   -2.134  -3.796   3.422
H   -0.464  -3.904   4.057
H   -1.273  -5.340   3.441
$end

$opt
CONSTRAINT
tors    2    1    3    5    135.2
tors    1    2    4    7    -57.3
ENDCONSTRAINT
$end

$rem
JOBTYPE                   OPT
METHOD                    B3LYP
DFT_D                     EMPIRICAL_GRIMME3
BASIS                     6-31G*
GEOM_OPT_MAX_CYCLES       500
GEOM_OPT_TOL_GRADIENT     5
GEOM_OPT_TOL_DISPLACEMENT 5
GEOM_OPT_TOL_ENERGY       5
SYMMETRY                  False
THRESH                    12
SCF_CONVERGENCE           8
MAX_SUB_FILE_NUM          128
MEM_STATIC                400
MEM_TOTAL                 4000
$end

--------------------------------------------------------------

   16    -766.6494883223      2.05E-09 Convergence criterion met
 Total energy in the final basis set = -766.6494883223
   13    -766.6544363749      4.14E-09 Convergence criterion met
 Total energy in the final basis set = -766.6544363749
   12    -766.6549891210      4.62E-09 Convergence criterion met
 Total energy in the final basis set = -766.6549891210
   12    -766.6550993687      3.72E-09 Convergence criterion met
 Total energy in the final basis set = -766.6550993687
   11    -766.6551396300      5.30E-09 Convergence criterion met
 Total energy in the final basis set = -766.6551396300
   10    -766.6551626864      6.01E-09 Convergence criterion met
 Total energy in the final basis set = -766.6551626864
   10    -766.6551771617      3.85E-09 Convergence criterion met
 Total energy in the final basis set = -766.6551771617
   10    -766.6552031744      5.74E-09 Convergence criterion met
 **  OPTIMIZATION CONVERGED  **
 Total job time:  308.18s(wall), 5390.80s(cpu)
        *  Thank you very much for using Q-Chem.  Have a nice day.  *

User input: 2 of 2

                  Welcome to Q-Chem
     A Quantum Leap Into The Future Of Chemistry

 Q-Chem 4.4, Q-Chem, Inc., Pleasanton, CA (2016)

 Y. Shao,  Z. Gan,  E. Epifanovsky,  A. T. B. Gilbert,  M. Wormit,
 J. Kussmann,  A. W. Lange,  A. Behn,  J. Deng,  X. Feng,  D. Ghosh,
 M. Goldey,  P. R. Horn,  L. D. Jacobson,  I. Kaliman,  R. Z. Khaliullin,
 T. Kus,  A. Landau,  J. Liu,  E. I. Proynov,  Y. M. Rhee,  R. M. Richard,
 M. A. Rohrdanz,  R. P. Steele,  E. J. Sundstrom,  H. L. Woodcock III,
 P. M. Zimmerman,  D. Zuev,  B. Albrecht,  E. Alguire,  B. Austin,
 S. A. Baeppler,  G. J. O. Beran,  Y. A. Bernard,  E. Berquist,
 K. Brandhorst,  K. B. Bravaya,  S. T. Brown,  D. Casanova,  C.-M. Chang,
 Y. Chen,  S. H. Chien,  K. D. Closser,  M. P. Coons,  D. L. Crittenden,
 S. Dasgupta,  M. Diedenhofen,  R. A. DiStasio Jr.,  H. Do,  A. D. Dutoi,
 R. G. Edgar,  P.-T. Fang,  S. Fatehi,  Q. Feng,  L. Fusti-Molnar,
 A. Ghysels,  A. Golubeva-Zadorozhnaya,  J. Gomes,  A. Gunina,
 M. W. D. Hanson-Heine,  P. H. P. Harbach,  A. W. Hauser,  E. G. Hohenstein,
 Z. C. Holden,  K. Hui,  T.-C. Jagau,  H. Ji,  B. Kaduk,  K. Khistyaev,
 Jaehoon Kim,  Jihan Kim,  R. A. King,  P. Klunzinger,  D. Kosenkov,
 T. Kowalczyk,  C. M. Krauter,  A. Kunitsa,  K. U. Lao,  A. Laurent,
 K. V. Lawler,  D. Lefrancois,  S. Lehtola,  S. V. Levchenko,  C. Y. Lin,
 Y.-S. Lin,  F. Liu,  E. Livshits,  R. C. Lochan,  A. Luenser,  P. Manohar,
 S. F. Manzer,  S.-P. Mao,  Y. Mao,  N. Mardirossian,  A. V. Marenich,
 L. A. Martinez-Martinez,  S. A. Maurer,  N. J. Mayhall,  J.-M. Mewes,
 A. F. Morrison,  K. Nanda,  C. M. Oana,  R. Olivares-Amaya,  D. P. O'Neill,
 J. A. Parkhill,  T. M. Perrine,  R. Peverati,  P. A. Pieniazek,  F. Plasser,
 A. Prociuk,  D. R. Rehn,  E. Rosta,  N. J. Russ,  N. Sergueev,
 S. M. Sharada,  S. Sharma,  D. W. Small,  A. Sodt,  T. Stauch,  T. Stein,
 D. Stuck,  Y.-C. Su,  A. J. W. Thom,  T. Tsuchimochi,  L. Vogt,  O. Vydrov,
 T. Wang,  M. A. Watson,  J. Wenzel,  A. White,  C. F. Williams,
 V. Vanovschi,  S. Yeganeh,  S. R. Yost,  Z.-Q. You,  I. Y. Zhang,  X. Zhang,
 Y. Zhao,  B. R. Brooks,  G. K. L. Chan,  D. M. Chipman,  C. J. Cramer,
 W. A. Goddard III,  M. S. Gordon,  W. J. Hehre,  A. Klamt,
 H. F. Schaefer III,  M. W. Schmidt,  C. D. Sherrill,  D. G. Truhlar,
 A. Warshel,  X. Xu,  A. Aspuru-Guzik,  R. Baer,  A. T. Bell,  N. A. Besley,
 J.-D. Chai,  A. Dreuw,  B. D. Dunietz,  T. R. Furlani,  S. R. Gwaltney,
 C.-P. Hsu,  Y. Jung,  J. Kong,  D. S. Lambrecht,  W. Liang,  C. Ochsenfeld,
 V. A. Rassolov,  L. V. Slipchenko,  J. E. Subotnik,  T. Van Voorhis,
 J. M. Herbert,  A. I. Krylov,  P. M. W. Gill,  M. Head-Gordon

 Contributors to earlier versions of Q-Chem not listed above:
 R. D. Adamson,  J. Baker,  E. F. C. Byrd,  A. K. Chakraborty,  C.-L. Cheng,
 H. Dachsel,  R. J. Doerksen,  G. Hawkins,  A. Heyden,  S. Hirata,
 G. Kedziora,  F. J. Keil,  C. Kelley,  P. P. Korambath,  W. Kurlancheek,
 A. M. Lee,  M. S. Lee,  D. Liotard,  I. Lotan,  P. E. Maslen,  N. Nair,
 D. Neuhauser,  R. Olson,  B. Peters,  J. Ritchie,  N. E. Schultz,
 N. Shenvi,  A. C. Simmonett,  K. S. Thanthiriwatte,  Q. Wu,  W. Zhang

 Please cite Q-Chem as follows:
 Y. Shao et al., Mol. Phys. 113, 184-215 (2015)
 DOI: 10.1080/00268976.2014.952696

 Q-Chem 4.3.0 for Intel X86 EM64T Linux

 Parts of Q-Chem use Armadillo 5.200.1 (Boston Tea Smuggler).
 http://arma.sourceforge.net/

 Q-Chem begins on Mon Oct  2 23:46:29 2017

Host: nid06079
0

     Scratch files written to /global/cscratch1/sd/junteng/scratch/18/opt_11n11.save//

Checking the input file for inconsistencies... 	...done.

--------------------------------------------------------------
User input:
--------------------------------------------------------------

$molecule
   read
$end

$rem
JOBTYPE                   OPT
METHOD                    B3LYP
DFT_D                     EMPIRICAL_GRIMME3
BASIS                     6-31G*
GEOM_OPT_MAX_CYCLES       500
GEOM_OPT_TOL_GRADIENT     5
GEOM_OPT_TOL_DISPLACEMENT 5
GEOM_OPT_TOL_ENERGY       5
SYMMETRY                  False
THRESH                    12
SCF_CONVERGENCE           8
MAX_SUB_FILE_NUM          128
MEM_STATIC                400
MEM_TOTAL                 4000
$end
--------------------------------------------------------------

    9    -766.6553021646      7.35E-09 Convergence criterion met
 Total energy in the final basis set = -766.6553021646
    9    -766.6553053401      9.95E-09 Convergence criterion met
 Total energy in the final basis set = -766.6553053401
    9    -766.6553067109      4.95E-09 Convergence criterion met
 Total energy in the final basis set = -766.6553067109
    8    -766.6553072114      4.33E-09 Convergence criterion met
 Total energy in the final basis set = -766.6553072114
    8    -766.6553074110      4.47E-09 Convergence criterion met
 Total energy in the final basis set = -766.6553074110
    7    -766.6553075053      7.85E-09 Convergence criterion met
 Total energy in the final basis set = -766.6553075053

             Standard Nuclear Orientation (Angstroms)
    I     Atom           X                Y                Z
 ----------------------------------------------------------------
    1      C       0.3495165043    -0.6730392695    -0.0747700061
    2      C      -0.9614094426    -0.1560952885    -0.0418463576
    3      C       1.4757832262     0.2800496902    -0.3405480922
    4      C      -1.1995698817     1.3209185573    -0.1438760918
    5      O       2.5369691567     0.0594701100     0.4634113585
    6      O       1.4544931999     1.1480809282    -1.1893832159
    7      O      -0.4580606470     2.0027860941     0.7565323321
    8      O      -1.9924739230     1.8436399686    -0.8971283069
    9      C      -0.4998064093     3.4322840232     0.6150091037
   10      C       3.6646309400     0.9194138523     0.2287582677
   11      C       0.5777134220    -2.0602376869     0.0232898901
   12      C      -0.5385970974    -2.8900490747     0.1651217628
   13      C      -1.8309177702    -2.3773097845     0.2014920214
   14      C      -2.0750381294    -1.0060571066     0.0888613334
   15      H      -0.0591883279     3.7194825157    -0.3441319702
   16      H       4.0322442760     0.8006876504    -0.7944945629
   17      H      -2.6722344417    -3.0574157043     0.3107297468
   18      H      -1.5296470347     3.7952789853     0.6640948775
   19      H       0.0900448454     3.8261898856     1.4434393866
   20      H       4.4219255941     0.6107313644     0.9499088174
   21      H       3.3842225522     1.9648587073     0.3835068248
   22      H      -0.3910497254    -3.9648685336     0.2369454492
   23      C      -3.4931450080    -0.4842128154     0.1088312783
   24      C       1.9545644771    -2.6821784624    -0.0508338001
   25      H       2.5345276068    -2.2886226201    -0.8918869671
   26      H       1.8751568379    -3.7667013044    -0.1738263706
   27      H       2.5331367452    -2.4797322798     0.8557703269
   28      H      -3.7584644532    -0.0407907659    -0.8551332997
   29      H      -3.6278922256     0.3008841518     0.8609142561
   30      H      -4.1965817008    -1.2924099608     0.3316286497
 ----------------------------------------------------------------

    6    -766.6553074678      5.40E-09 Convergence criterion met
 Total energy in the final basis set = -766.6553074678
 Final energy is   -766.655307467818
 **  OPTIMIZATION CONVERGED  **

                    Orbital Energies (a.u.)
 --------------------------------------------------------------

 Alpha MOs
 -- Occupied --
-19.196 -19.188 -19.137 -19.132 -10.318 -10.312 -10.244 -10.234
-10.212 -10.211 -10.210 -10.208 -10.197 -10.196 -10.186 -10.180
 -1.106  -1.097  -1.015  -1.009  -0.873  -0.798  -0.780  -0.737
 -0.723  -0.715  -0.665  -0.638  -0.609  -0.566  -0.556  -0.517
 -0.508  -0.500  -0.479  -0.474  -0.466  -0.463  -0.455  -0.430
 -0.426  -0.417  -0.414  -0.406  -0.402  -0.394  -0.382  -0.380
 -0.370  -0.360  -0.347  -0.346  -0.345  -0.306  -0.293  -0.282
 -0.270  -0.253  -0.242

          Ground-State Mulliken Net Atomic Charges

     Atom                 Charge (a.u.)
  ----------------------------------------
      1 C                     0.037758
      2 C                     0.032633
      3 C                     0.532673
      4 C                     0.536578
      5 O                    -0.444670
      6 O                    -0.487330
      7 O                    -0.448636
      8 O                    -0.479627
      9 C                    -0.221151
     10 C                    -0.217933
     11 C                     0.138706
     12 C                    -0.178334
     13 C                    -0.178308
     14 C                     0.138522
     15 H                     0.180126
     16 H                     0.170996
     17 H                     0.131794
     18 H                     0.171270
     19 H                     0.159900
     20 H                     0.165138
     21 H                     0.172022
     22 H                     0.130600
     23 C                    -0.523399
     24 C                    -0.518340
     25 H                     0.161802
     26 H                     0.151544
     27 H                     0.179316
     28 H                     0.195283
     29 H                     0.163687
     30 H                     0.147378
  ----------------------------------------
  Sum of atomic charges =    -0.000000

                    Cartesian Multipole Moments
 -----------------------------------------------------------------
    Charge (ESU x 10^10)
                -0.0000
    Dipole Moment (Debye)
         X       1.8181      Y      -1.2853      Z       2.2158
       Tot       3.1412
    Quadrupole Moments (Debye-Ang)
        XX     -81.7921     XY       4.6901     YY     -81.4879
        XZ      -1.9133     YZ       5.7820     ZZ     -98.1660

 Total job time:  219.67s(wall), 4850.25s(cpu)
        *  Thank you very much for using Q-Chem.  Have a nice day.  *
