 Q-Chem 5.0, Q-Chem, Inc., Pleasanton, CA (2017)
 Q-Chem 5.0.0 for Intel X86 EM64T Linux

User input:
--------------------------------------------------------------
$molecule
0  1
C    0.469  -2.369   0.246
C   -0.100  -2.666   1.497
C    0.820  -0.970  -0.128
C   -0.250  -1.617   2.525
O    1.710  -0.973  -1.154
O    0.353   0.027   0.395
O    0.994  -1.244   2.918
O   -1.315  -1.271   3.005
C    0.990  -0.231   3.923
C    2.104   0.331  -1.586
C    0.633  -3.406  -0.690
C    0.237  -4.708  -0.384
C   -0.335  -4.993   0.854
C   -0.510  -3.982   1.810
H    0.475   0.666   3.564
H    1.246   0.871  -1.997
H   -0.645  -6.015   1.070
H    0.524  -0.605   4.840
H    2.028   0.031   4.144
H    2.851   0.214  -2.376
H    2.557   0.890  -0.761
H    0.365  -5.501  -1.118
H    1.053  -3.209  -1.674
C   -1.128  -4.326   3.139
H   -2.093  -3.824   3.253
H   -0.462  -4.036   3.958
H   -1.304  -5.403   3.231
$end

$opt
CONSTRAINT
tors    2    1    3    5    168.6
tors    1    2    4    7    -67.3
ENDCONSTRAINT
$end

$rem
JOBTYPE                   OPT
METHOD                    B3LYP
DFT_D                     D3_OP
BASIS                     STO-3G
GEOM_OPT_MAX_CYCLES       500
SYMMETRY                  False
THRESH                    12
SCF_CONVERGENCE           8
MAX_SUB_FILE_NUM          128
MEM_STATIC                400
MEM_TOTAL                 4000
$end

--------------------------------------------------------------

   15    -717.9257267684      8.11E-09 Convergence criterion met
 Total energy in the final basis set = -717.9257267684
   14    -717.9516734463      6.26E-09 Convergence criterion met
 Total energy in the final basis set = -717.9516734463
   14    -717.9543417881      2.49E-09 Convergence criterion met
 Total energy in the final basis set = -717.9543417881
   12    -717.9546005730      8.10E-09 Convergence criterion met
 Total energy in the final basis set = -717.9546005730
   11    -717.9546359624      6.38E-09 Convergence criterion met
 Total energy in the final basis set = -717.9546359624
   11    -717.9546587628      3.82E-09 Convergence criterion met
 Total energy in the final basis set = -717.9546587628
   11    -717.9546681497      2.25E-09 Convergence criterion met
 Total energy in the final basis set = -717.9546681497
   11    -717.9546856819      1.55E-09 Convergence criterion met
 **  OPTIMIZATION CONVERGED  **
 Total job time:  35.33s(wall), 827.63s(cpu)
        *  Thank you very much for using Q-Chem.  Have a nice day.  *

User input: 2 of 3

nid00960 10.128.3
Q-Chem Developer Version! Running on 10.128.3.*
                  Welcome to Q-Chem
     A Quantum Leap Into The Future Of Chemistry

 Q-Chem 5.0, Q-Chem, Inc., Pleasanton, CA (2017)

 Yihan Shao,  Zhengting Gan,  E. Epifanovsky,  A. T. B. Gilbert,  M. Wormit,
 J. Kussmann,  A. W. Lange,  A. Behn,  Jia Deng,  Xintian Feng,  D. Ghosh,
 M. Goldey,  P. R. Horn,  L. D. Jacobson,  I. Kaliman,  T. Kus,  A. Landau,
 Jie Liu,  E. I. Proynov,  R. M. Richard,  R. P. Steele,  E. J. Sundstrom,
 H. L. Woodcock III,  P. M. Zimmerman,  D. Zuev,  B. Albrecht,  E. Alguire,
 S. A. Baeppler,  Z. Benda,  Y. A. Bernard,  E. J. Berquist,  K. B. Bravaya,
 D. Casanova,  Chun-Min Chang,  Yunqing Chen,  A. Chien,  K. D. Closser,
 M. P. Coons,  S. Dasgupta,  M. Diedenhofen,  Hainam Do,  R. G. Edgar,
 Po-Tung Fang,  S. Fatehi,  Qingguo Feng,  Qinghui Ge,  A. Ghysels,
 J. Gomes,  J. Gonthier,  A. Gunina,  M. W. D. Hanson-Heine,
 P. H. P. Harbach,  A. W. Hauser,  J. E. Herr,  E. G. Hohenstein,
 Z. C. Holden,  Kerwin Hui,  T.-C. Jagau,  Hyunjun Ji,  B. Kaduk,
 K. Khistyaev,  Jaehoon Kim,  P. Klunzinger,  K. Koh,  D. Kosenkov,
 T. Kowalczyk,  C. M. Krauter,  A. Kunitsa,  Ka Un Lao,  A. Laurent,
 K. V. Lawler,  Joonho Lee,  D. Lefrancois,  S. Lehtola,  D. S. Levine,
 Yi-Pei Li,  You-Sheng Lin,  Fenglai Liu,  E. Livshits,  A. Luenser,
 P. Manohar,  E. Mansoor,  S. F. Manzer,  Shan-Ping Mao,  Yuezhi Mao,
 N. Mardirossian,  A. V. Marenich,  L. A. Martinez-Martinez,  S. A. Maurer,
 N. J. Mayhall,  S. C. McKenzie,  J.-M. Mewes,  A. F. Morrison,  K. Nanda,
 T. S. Nguyen-Beck,  R. Olivares-Amaya,  J. A. Parkhill,  T. M. Perrine,
 F. Plasser,  S. Prager,  A. Prociuk,  D. R. Rehn,  F. Rob,  M. Schneider,
 N. Sergueev,  S. M. Sharada,  S. Sharma,  D. W. Small,  T. Stauch,
 T. Stein,  Yu-Chuan Su,  A. J. W. Thom,  T. Tsuchimochi,  L. Vogt,
 O. Vydrov,  M. A. Watson,  J. Wenzel,  M. de Wergifosse,  T. A. Wesolowski,
 A. White,  J. Witte,  A. Yamada,  Jun Yang,  K. Yao,  S. Yeganeh,
 S. R. Yost,  Zhi-Qiang You,  A. Zech,  Igor Ying Zhang,  Xing Zhang,
 Yan Zhao,  Ying Zhu,  B. R. Brooks,  G. K. L. Chan,  C. J. Cramer,
 M. S. Gordon,  W. J. Hehre,  A. Klamt,  M. W. Schmidt,  C. D. Sherrill,
 D. G. Truhlar,  A. Aspuru-Guzik,  R. Baer,  A. T. Bell,  N. A. Besley,
 Jeng-Da Chai,  A. Dreuw,  B. D. Dunietz,  T. R. Furlani,  Chao-Ping Hsu,
 Yousung Jung,  Jing Kong,  D. S. Lambrecht,  WanZhen Liang,  C. Ochsenfeld,
 V. A. Rassolov,  L. V. Slipchenko,  J. E. Subotnik,  T. Van Voorhis,
 J. M. Herbert,  A. I. Krylov,  P. M. W. Gill,  M. Head-Gordon

 Contributors to earlier versions of Q-Chem not listed above:
 R. D. Adamson,  B. Austin,  J. Baker,  G. J. O. Beran,  K. Brandhorst,
 S. T. Brown,  E. F. C. Byrd,  A. K. Chakraborty,  C.-L. Cheng,
 Siu Hung Chien,  D. M. Chipman,  D. L. Crittenden,  H. Dachsel,
 R. A. DiStasio Jr.,  R. J. Doerksen,  A. D. Dutoi,  L. Fusti-Molnar,
 W. A. Goddard III,  A. Golubeva-Zadorozhnaya,  S. R. Gwaltney,  G. Hawkins,
 A. Heyden,  S. Hirata,  G. Kedziora,  F. J. Keil,  C. Kelley,  Jihan Kim,
 R. A. King,  R. Z. Khaliullin,  P. P. Korambath,  W. Kurlancheek,
 A. M. Lee,  M. S. Lee,  S. V. Levchenko,  Ching Yeh Lin,  D. Liotard,
 R. C. Lochan,  I. Lotan,  P. E. Maslen,  N. Nair,  D. P. O'Neill,
 D. Neuhauser,  E. Neuscamman,  C. M. Oana,  R. Olson,  B. Peters,
 R. Peverati,  P. A. Pieniazek,  Y. M. Rhee,  J. Ritchie,  M. A. Rohrdanz,
 E. Rosta,  N. J. Russ,  H. F. Schaefer III,  N. E. Schultz,  N. Shenvi,
 A. C. Simmonett,  A. Sodt,  D. Stuck,  K. S. Thanthiriwatte,  V. Vanovschi,
 Tao Wang,  A. Warshel,  C. F. Williams,  Q. Wu,  X. Xu,  W. Zhang

 Please cite Q-Chem as follows:
 Y. Shao et al., Mol. Phys. 113, 184-215 (2015)
 DOI: 10.1080/00268976.2014.952696

 Q-Chem 5.0.0 for Intel X86 EM64T Linux

 Parts of Q-Chem use Armadillo 5.200.1 (Boston Tea Smuggler).
 http://arma.sourceforge.net/

 Q-Chem begins on Wed Oct  4 18:05:02 2017

Host: nid00960
0

     Scratch files written to /global/cscratch1/sd/junteng/scratch/17/opt_11n01+o.save//
The previous job contains 0 fragments, simply inherited here

Checking the input file for inconsistencies... 	...done.

--------------------------------------------------------------
User input:
--------------------------------------------------------------

$molecule
   read
$end

$rem
JOBTYPE                   OPT
METHOD                    B3LYP
DFT_D                     D3_OP
BASIS                     6-311++G(d,p)
GEOM_OPT_MAX_CYCLES       500
GEOM_OPT_TOL_GRADIENT     1
GEOM_OPT_TOL_DISPLACEMENT 1
GEOM_OPT_TOL_ENERGY       1
SYMMETRY                  False
THRESH                    12
SCF_CONVERGENCE           8
MAX_SUB_FILE_NUM          128
MEM_STATIC                400
MEM_TOTAL                 4000
$end

--------------------------------------------------------------

    9    -727.5472659108      4.85E-09 Convergence criterion met
 Total energy in the final basis set = -727.5472659108
    8    -727.5472658220      4.70E-09 Convergence criterion met
 Total energy in the final basis set = -727.5472658220
    7    -727.5472658645      4.95E-09 Convergence criterion met
 Total energy in the final basis set = -727.5472658645
    7    -727.5472658681      3.16E-09 Convergence criterion met
 Total energy in the final basis set = -727.5472658681
    6    -727.5472658880      7.46E-09 Convergence criterion met
 Total energy in the final basis set = -727.5472658880
    6    -727.5472658886      5.02E-09 Convergence criterion met
 Total energy in the final basis set = -727.5472658886
 Final energy is   -727.547265888640
        *  Thank you very much for using Q-Chem.  Have a nice day.  *
 Q-Chem 5.0, Q-Chem, Inc., Pleasanton, CA (2017)
 Q-Chem 5.0.0 for Intel X86 EM64T Linux

             Standard Nuclear Orientation (Angstroms)
    I     Atom           X                Y                Z
 ----------------------------------------------------------------
    1      C       0.5083596491    -0.8421007789    -0.0065177538
    2      C      -0.7681083333    -0.2604922515    -0.0901667612
    3      C       1.7219221042     0.0135677887    -0.1438989299
    4      C      -0.9520171851     1.2201541473    -0.2861011777
    5      O       2.8591854336    -0.6701370852     0.1046575271
    6      O       1.7126243956     1.1834168446    -0.4525867223
    7      O      -0.7575053437     1.8869139552     0.8638918192
    8      O      -1.3098522749     1.7261220169    -1.3199416062
    9      C      -0.7932773035     3.3231837472     0.7655502954
   10      C       4.0834232551     0.0715764261    -0.0348256681
   11      C       0.6306156492    -2.2262401629     0.1659355450
   12      C      -0.5054078786    -3.0191676059     0.2548292171
   13      C      -1.7666283351    -2.4363835740     0.1669124951
   14      C      -1.9215338546    -1.0589860685    -0.0110953385
   15      H       0.0042196235     3.6623704329     0.1029248410
   16      H       4.1846869698     0.4524690842    -1.0521422720
   17      H      -2.6520157362    -3.0597083521     0.2367267382
   18      H      -1.7573961281     3.6590304144     0.3813624101
   19      H      -0.6332135566     3.6865329172     1.7781801951
   20      H       4.8767329234    -0.6377020840     0.1905512569
   21      H       4.1044308182     0.9073698665     0.6659549156
   22      H      -0.4111406761    -4.0905661255     0.3899697699
   23      H       1.6161565744    -2.6662599515     0.2246735055
   24      C      -3.3021537905    -0.4568237904    -0.1200433678
   25      H      -3.4795827254    -0.0678896919    -1.1259818626
   26      H      -3.4322250441     0.3768631178     0.5756228310
   27      H      -4.0674345894    -1.2027627438     0.1005181955
 ----------------------------------------------------------------

   15    -727.5472316736      5.85E-09 Convergence criterion met
 Total energy in the final basis set = -727.5472316736

                    Orbital Energies (a.u.)
 --------------------------------------------------------------

 Alpha MOs
 -- Occupied --
-19.178 -19.168 -19.120 -19.112 -10.312 -10.306 -10.233 -10.222
-10.207 -10.207 -10.204 -10.192 -10.192 -10.191 -10.175  -1.120
 -1.110  -1.031  -1.024  -0.885  -0.801  -0.790  -0.747  -0.726
 -0.700  -0.653  -0.624  -0.580  -0.571  -0.543  -0.519  -0.501
 -0.495  -0.490  -0.479  -0.477  -0.462  -0.444  -0.434  -0.429
 -0.423  -0.416  -0.403  -0.393  -0.381  -0.371  -0.369  -0.366
 -0.357  -0.321  -0.307  -0.293  -0.290  -0.271  -0.261

          Ground-State Mulliken Net Atomic Charges

     Atom                 Charge (a.u.)
  ----------------------------------------
      1 C                     0.098701
      2 C                     0.767132
      3 C                    -0.051842
      4 C                    -0.936067
      5 O                    -0.104403
      6 O                    -0.225668
      7 O                     0.081084
      8 O                    -0.134425
      9 C                    -0.216438
     10 C                    -0.213921
     11 C                    -0.361518
     12 C                    -0.073287
     13 C                    -0.632597
     14 C                     0.465895
     15 H                     0.191587
     16 H                     0.187032
     17 H                     0.118457
     18 H                     0.161627
     19 H                     0.150047
     20 H                     0.153963
     21 H                     0.178460
     22 H                     0.183377
     23 H                     0.185179
     24 C                    -0.500684
     25 H                     0.193506
     26 H                     0.172533
     27 H                     0.162270
  ----------------------------------------
  Sum of atomic charges =     0.000000

                    Cartesian Multipole Moments
 -----------------------------------------------------------------
    Charge (ESU x 10^10)
                 0.0000
    Dipole Moment (Debye)
         X       0.7485      Y      -1.7061      Z       2.0258
       Tot       2.7523
    Quadrupole Moments (Debye-Ang)
        XX     -72.3577     XY       1.4311     YY     -79.2215
        XZ      -2.2466     YZ       5.4089     ZZ     -94.0270

 Frequency:        18.20                  63.62                  77.76
 Force Cnst:      0.0009                 0.0085                 0.0109
 Red. Mass:       4.8098                 3.5557                 3.0473
 IR Intens:        1.016                  1.146                  2.618
 Frequency:        94.68                 110.99                 121.63
 Force Cnst:      0.0102                 0.0114                 0.0128
 Red. Mass:       1.9335                 1.5749                 1.4732
 IR Intens:        1.195                  2.534                  0.024
 Frequency:       136.43                 142.50                 159.23
 Force Cnst:      0.0226                 0.0148                 0.0546
 Red. Mass:       2.0568                 1.2360                 3.6548
 IR Intens:        0.983                  1.041                  1.657
 Frequency:       183.53                 217.08                 238.59
 Force Cnst:      0.0909                 0.0949                 0.1706
 Red. Mass:       4.5789                 3.4171                 5.0850
 IR Intens:        0.039                  3.290                  3.969
 Frequency:       280.47                 298.58                 316.12
 Force Cnst:      0.2238                 0.2256                 0.3283
 Red. Mass:       4.8287                 4.2955                 5.5762
 IR Intens:        3.258                 10.339                  5.794
 Frequency:       354.45                 383.80                 431.83
 Force Cnst:      0.3116                 0.4790                 0.5085
 Red. Mass:       4.2089                 5.5197                 4.6287
 IR Intens:       16.012                  8.166                  1.227
 Frequency:       486.94                 506.38                 565.55
 Force Cnst:      0.6063                 0.6785                 0.8549
 Red. Mass:       4.3398                 4.4908                 4.5364
 IR Intens:        3.714                  2.761                  0.549
 Frequency:       590.71                 710.40                 733.73
 Force Cnst:      1.0070                 1.9201                 2.0549
 Red. Mass:       4.8982                 6.4576                 6.4784
 IR Intens:        5.596                  8.061                  3.497
 Frequency:       760.57                 781.46                 798.36
 Force Cnst:      1.2643                 0.7416                 2.0716
 Red. Mass:       3.7095                 2.0612                 5.5165
 IR Intens:       46.917                 41.254                  5.880
 Frequency:       829.55                 840.79                 895.04
 Force Cnst:      1.2806                 2.1195                 2.3000
 Red. Mass:       3.1585                 5.0886                 4.8729
 IR Intens:        0.875                  4.383                 12.542
 Frequency:       937.59                 977.81                 998.47
 Force Cnst:      0.7094                 3.5121                 0.7915
 Red. Mass:       1.3696                 6.2347                 1.3475
 IR Intens:        0.090                  9.487                  0.206
 Frequency:      1004.04                1043.88                1063.00
 Force Cnst:      1.4741                 1.7848                 1.0263
 Red. Mass:       2.4819                 2.7799                 1.5415
 IR Intens:        6.887                 22.036                  2.128
 Frequency:      1095.79                1138.44                1169.72
 Force Cnst:      2.2767                 1.7802                 1.0389
 Red. Mass:       3.2181                 2.3313                 1.2887
 IR Intens:       93.464                 85.650                  0.906
 Frequency:      1172.88                1173.41                1197.96
 Force Cnst:      1.0387                 1.9077                 1.1078
 Red. Mass:       1.2816                 2.3516                 1.3102
 IR Intens:        1.262                125.735                  1.826
 Frequency:      1210.72                1216.78                1268.51
 Force Cnst:      1.3673                 1.7191                 1.8368
 Red. Mass:       1.5832                 1.9707                 1.9374
 IR Intens:       29.731                130.360                 61.472
 Frequency:      1286.60                1295.09                1326.52
 Force Cnst:      5.8662                 3.5880                 7.7081
 Red. Mass:       6.0148                 3.6308                 7.4348
 IR Intens:      296.460                349.389                 17.993
 Frequency:      1418.22                1460.08                1468.97
 Force Cnst:      1.4629                 1.8715                 1.5497
 Red. Mass:       1.2345                 1.4900                 1.2189
 IR Intens:        4.204                 10.166                 10.081
 Frequency:      1474.50                1481.77                1482.30
 Force Cnst:      1.8914                 1.3636                 1.3530
 Red. Mass:       1.4765                 1.0541                 1.0451
 IR Intens:       56.905                  8.974                 11.089
 Frequency:      1488.63                1489.17                1495.23
 Force Cnst:      2.2115                 1.7608                 1.3804
 Red. Mass:       1.6938                 1.3476                 1.0480
 IR Intens:        6.843                  6.697                  7.272
 Frequency:      1497.89                1507.54                1616.16
 Force Cnst:      1.3927                 1.7544                10.3472
 Red. Mass:       1.0536                 1.3102                 6.7236
 IR Intens:       10.581                  3.182                 10.107
 Frequency:      1629.97                1766.55                1787.60
 Force Cnst:      9.0437                21.5784                22.3244
 Red. Mass:       5.7774                11.7359                11.8574
 IR Intens:        9.929                249.964                272.643
 Frequency:      3035.21                3050.15                3050.38
 Force Cnst:      5.6247                 5.6427                 5.6435
 Red. Mass:       1.0363                 1.0294                 1.0294
 IR Intens:       18.045                 29.949                 43.586
 Frequency:      3090.67                3111.37                3123.24
 Force Cnst:      6.1915                 6.2876                 6.3623
 Red. Mass:       1.1001                 1.1024                 1.1070
 IR Intens:        8.474                 15.306                 17.428
 Frequency:      3126.13                3156.26                3156.80
 Force Cnst:      6.3753                 6.4929                 6.4960
 Red. Mass:       1.1072                 1.1062                 1.1064
 IR Intens:       13.561                 14.201                 13.946
 Frequency:      3164.96                3184.56                3220.86
 Force Cnst:      6.4213                 6.5336                 6.6796
 Red. Mass:       1.0880                 1.0935                 1.0928
 IR Intens:        7.136                 15.384                  2.055

 STANDARD THERMODYNAMIC QUANTITIES AT   298.15 K  AND     1.00 ATM

   This Molecule has  0 Imaginary Frequencies
   Zero point vibrational energy:      133.295 kcal/mol

   Atom    1 Element C  Has Mass   12.00000
   Atom    2 Element C  Has Mass   12.00000
   Atom    3 Element C  Has Mass   12.00000
   Atom    4 Element C  Has Mass   12.00000
   Atom    5 Element O  Has Mass   15.99491
   Atom    6 Element O  Has Mass   15.99491
   Atom    7 Element O  Has Mass   15.99491
   Atom    8 Element O  Has Mass   15.99491
   Atom    9 Element C  Has Mass   12.00000
   Atom   10 Element C  Has Mass   12.00000
   Atom   11 Element C  Has Mass   12.00000
   Atom   12 Element C  Has Mass   12.00000
   Atom   13 Element C  Has Mass   12.00000
   Atom   14 Element C  Has Mass   12.00000
   Atom   15 Element H  Has Mass    1.00783
   Atom   16 Element H  Has Mass    1.00783
   Atom   17 Element H  Has Mass    1.00783
   Atom   18 Element H  Has Mass    1.00783
   Atom   19 Element H  Has Mass    1.00783
   Atom   20 Element H  Has Mass    1.00783
   Atom   21 Element H  Has Mass    1.00783
   Atom   22 Element H  Has Mass    1.00783
   Atom   23 Element H  Has Mass    1.00783
   Atom   24 Element C  Has Mass   12.00000
   Atom   25 Element H  Has Mass    1.00783
   Atom   26 Element H  Has Mass    1.00783
   Atom   27 Element H  Has Mass    1.00783
   Molecular Mass:   208.073600 amu
   Principal axes and moments of inertia in amu*Bohr^2:
                             1           2           3
    Eigenvalues --     2454.13909  3113.26490  5138.94559
          X               0.99986     0.01649    -0.00187
          Y              -0.01648     0.99982     0.00977
          Z               0.00203    -0.00974     0.99995
   Rotational Symmetry Number is   1
   The Molecule is an Asymmetric Top
   Translational Enthalpy:        0.889 kcal/mol
   Rotational Enthalpy:           0.889 kcal/mol
   Vibrational Enthalpy:        141.066 kcal/mol
   gas constant (RT):             0.592 kcal/mol
   Translational Entropy:        41.902  cal/mol.K
   Rotational Entropy:           32.040  cal/mol.K
   Vibrational Entropy:          51.840  cal/mol.K

   Total Enthalpy:              143.436 kcal/mol
   Total Entropy:               125.782  cal/mol.K

 Total job time:  5919.21s(wall), 31360.31s(cpu)
        *  Thank you very much for using Q-Chem.  Have a nice day.  *
