 Q-Chem 5.0, Q-Chem, Inc., Pleasanton, CA (2017)
 Q-Chem 5.0.0 for Intel X86 EM64T Linux

User input:
--------------------------------------------------------------
$molecule
0  1
C         -0.69200       -0.98100       -0.58500
C          0.64000       -0.15700       -0.78800
C         -1.84300       -0.29200        0.11800
C          0.73100        1.12300        0.04300
O         -2.87516       -0.11967       -0.73840
O         -1.87919        0.00580        1.29108
O         -0.29854        1.94665       -0.27182
O          1.56175        1.40999        0.87757
C         -0.32227        3.19730        0.43627
C         -3.94569        0.69150       -0.23107
C         -0.20600       -2.28500        0.12900
C          0.37100       -1.89000        1.48200
C          1.53000       -1.25700        1.25300
C          1.72400       -1.19200       -0.25700
C          1.09500       -2.54000       -0.66800
C          0.85000        0.22300       -2.26600
H         -0.38487        3.02836        1.51472
H         -3.56723        1.69178       -0.00165
H          2.16200       -0.75000        1.97400
H         -1.20840        3.72004        0.07524
H          0.58068        3.77507        0.22137
H         -4.68849        0.73364       -1.02878
H         -4.37497        0.24861        0.67256
H          2.73000       -0.96700       -0.61300
H         -0.96000       -3.07400        0.13800
H          0.87300       -0.67400       -2.89300
H          0.02900        0.85900       -2.61400
H          1.79300        0.76100       -2.39900
H          1.66400       -3.39500       -0.29200
H          0.93900       -2.65400       -1.74700
H         -0.14800       -2.00800        2.42400
H         -1.06400       -1.24200       -1.58300
$end

$opt
CONSTRAINT
tors    1    2    4    8    119.8
tors    2    1    3    6    -69.7
ENDCONSTRAINT
$end

$rem
JOBTYPE                   OPT
METHOD                    B3LYP
DFT_D                     D3_OP
BASIS                     STO-3G
GEOM_OPT_MAX_CYCLES       500
SYMMETRY                  False
THRESH                    12
SCF_CONVERGENCE           8
MAX_SUB_FILE_NUM          128
MEM_STATIC                400
MEM_TOTAL                 4000
$end

--------------------------------------------------------------

   15    -757.9778437881      2.67E-09 Convergence criterion met
 Total energy in the final basis set = -757.9778437881
   13    -758.0048803967      8.94E-09 Convergence criterion met
 Total energy in the final basis set = -758.0048803967
   13    -758.0075036803      2.05E-09 Convergence criterion met
 Total energy in the final basis set = -758.0075036803
   13    -758.0081984310      1.07E-09 Convergence criterion met
 Total energy in the final basis set = -758.0081984310
   11    -758.0083683282      9.60E-09 Convergence criterion met
 Total energy in the final basis set = -758.0083683282
   11    -758.0084395591      6.43E-09 Convergence criterion met
 Total energy in the final basis set = -758.0084395591
   11    -758.0084669185      4.79E-09 Convergence criterion met
 Total energy in the final basis set = -758.0084669185
   11    -758.0084830051      2.57E-09 Convergence criterion met
 **  OPTIMIZATION CONVERGED  **
 Total job time:  43.75s(wall), 1013.71s(cpu)
        *  Thank you very much for using Q-Chem.  Have a nice day.  *

User input: 2 of 3

nid03721 10.128.14
Q-Chem Developer Version! Running on 10.128.14.*
                  Welcome to Q-Chem
     A Quantum Leap Into The Future Of Chemistry

 Q-Chem 5.0, Q-Chem, Inc., Pleasanton, CA (2017)

 Yihan Shao,  Zhengting Gan,  E. Epifanovsky,  A. T. B. Gilbert,  M. Wormit,
 J. Kussmann,  A. W. Lange,  A. Behn,  Jia Deng,  Xintian Feng,  D. Ghosh,
 M. Goldey,  P. R. Horn,  L. D. Jacobson,  I. Kaliman,  T. Kus,  A. Landau,
 Jie Liu,  E. I. Proynov,  R. M. Richard,  R. P. Steele,  E. J. Sundstrom,
 H. L. Woodcock III,  P. M. Zimmerman,  D. Zuev,  B. Albrecht,  E. Alguire,
 S. A. Baeppler,  Z. Benda,  Y. A. Bernard,  E. J. Berquist,  K. B. Bravaya,
 D. Casanova,  Chun-Min Chang,  Yunqing Chen,  A. Chien,  K. D. Closser,
 M. P. Coons,  S. Dasgupta,  M. Diedenhofen,  Hainam Do,  R. G. Edgar,
 Po-Tung Fang,  S. Fatehi,  Qingguo Feng,  Qinghui Ge,  A. Ghysels,
 J. Gomes,  J. Gonthier,  A. Gunina,  M. W. D. Hanson-Heine,
 P. H. P. Harbach,  A. W. Hauser,  J. E. Herr,  E. G. Hohenstein,
 Z. C. Holden,  Kerwin Hui,  T.-C. Jagau,  Hyunjun Ji,  B. Kaduk,
 K. Khistyaev,  Jaehoon Kim,  P. Klunzinger,  K. Koh,  D. Kosenkov,
 T. Kowalczyk,  C. M. Krauter,  A. Kunitsa,  Ka Un Lao,  A. Laurent,
 K. V. Lawler,  Joonho Lee,  D. Lefrancois,  S. Lehtola,  D. S. Levine,
 Yi-Pei Li,  You-Sheng Lin,  Fenglai Liu,  E. Livshits,  A. Luenser,
 P. Manohar,  E. Mansoor,  S. F. Manzer,  Shan-Ping Mao,  Yuezhi Mao,
 N. Mardirossian,  A. V. Marenich,  L. A. Martinez-Martinez,  S. A. Maurer,
 N. J. Mayhall,  S. C. McKenzie,  J.-M. Mewes,  A. F. Morrison,  K. Nanda,
 T. S. Nguyen-Beck,  R. Olivares-Amaya,  J. A. Parkhill,  T. M. Perrine,
 F. Plasser,  S. Prager,  A. Prociuk,  D. R. Rehn,  F. Rob,  M. Schneider,
 N. Sergueev,  S. M. Sharada,  S. Sharma,  D. W. Small,  T. Stauch,
 T. Stein,  Yu-Chuan Su,  A. J. W. Thom,  T. Tsuchimochi,  L. Vogt,
 O. Vydrov,  M. A. Watson,  J. Wenzel,  M. de Wergifosse,  T. A. Wesolowski,
 A. White,  J. Witte,  A. Yamada,  Jun Yang,  K. Yao,  S. Yeganeh,
 S. R. Yost,  Zhi-Qiang You,  A. Zech,  Igor Ying Zhang,  Xing Zhang,
 Yan Zhao,  Ying Zhu,  B. R. Brooks,  G. K. L. Chan,  C. J. Cramer,
 M. S. Gordon,  W. J. Hehre,  A. Klamt,  M. W. Schmidt,  C. D. Sherrill,
 D. G. Truhlar,  A. Aspuru-Guzik,  R. Baer,  A. T. Bell,  N. A. Besley,
 Jeng-Da Chai,  A. Dreuw,  B. D. Dunietz,  T. R. Furlani,  Chao-Ping Hsu,
 Yousung Jung,  Jing Kong,  D. S. Lambrecht,  WanZhen Liang,  C. Ochsenfeld,
 V. A. Rassolov,  L. V. Slipchenko,  J. E. Subotnik,  T. Van Voorhis,
 J. M. Herbert,  A. I. Krylov,  P. M. W. Gill,  M. Head-Gordon

 Contributors to earlier versions of Q-Chem not listed above:
 R. D. Adamson,  B. Austin,  J. Baker,  G. J. O. Beran,  K. Brandhorst,
 S. T. Brown,  E. F. C. Byrd,  A. K. Chakraborty,  C.-L. Cheng,
 Siu Hung Chien,  D. M. Chipman,  D. L. Crittenden,  H. Dachsel,
 R. A. DiStasio Jr.,  R. J. Doerksen,  A. D. Dutoi,  L. Fusti-Molnar,
 W. A. Goddard III,  A. Golubeva-Zadorozhnaya,  S. R. Gwaltney,  G. Hawkins,
 A. Heyden,  S. Hirata,  G. Kedziora,  F. J. Keil,  C. Kelley,  Jihan Kim,
 R. A. King,  R. Z. Khaliullin,  P. P. Korambath,  W. Kurlancheek,
 A. M. Lee,  M. S. Lee,  S. V. Levchenko,  Ching Yeh Lin,  D. Liotard,
 R. C. Lochan,  I. Lotan,  P. E. Maslen,  N. Nair,  D. P. O'Neill,
 D. Neuhauser,  E. Neuscamman,  C. M. Oana,  R. Olson,  B. Peters,
 R. Peverati,  P. A. Pieniazek,  Y. M. Rhee,  J. Ritchie,  M. A. Rohrdanz,
 E. Rosta,  N. J. Russ,  H. F. Schaefer III,  N. E. Schultz,  N. Shenvi,
 A. C. Simmonett,  A. Sodt,  D. Stuck,  K. S. Thanthiriwatte,  V. Vanovschi,
 Tao Wang,  A. Warshel,  C. F. Williams,  Q. Wu,  X. Xu,  W. Zhang

 Please cite Q-Chem as follows:
 Y. Shao et al., Mol. Phys. 113, 184-215 (2015)
 DOI: 10.1080/00268976.2014.952696

 Q-Chem 5.0.0 for Intel X86 EM64T Linux

 Parts of Q-Chem use Armadillo 5.200.1 (Boston Tea Smuggler).
 http://arma.sourceforge.net/

 Q-Chem begins on Wed Oct 18 12:19:02 2017

Host: nid03721
0

     Scratch files written to /global/cscratch1/sd/junteng/scratch/16/opt_11d01.save//
The previous job contains 0 fragments, simply inherited here

Checking the input file for inconsistencies... 	...done.

--------------------------------------------------------------
User input:
--------------------------------------------------------------

$molecule
   read
$end

$rem
JOBTYPE                   OPT
METHOD                    B3LYP
DFT_D                     D3_OP
BASIS                     6-311++G(d,p)
GEOM_OPT_MAX_CYCLES       500
GEOM_OPT_TOL_GRADIENT     1
GEOM_OPT_TOL_DISPLACEMENT 1
GEOM_OPT_TOL_ENERGY       1
SYMMETRY                  False
THRESH                    12
SCF_CONVERGENCE           8
MAX_SUB_FILE_NUM          128
MEM_STATIC                400
MEM_TOTAL                 4000
$end

--------------------------------------------------------------

    6    -768.0400266228      8.63E-09 Convergence criterion met
 Total energy in the final basis set = -768.0400266228
    6    -768.0400264908      9.25E-09 Convergence criterion met
 Total energy in the final basis set = -768.0400264908
    7    -768.0400266257      3.64E-09 Convergence criterion met
 Total energy in the final basis set = -768.0400266257
    7    -768.0400264864      3.87E-09 Convergence criterion met
 Total energy in the final basis set = -768.0400264864
    6    -768.0400265579      5.51E-09 Convergence criterion met
 Total energy in the final basis set = -768.0400265579
    2    -768.0400265605      3.78E-09 Convergence criterion met
 Total energy in the final basis set = -768.0400265605
 Final energy is   -768.040026560483
        *  Thank you very much for using Q-Chem.  Have a nice day.  *
 Q-Chem 5.0, Q-Chem, Inc., Pleasanton, CA (2017)
 Q-Chem 5.0.0 for Intel X86 EM64T Linux

             Standard Nuclear Orientation (Angstroms)
    I     Atom           X                Y                Z
 ----------------------------------------------------------------
    1      C      -0.2320158422    -0.9584281763     0.5890617793
    2      C      -0.8388240844     0.5027393250     0.6950939523
    3      C       1.0929187922    -1.1005077741    -0.1267829506
    4      C      -0.0803986640     1.5730766748    -0.0846504779
    5      O       2.0609862726    -1.4876045249     0.7344532326
    6      O       1.2878015711    -0.9381666192    -1.3072752530
    7      O       1.2255635953     1.5886832004     0.2598723319
    8      O      -0.5698405723     2.3589735227    -0.8567465833
    9      C       2.0622295178     2.5075239253    -0.4653460041
   10      C       3.3733964297    -1.6493069680     0.1698722406
   11      C      -1.3939295609    -1.7651078406    -0.1024499348
   12      C      -1.6006547165    -1.2057627247    -1.5012627163
   13      C      -2.1508114040     0.0050690403    -1.3748570289
   14      C      -2.2931121983     0.2878505190     0.1126707586
   15      C      -2.6046511869    -1.1371082952     0.6241353383
   16      C      -0.8748157293     0.9794462454     2.1633006066
   17      H       2.1061468160     2.2163849532    -1.5160907213
   18      H       3.7234191307    -0.7057621464    -0.2521630380
   19      H      -2.3398111361     0.7265764163    -2.1556487058
   20      H       3.0451977816     2.4302430304    -0.0055197925
   21      H       1.6768148386     3.5242811731    -0.3841510124
   22      H       4.0094514873    -1.9587646071     0.9964170464
   23      H       3.3640299899    -2.4090466981    -0.6133693673
   24      H      -2.9790006387     1.0877780917     0.3869524512
   25      H      -1.2645934440    -2.8446651410    -0.0253049961
   26      H      -1.4716480462     0.3007022537     2.7750520053
   27      H       0.1321952885     1.0241087077     2.5815459700
   28      H      -1.3197384181     1.9762587879     2.2315397142
   29      H      -3.5563402845    -1.5123910042     0.2452014430
   30      H      -2.5752842409    -1.2494416943     1.7105538872
   31      H      -1.2536945133    -1.6762066534    -2.4097689606
   32      H      -0.0892196643    -1.3420438062     1.5996108721
 ----------------------------------------------------------------

   15    -768.0401247747      3.64E-09 Convergence criterion met
 Total energy in the final basis set = -768.0401247747

                    Orbital Energies (a.u.)
 --------------------------------------------------------------

 Alpha MOs
 -- Occupied --
-19.172 -19.171 -19.115 -19.112 -10.303 -10.303 -10.229 -10.227
-10.213 -10.199 -10.190 -10.185 -10.175 -10.174 -10.162 -10.161
 -1.115  -1.110  -1.027  -1.024  -0.897  -0.802  -0.768  -0.734
 -0.724  -0.706  -0.682  -0.624  -0.588  -0.568  -0.555  -0.534
 -0.530  -0.518  -0.497  -0.489  -0.484  -0.477  -0.461  -0.456
 -0.440  -0.433  -0.415  -0.408  -0.406  -0.396  -0.385  -0.378
 -0.372  -0.364  -0.357  -0.352  -0.342  -0.337  -0.322  -0.315
 -0.310  -0.286  -0.277  -0.241

          Ground-State Mulliken Net Atomic Charges

     Atom                 Charge (a.u.)
  ----------------------------------------
      1 C                     0.072534
      2 C                     0.328318
      3 C                    -0.703312
      4 C                    -0.597817
      5 O                     0.023881
      6 O                    -0.184735
      7 O                    -0.021005
      8 O                    -0.190986
      9 C                    -0.208404
     10 C                    -0.177319
     11 C                     0.319604
     12 C                    -0.408987
     13 C                    -0.511382
     14 C                     0.396092
     15 C                    -0.726905
     16 C                    -0.337788
     17 H                     0.199607
     18 H                     0.161189
     19 H                     0.165586
     20 H                     0.142459
     21 H                     0.178192
     22 H                     0.149210
     23 H                     0.174064
     24 H                     0.271447
     25 H                     0.251163
     26 H                     0.152390
     27 H                     0.165045
     28 H                     0.173029
     29 H                     0.187494
     30 H                     0.106221
     31 H                     0.164476
     32 H                     0.286639
  ----------------------------------------
  Sum of atomic charges =    -0.000000

                    Cartesian Multipole Moments
 -----------------------------------------------------------------
    Charge (ESU x 10^10)
                -0.0000
    Dipole Moment (Debye)
         X       1.6435      Y      -0.8964      Z       2.4513
       Tot       3.0844
    Quadrupole Moments (Debye-Ang)
        XX     -85.9131     XY       2.9181     YY     -93.9428
        XZ      -2.4571     YZ       1.3009     ZZ     -98.5920

 Frequency:        28.38                  64.32                  80.44
 Force Cnst:      0.0022                 0.0129                 0.0112
 Red. Mass:       4.7182                 5.2730                 2.9310
 IR Intens:        1.131                  1.199                  2.182
 Frequency:        98.02                 109.70                 144.42
 Force Cnst:      0.0211                 0.0093                 0.0405
 Red. Mass:       3.7197                 1.3073                 3.2964
 IR Intens:        1.709                  0.287                  0.120
 Frequency:       163.63                 189.82                 203.13
 Force Cnst:      0.0666                 0.0240                 0.0804
 Red. Mass:       4.2225                 1.1312                 3.3084
 IR Intens:        2.047                  0.168                  2.565
 Frequency:       222.10                 252.31                 262.67
 Force Cnst:      0.1183                 0.0479                 0.1034
 Red. Mass:       4.0705                 1.2777                 2.5448
 IR Intens:        2.474                  0.751                  4.579
 Frequency:       275.64                 282.79                 312.96
 Force Cnst:      0.1715                 0.2350                 0.1814
 Red. Mass:       3.8319                 4.9885                 3.1429
 IR Intens:        7.154                  2.474                  1.205
 Frequency:       344.47                 365.97                 398.10
 Force Cnst:      0.2897                 0.3826                 0.3704
 Red. Mass:       4.1430                 4.8484                 3.9665
 IR Intens:       17.920                  6.452                  2.945
 Frequency:       429.06                 447.03                 533.14
 Force Cnst:      0.3770                 0.4919                 0.3441
 Red. Mass:       3.4756                 4.1775                 2.0545
 IR Intens:        2.673                  1.951                  1.512
 Frequency:       577.56                 699.23                 733.56
 Force Cnst:      0.7387                 0.9761                 2.2405
 Red. Mass:       3.7586                 3.3885                 7.0668
 IR Intens:       10.243                 10.439                  0.661
 Frequency:       740.40                 765.65                 775.30
 Force Cnst:      0.7116                 1.2471                 1.4837
 Red. Mass:       2.2033                 3.6106                 4.1893
 IR Intens:       30.995                  8.580                  5.936
 Frequency:       790.72                 817.68                 850.16
 Force Cnst:      2.3143                 1.7238                 1.6468
 Red. Mass:       6.2823                 4.3759                 3.8671
 IR Intens:       15.207                 14.060                  2.614
 Frequency:       873.37                 895.13                 913.92
 Force Cnst:      1.3706                 1.2596                 1.2334
 Red. Mass:       3.0498                 2.6682                 2.5062
 IR Intens:        0.289                 10.845                  2.130
 Frequency:       924.84                 943.00                 948.13
 Force Cnst:      1.2179                 1.4696                 1.2625
 Red. Mass:       2.4167                 2.8050                 2.3837
 IR Intens:        6.719                  8.281                  6.038
 Frequency:       957.79                 982.99                 990.68
 Force Cnst:      0.9988                 1.3918                 0.9181
 Red. Mass:       1.8479                 2.4447                 1.5877
 IR Intens:        3.974                  1.058                  0.837
 Frequency:      1008.25                1047.70                1055.70
 Force Cnst:      1.9572                 2.0967                 1.0982
 Red. Mass:       3.2678                 3.2420                 1.6725
 IR Intens:       11.584                 12.289                  7.442
 Frequency:      1093.83                1118.14                1133.89
 Force Cnst:      2.7700                 1.0374                 1.1748
 Red. Mass:       3.9295                 1.4084                 1.5509
 IR Intens:        2.153                  0.780                 18.073
 Frequency:      1142.10                1158.93                1169.04
 Force Cnst:      2.0140                 0.9903                 1.0450
 Red. Mass:       2.6206                 1.2514                 1.2978
 IR Intens:      141.205                 20.761                  6.685
 Frequency:      1172.58                1179.29                1197.06
 Force Cnst:      1.0503                 2.1398                 1.6637
 Red. Mass:       1.2966                 2.6115                 1.9705
 IR Intens:        2.137                264.825                 26.052
 Frequency:      1209.32                1212.70                1242.61
 Force Cnst:      1.4075                 1.3674                 1.4934
 Red. Mass:       1.6335                 1.5782                 1.6416
 IR Intens:       66.237                 26.378                  6.054
 Frequency:      1273.32                1283.89                1285.06
 Force Cnst:      3.3029                 1.5281                 1.4046
 Red. Mass:       3.4576                 1.5734                 1.4436
 IR Intens:      274.677                  0.463                  4.458
 Frequency:      1290.18                1323.30                1362.01
 Force Cnst:      1.4107                 1.6155                 1.8419
 Red. Mass:       1.4384                 1.5658                 1.6852
 IR Intens:        8.917                 25.513                 16.548
 Frequency:      1395.46                1407.88                1467.32
 Force Cnst:      1.7671                 1.4197                 1.5284
 Red. Mass:       1.5402                 1.2157                 1.2049
 IR Intens:       60.670                  4.958                  8.078
 Frequency:      1467.73                1481.49                1486.82
 Force Cnst:      1.5194                 1.3518                 1.3607
 Red. Mass:       1.1971                 1.0454                 1.0447
 IR Intens:       21.717                  6.721                 13.208
 Frequency:      1496.90                1498.23                1500.29
 Force Cnst:      1.3834                 1.4026                 1.3950
 Red. Mass:       1.0479                 1.0605                 1.0519
 IR Intens:       10.329                  1.912                  5.647
 Frequency:      1500.93                1514.81                1638.26
 Force Cnst:      1.4030                 1.4681                 9.0290
 Red. Mass:       1.0570                 1.0859                 5.7098
 IR Intens:        5.125                 16.205                  2.442
 Frequency:      1781.72                1787.94                3034.91
 Force Cnst:     20.5081                21.9257                 5.6231
 Red. Mass:      10.9647                11.6412                 1.0362
 IR Intens:       87.966                307.893                 17.107
 Frequency:      3047.83                3051.13                3054.84
 Force Cnst:      5.6359                 5.6445                 5.8325
 Red. Mass:       1.0298                 1.0291                 1.0608
 IR Intens:       33.093                 37.427                 36.334
 Frequency:      3087.81                3101.30                3104.66
 Force Cnst:      6.1004                 6.2217                 6.1881
 Red. Mass:       1.0859                 1.0979                 1.0896
 IR Intens:        5.516                  1.506                 56.239
 Frequency:      3109.65                3117.95                3118.77
 Force Cnst:      6.2910                 6.2561                 6.3383
 Red. Mass:       1.1042                 1.0922                 1.1060
 IR Intens:       35.868                 13.749                 21.897
 Frequency:      3119.01                3128.06                3153.86
 Force Cnst:      6.3064                 6.3837                 6.4814
 Red. Mass:       1.1003                 1.1073                 1.1059
 IR Intens:       21.624                 15.039                 16.609
 Frequency:      3155.23                3216.45                3240.51
 Force Cnst:      6.4923                 6.6304                 6.8399
 Red. Mass:       1.1068                 1.0878                 1.1055
 IR Intens:       12.066                  2.263                  5.048

 STANDARD THERMODYNAMIC QUANTITIES AT   298.15 K  AND     1.00 ATM

   This Molecule has  0 Imaginary Frequencies
   Zero point vibrational energy:      166.709 kcal/mol

   Atom    1 Element C  Has Mass   12.00000
   Atom    2 Element C  Has Mass   12.00000
   Atom    3 Element C  Has Mass   12.00000
   Atom    4 Element C  Has Mass   12.00000
   Atom    5 Element O  Has Mass   15.99491
   Atom    6 Element O  Has Mass   15.99491
   Atom    7 Element O  Has Mass   15.99491
   Atom    8 Element O  Has Mass   15.99491
   Atom    9 Element C  Has Mass   12.00000
   Atom   10 Element C  Has Mass   12.00000
   Atom   11 Element C  Has Mass   12.00000
   Atom   12 Element C  Has Mass   12.00000
   Atom   13 Element C  Has Mass   12.00000
   Atom   14 Element C  Has Mass   12.00000
   Atom   15 Element C  Has Mass   12.00000
   Atom   16 Element C  Has Mass   12.00000
   Atom   17 Element H  Has Mass    1.00783
   Atom   18 Element H  Has Mass    1.00783
   Atom   19 Element H  Has Mass    1.00783
   Atom   20 Element H  Has Mass    1.00783
   Atom   21 Element H  Has Mass    1.00783
   Atom   22 Element H  Has Mass    1.00783
   Atom   23 Element H  Has Mass    1.00783
   Atom   24 Element H  Has Mass    1.00783
   Atom   25 Element H  Has Mass    1.00783
   Atom   26 Element H  Has Mass    1.00783
   Atom   27 Element H  Has Mass    1.00783
   Atom   28 Element H  Has Mass    1.00783
   Atom   29 Element H  Has Mass    1.00783
   Atom   30 Element H  Has Mass    1.00783
   Atom   31 Element H  Has Mass    1.00783
   Atom   32 Element H  Has Mass    1.00783
   Molecular Mass:   224.104920 amu
   Principal axes and moments of inertia in amu*Bohr^2:
                             1           2           3
    Eigenvalues --     2490.08143  3249.14318  4223.38557
          X               0.99948     0.02784    -0.01630
          Y              -0.02778     0.99961     0.00386
          Z               0.01640    -0.00341     0.99986
   Rotational Symmetry Number is   1
   The Molecule is an Asymmetric Top
   Translational Enthalpy:        0.889 kcal/mol
   Rotational Enthalpy:           0.889 kcal/mol
   Vibrational Enthalpy:        174.636 kcal/mol
   gas constant (RT):             0.592 kcal/mol
   Translational Entropy:        42.123  cal/mol.K
   Rotational Entropy:           31.902  cal/mol.K
   Vibrational Entropy:          50.326  cal/mol.K

   Total Enthalpy:              177.006 kcal/mol
   Total Entropy:               124.351  cal/mol.K

 Total job time:  10785.37s(wall), 62641.00s(cpu)
        *  Thank you very much for using Q-Chem.  Have a nice day.  *
