 Q-Chem 5.0, Q-Chem, Inc., Pleasanton, CA (2017)
 Q-Chem 5.0.0 for Intel X86 EM64T Linux

User input:
--------------------------------------------------------------
$molecule
0  1
C    0.355  -2.424   0.293
C   -0.264  -2.685   1.524
C    0.749  -1.045  -0.086
C   -0.385  -1.681   2.598
O    1.805  -1.090  -0.938
O    0.175  -0.038   0.291
O    0.833  -1.128   2.820
O   -1.397  -1.517   3.259
C    0.836  -0.152   3.862
C    2.258   0.195  -1.365
C    0.489  -3.469  -0.639
C    0.011  -4.748  -0.345
C   -0.620  -4.996   0.872
C   -0.760  -3.969   1.804
H    0.142   0.662   3.629
H    1.480   0.699  -1.947
H   -1.003  -5.990   1.096
H    0.581  -0.616   4.820
H    1.845   0.263   3.935
H    3.132   0.050  -2.006
H    2.557   0.804  -0.506
H    0.116  -5.548  -1.075
H   -1.248  -4.169   2.757
H    0.945  -3.290  -1.611
$end

$opt
CONSTRAINT
tors    2    1    3    5    155.0
tors    1    2    4    7    -45.0
ENDCONSTRAINT
$end

$rem
JOBTYPE                   OPT
METHOD                    B3LYP
DFT_D                     D3_OP
BASIS                     STO-3G
GEOM_OPT_MAX_CYCLES       500
SYMMETRY                  False
THRESH                    12
SCF_CONVERGENCE           8
MAX_SUB_FILE_NUM          128
MEM_STATIC                400
MEM_TOTAL                 4000
$end

--------------------------------------------------------------

   15    -679.0688361291      6.94E-09 Convergence criterion met
 Total energy in the final basis set = -679.0688361291
   14    -679.0947875327      5.96E-09 Convergence criterion met
 Total energy in the final basis set = -679.0947875327
   13    -679.0965624847      8.49E-09 Convergence criterion met
 Total energy in the final basis set = -679.0965624847
   12    -679.0967893146      6.39E-09 Convergence criterion met
 Total energy in the final basis set = -679.0967893146
   11    -679.0968108162      8.51E-09 Convergence criterion met
 Total energy in the final basis set = -679.0968108162
   11    -679.0968112338      3.19E-09 Convergence criterion met
 Total energy in the final basis set = -679.0968112338
   11    -679.0968148102      2.19E-09 Convergence criterion met
 Total energy in the final basis set = -679.0968148102
   11    -679.0968196481      3.06E-09 Convergence criterion met
 **  OPTIMIZATION CONVERGED  **
 Total job time:  29.60s(wall), 690.29s(cpu)
        *  Thank you very much for using Q-Chem.  Have a nice day.  *

User input: 2 of 3

nid04377 10.128.17
Q-Chem Developer Version! Running on 10.128.17.*
                  Welcome to Q-Chem
     A Quantum Leap Into The Future Of Chemistry

 Q-Chem 5.0, Q-Chem, Inc., Pleasanton, CA (2017)

 Yihan Shao,  Zhengting Gan,  E. Epifanovsky,  A. T. B. Gilbert,  M. Wormit,
 J. Kussmann,  A. W. Lange,  A. Behn,  Jia Deng,  Xintian Feng,  D. Ghosh,
 M. Goldey,  P. R. Horn,  L. D. Jacobson,  I. Kaliman,  T. Kus,  A. Landau,
 Jie Liu,  E. I. Proynov,  R. M. Richard,  R. P. Steele,  E. J. Sundstrom,
 H. L. Woodcock III,  P. M. Zimmerman,  D. Zuev,  B. Albrecht,  E. Alguire,
 S. A. Baeppler,  Z. Benda,  Y. A. Bernard,  E. J. Berquist,  K. B. Bravaya,
 D. Casanova,  Chun-Min Chang,  Yunqing Chen,  A. Chien,  K. D. Closser,
 M. P. Coons,  S. Dasgupta,  M. Diedenhofen,  Hainam Do,  R. G. Edgar,
 Po-Tung Fang,  S. Fatehi,  Qingguo Feng,  Qinghui Ge,  A. Ghysels,
 J. Gomes,  J. Gonthier,  A. Gunina,  M. W. D. Hanson-Heine,
 P. H. P. Harbach,  A. W. Hauser,  J. E. Herr,  E. G. Hohenstein,
 Z. C. Holden,  Kerwin Hui,  T.-C. Jagau,  Hyunjun Ji,  B. Kaduk,
 K. Khistyaev,  Jaehoon Kim,  P. Klunzinger,  K. Koh,  D. Kosenkov,
 T. Kowalczyk,  C. M. Krauter,  A. Kunitsa,  Ka Un Lao,  A. Laurent,
 K. V. Lawler,  Joonho Lee,  D. Lefrancois,  S. Lehtola,  D. S. Levine,
 Yi-Pei Li,  You-Sheng Lin,  Fenglai Liu,  E. Livshits,  A. Luenser,
 P. Manohar,  E. Mansoor,  S. F. Manzer,  Shan-Ping Mao,  Yuezhi Mao,
 N. Mardirossian,  A. V. Marenich,  L. A. Martinez-Martinez,  S. A. Maurer,
 N. J. Mayhall,  S. C. McKenzie,  J.-M. Mewes,  A. F. Morrison,  K. Nanda,
 T. S. Nguyen-Beck,  R. Olivares-Amaya,  J. A. Parkhill,  T. M. Perrine,
 F. Plasser,  S. Prager,  A. Prociuk,  D. R. Rehn,  F. Rob,  M. Schneider,
 N. Sergueev,  S. M. Sharada,  S. Sharma,  D. W. Small,  T. Stauch,
 T. Stein,  Yu-Chuan Su,  A. J. W. Thom,  T. Tsuchimochi,  L. Vogt,
 O. Vydrov,  M. A. Watson,  J. Wenzel,  M. de Wergifosse,  T. A. Wesolowski,
 A. White,  J. Witte,  A. Yamada,  Jun Yang,  K. Yao,  S. Yeganeh,
 S. R. Yost,  Zhi-Qiang You,  A. Zech,  Igor Ying Zhang,  Xing Zhang,
 Yan Zhao,  Ying Zhu,  B. R. Brooks,  G. K. L. Chan,  C. J. Cramer,
 M. S. Gordon,  W. J. Hehre,  A. Klamt,  M. W. Schmidt,  C. D. Sherrill,
 D. G. Truhlar,  A. Aspuru-Guzik,  R. Baer,  A. T. Bell,  N. A. Besley,
 Jeng-Da Chai,  A. Dreuw,  B. D. Dunietz,  T. R. Furlani,  Chao-Ping Hsu,
 Yousung Jung,  Jing Kong,  D. S. Lambrecht,  WanZhen Liang,  C. Ochsenfeld,
 V. A. Rassolov,  L. V. Slipchenko,  J. E. Subotnik,  T. Van Voorhis,
 J. M. Herbert,  A. I. Krylov,  P. M. W. Gill,  M. Head-Gordon

 Contributors to earlier versions of Q-Chem not listed above:
 R. D. Adamson,  B. Austin,  J. Baker,  G. J. O. Beran,  K. Brandhorst,
 S. T. Brown,  E. F. C. Byrd,  A. K. Chakraborty,  C.-L. Cheng,
 Siu Hung Chien,  D. M. Chipman,  D. L. Crittenden,  H. Dachsel,
 R. A. DiStasio Jr.,  R. J. Doerksen,  A. D. Dutoi,  L. Fusti-Molnar,
 W. A. Goddard III,  A. Golubeva-Zadorozhnaya,  S. R. Gwaltney,  G. Hawkins,
 A. Heyden,  S. Hirata,  G. Kedziora,  F. J. Keil,  C. Kelley,  Jihan Kim,
 R. A. King,  R. Z. Khaliullin,  P. P. Korambath,  W. Kurlancheek,
 A. M. Lee,  M. S. Lee,  S. V. Levchenko,  Ching Yeh Lin,  D. Liotard,
 R. C. Lochan,  I. Lotan,  P. E. Maslen,  N. Nair,  D. P. O'Neill,
 D. Neuhauser,  E. Neuscamman,  C. M. Oana,  R. Olson,  B. Peters,
 R. Peverati,  P. A. Pieniazek,  Y. M. Rhee,  J. Ritchie,  M. A. Rohrdanz,
 E. Rosta,  N. J. Russ,  H. F. Schaefer III,  N. E. Schultz,  N. Shenvi,
 A. C. Simmonett,  A. Sodt,  D. Stuck,  K. S. Thanthiriwatte,  V. Vanovschi,
 Tao Wang,  A. Warshel,  C. F. Williams,  Q. Wu,  X. Xu,  W. Zhang

 Please cite Q-Chem as follows:
 Y. Shao et al., Mol. Phys. 113, 184-215 (2015)
 DOI: 10.1080/00268976.2014.952696

 Q-Chem 5.0.0 for Intel X86 EM64T Linux

 Parts of Q-Chem use Armadillo 5.200.1 (Boston Tea Smuggler).
 http://arma.sourceforge.net/

 Q-Chem begins on Wed Oct  4 18:03:12 2017

Host: nid04377
0

     Scratch files written to /global/cscratch1/sd/junteng/scratch/16/opt_10n01o+.save//
The previous job contains 0 fragments, simply inherited here

Checking the input file for inconsistencies... 	...done.

--------------------------------------------------------------
User input:
--------------------------------------------------------------

$molecule
   read
$end

$rem
JOBTYPE                   OPT
METHOD                    B3LYP
DFT_D                     D3_OP
BASIS                     6-311++G(d,p)
GEOM_OPT_MAX_CYCLES       500
GEOM_OPT_TOL_GRADIENT     1
GEOM_OPT_TOL_DISPLACEMENT 1
GEOM_OPT_TOL_ENERGY       1
SYMMETRY                  False
THRESH                    12
SCF_CONVERGENCE           8
MAX_SUB_FILE_NUM          128
MEM_STATIC                400
MEM_TOTAL                 4000
$end

--------------------------------------------------------------

    5    -688.2161063830      3.43E-09 Convergence criterion met
 Total energy in the final basis set = -688.2161063830
    4    -688.2161063715      9.81E-09 Convergence criterion met
 Total energy in the final basis set = -688.2161063715
    4    -688.2161063828      9.27E-09 Convergence criterion met
 Total energy in the final basis set = -688.2161063828
    4    -688.2161063715      9.01E-09 Convergence criterion met
 Total energy in the final basis set = -688.2161063715
    4    -688.2161063819      9.11E-09 Convergence criterion met
 Total energy in the final basis set = -688.2161063819
    4    -688.2161063729      9.26E-09 Convergence criterion met
 Total energy in the final basis set = -688.2161063729
 Final energy is   -688.216106372922
        *  Thank you very much for using Q-Chem.  Have a nice day.  *
 Q-Chem 5.0, Q-Chem, Inc., Pleasanton, CA (2017)
 Q-Chem 5.0.0 for Intel X86 EM64T Linux

             Standard Nuclear Orientation (Angstroms)
    I     Atom           X                Y                Z
 ----------------------------------------------------------------
    1      C      -0.1920180898    -0.8644922204    -0.0349768867
    2      C      -1.1018740151     0.2070486929    -0.0688107011
    3      C       1.2638814909    -0.6381292492    -0.2830973568
    4      C      -0.6732136044     1.6396783691    -0.1660633567
    5      O       2.0223442752    -1.5912700194     0.2975661673
    6      O       1.7188867973     0.2575236546    -0.9542582522
    7      O       0.2330549409     1.9435738411     0.7789227657
    8      O      -1.1344881404     2.4320014797    -0.9503598903
    9      C       0.8232230307     3.2530406110     0.6847432950
   10      C       3.4377708445    -1.5085440311     0.0500558419
   11      C      -0.6757903522    -2.1690785617     0.1111025166
   12      C      -2.0427938149    -2.4129603445     0.2078221691
   13      C      -2.9427701886    -1.3512127985     0.1523392153
   14      C      -2.4713531152    -0.0483117099     0.0110225590
   15      H       1.3921111790     3.3308555111    -0.2431799782
   16      H       3.6426470244    -1.5860659686    -1.0189056258
   17      H      -4.0090121458    -1.5347537063     0.2196427864
   18      H       0.0535926377     4.0252847523     0.7099204259
   19      H       1.4818239929     3.3361422398     1.5462494253
   20      H       3.8735980884    -2.3479167039     0.5872133016
   21      H       3.8349078244    -0.5642721295     0.4248072685
   22      H      -2.4030759341    -3.4295880920     0.3160264333
   23      H      -3.1624723221     0.7847282094    -0.0318676365
   24      H       0.0271235551    -2.9912783048     0.1303035014
 ----------------------------------------------------------------

   15    -688.2160043223      7.12E-09 Convergence criterion met
 Total energy in the final basis set = -688.2160043223

                    Orbital Energies (a.u.)
 --------------------------------------------------------------

 Alpha MOs
 -- Occupied --
-19.180 -19.170 -19.121 -19.115 -10.314 -10.308 -10.234 -10.224
-10.212 -10.211 -10.199 -10.198 -10.197 -10.197  -1.121  -1.113
 -1.033  -1.026  -0.887  -0.796  -0.787  -0.741  -0.729  -0.655
 -0.639  -0.594  -0.573  -0.553  -0.523  -0.503  -0.493  -0.489
 -0.486  -0.480  -0.463  -0.457  -0.435  -0.431  -0.418  -0.402
 -0.390  -0.382  -0.375  -0.372  -0.361  -0.323  -0.309  -0.298
 -0.293  -0.277  -0.270

          Ground-State Mulliken Net Atomic Charges

     Atom                 Charge (a.u.)
  ----------------------------------------
      1 C                     0.732952
      2 C                     0.354238
      3 C                    -0.392780
      4 C                    -0.634828
      5 O                    -0.062236
      6 O                    -0.212902
      7 O                    -0.006105
      8 O                    -0.215467
      9 C                    -0.244448
     10 C                    -0.236334
     11 C                    -0.099471
     12 C                    -0.209222
     13 C                    -0.200686
     14 C                    -0.307420
     15 H                     0.187620
     16 H                     0.188606
     17 H                     0.172428
     18 H                     0.168628
     19 H                     0.154222
     20 H                     0.159225
     21 H                     0.172633
     22 H                     0.173869
     23 H                     0.175467
     24 H                     0.182014
  ----------------------------------------
  Sum of atomic charges =     0.000000

                    Cartesian Multipole Moments
 -----------------------------------------------------------------
    Charge (ESU x 10^10)
                 0.0000
    Dipole Moment (Debye)
         X       0.8845      Y      -2.4840      Z       2.1960
       Tot       3.4315
    Quadrupole Moments (Debye-Ang)
        XX     -67.4075     XY       3.2120     YY     -73.7536
        XZ      -0.4056     YZ       6.4817     ZZ     -87.5690

 Frequency:        21.62                  72.18                  77.13
 Force Cnst:      0.0016                 0.0101                 0.0130
 Red. Mass:       5.9319                 3.2911                 3.7206
 IR Intens:        0.489                  0.344                  4.941
 Frequency:        91.96                 108.21                 124.53
 Force Cnst:      0.0152                 0.0094                 0.0112
 Red. Mass:       3.0475                 1.3692                 1.2216
 IR Intens:        3.121                  0.336                  0.446
 Frequency:       137.17                 153.97                 215.18
 Force Cnst:      0.0350                 0.0479                 0.1443
 Red. Mass:       3.1548                 3.4302                 5.2903
 IR Intens:        2.160                  1.601                  1.024
 Frequency:       251.68                 282.57                 307.27
 Force Cnst:      0.2165                 0.2062                 0.2841
 Red. Mass:       5.8013                 4.3829                 5.1067
 IR Intens:        1.627                  8.362                  5.457
 Frequency:       331.55                 367.36                 397.03
 Force Cnst:      0.3397                 0.5260                 0.5063
 Red. Mass:       5.2449                 6.6152                 5.4510
 IR Intens:       14.020                 10.121                  1.190
 Frequency:       421.93                 536.58                 558.92
 Force Cnst:      0.4125                 0.8611                 0.8407
 Red. Mass:       3.9324                 5.0761                 4.5676
 IR Intens:        0.980                  2.148                  4.915
 Frequency:       664.07                 702.66                 715.16
 Force Cnst:      1.6334                 1.7726                 1.6426
 Red. Mass:       6.2867                 6.0938                 5.4509
 IR Intens:        4.458                  6.341                  7.527
 Frequency:       749.95                 799.27                 812.65
 Force Cnst:      0.6672                 1.0865                 1.5080
 Red. Mass:       2.0135                 2.8866                 3.8756
 IR Intens:       79.835                 18.414                  6.101
 Frequency:       827.96                 847.64                 903.33
 Force Cnst:      2.0296                 2.1384                 0.7152
 Red. Mass:       5.0250                 5.0513                 1.4875
 IR Intens:       10.956                  1.253                  0.618
 Frequency:       974.45                 983.90                 985.73
 Force Cnst:      1.3555                 3.8139                 1.3408
 Red. Mass:       2.4228                 6.6868                 2.3420
 IR Intens:       14.797                  1.378                  6.925
 Frequency:      1003.56                1062.79                1096.79
 Force Cnst:      0.7812                 1.6498                 3.4906
 Red. Mass:       1.3165                 2.4791                 4.9249
 IR Intens:        0.550                 16.745                 92.339
 Frequency:      1143.94                1155.30                1169.63
 Force Cnst:      2.2697                 1.4668                 1.0456
 Red. Mass:       2.9438                 1.8652                 1.2973
 IR Intens:      163.953                 51.230                  1.216
 Frequency:      1170.55                1189.91                1210.88
 Force Cnst:      1.0350                 0.9334                 1.3599
 Red. Mass:       1.2821                 1.1188                 1.5742
 IR Intens:        0.693                  1.825                 35.640
 Frequency:      1214.95                1275.20                1287.76
 Force Cnst:      1.4060                 3.1039                 3.0006
 Red. Mass:       1.6167                 3.2397                 3.0711
 IR Intens:       42.995                182.258                384.785
 Frequency:      1311.13                1334.01                1465.84
 Force Cnst:      2.2246                 7.7929                 1.5994
 Red. Mass:       2.1964                 7.4324                 1.2634
 IR Intens:      178.785                 22.059                 12.831
 Frequency:      1468.03                1475.84                1481.80
 Force Cnst:      1.5217                 2.5406                 1.3522
 Red. Mass:       1.1984                 1.9797                 1.0452
 IR Intens:       19.273                  8.025                  6.150
 Frequency:      1482.80                1495.53                1496.19
 Force Cnst:      1.3564                 1.3801                 1.3814
 Red. Mass:       1.0471                 1.0473                 1.0474
 IR Intens:       12.835                 17.242                  3.029
 Frequency:      1514.52                1612.06                1636.23
 Force Cnst:      3.5856                 9.6677                 9.0624
 Red. Mass:       2.6531                 6.3141                 5.7452
 IR Intens:       12.318                 11.637                  6.931
 Frequency:      1773.24                1781.69                3050.03
 Force Cnst:     21.8548                22.1898                 5.6436
 Red. Mass:      11.7967                11.8642                 1.0297
 IR Intens:      247.269                306.479                 32.155
 Frequency:      3050.85                3123.55                3126.67
 Force Cnst:      5.6451                 6.3638                 6.3782
 Red. Mass:       1.0294                 1.1071                 1.1074
 IR Intens:       36.962                 17.366                 14.427
 Frequency:      3158.04                3158.42                3172.78
 Force Cnst:      6.5003                 6.5019                 6.4456
 Red. Mass:       1.1062                 1.1062                 1.0868
 IR Intens:       13.694                 12.950                  1.638
 Frequency:      3186.63                3198.56                3211.29
 Force Cnst:      6.5303                 6.6007                 6.6439
 Red. Mass:       1.0915                 1.0950                 1.0935
 IR Intens:        8.790                  7.166                  3.599

 STANDARD THERMODYNAMIC QUANTITIES AT   298.15 K  AND     1.00 ATM

   This Molecule has  0 Imaginary Frequencies
   Zero point vibrational energy:      116.039 kcal/mol

   Atom    1 Element C  Has Mass   12.00000
   Atom    2 Element C  Has Mass   12.00000
   Atom    3 Element C  Has Mass   12.00000
   Atom    4 Element C  Has Mass   12.00000
   Atom    5 Element O  Has Mass   15.99491
   Atom    6 Element O  Has Mass   15.99491
   Atom    7 Element O  Has Mass   15.99491
   Atom    8 Element O  Has Mass   15.99491
   Atom    9 Element C  Has Mass   12.00000
   Atom   10 Element C  Has Mass   12.00000
   Atom   11 Element C  Has Mass   12.00000
   Atom   12 Element C  Has Mass   12.00000
   Atom   13 Element C  Has Mass   12.00000
   Atom   14 Element C  Has Mass   12.00000
   Atom   15 Element H  Has Mass    1.00783
   Atom   16 Element H  Has Mass    1.00783
   Atom   17 Element H  Has Mass    1.00783
   Atom   18 Element H  Has Mass    1.00783
   Atom   19 Element H  Has Mass    1.00783
   Atom   20 Element H  Has Mass    1.00783
   Atom   21 Element H  Has Mass    1.00783
   Atom   22 Element H  Has Mass    1.00783
   Atom   23 Element H  Has Mass    1.00783
   Atom   24 Element H  Has Mass    1.00783
   Molecular Mass:   194.057940 amu
   Principal axes and moments of inertia in amu*Bohr^2:
                             1           2           3
    Eigenvalues --     2387.46179  2462.88600  4473.71932
          X               0.97588     0.21831     0.00128
          Y              -0.21831     0.97583     0.00942
          Z               0.00080    -0.00947     0.99995
   Rotational Symmetry Number is   1
   The Molecule is an Asymmetric Top
   Translational Enthalpy:        0.889 kcal/mol
   Rotational Enthalpy:           0.889 kcal/mol
   Vibrational Enthalpy:        122.769 kcal/mol
   gas constant (RT):             0.592 kcal/mol
   Translational Entropy:        41.694  cal/mol.K
   Rotational Entropy:           31.642  cal/mol.K
   Vibrational Entropy:          45.035  cal/mol.K

   Total Enthalpy:              125.138 kcal/mol
   Total Entropy:               118.372  cal/mol.K

 Total job time:  4081.58s(wall), 20272.46s(cpu)
        *  Thank you very much for using Q-Chem.  Have a nice day.  *
