 Q-Chem 5.0, Q-Chem, Inc., Pleasanton, CA (2017)
 Q-Chem 5.0.0 for Intel X86 EM64T Linux

User input:
--------------------------------------------------------------
$molecule
0  1
C    0.656  -1.997   0.550
C   -0.379  -2.055   1.685
C    1.075  -0.633   0.035
C   -0.743  -0.756   2.367
O    2.254  -0.766  -0.643
O    0.466   0.414   0.178
O    0.380  -0.211   2.923
O   -1.879  -0.339   2.537
C    0.159   1.039   3.578
C    2.798   0.433  -1.203
C   -0.074  -2.721  -0.584
C   -0.239  -4.209  -0.268
C   -1.341  -4.194   0.796
C   -1.585  -2.694   0.978
O   -1.425  -2.250  -0.391
H    1.566  -2.528   0.855
H   -0.041  -2.721   2.491
H   -0.505   1.690   2.999
H    2.061   1.233  -1.326
H    0.286  -2.514  -1.595
H   -0.592  -4.755  -1.150
H    0.687  -4.677   0.078
H   -2.237  -4.682   0.398
H   -1.053  -4.703   1.720
H   -2.574  -2.451   1.372
H   -0.249   0.863   4.578
H    1.124   1.543   3.677
H    3.204   0.190  -2.189
H    3.617   0.777  -0.565
$end

$opt
CONSTRAINT
tors    2    1    3    5    167.3
tors    1    2    4    7    -66.6
ENDCONSTRAINT
$end

$rem
JOBTYPE                   OPT
METHOD                    B3LYP
DFT_D                     D3_OP
BASIS                     STO-3G
GEOM_OPT_MAX_CYCLES       500
SYMMETRY                  False
THRESH                    12
SCF_CONVERGENCE           8
MAX_SUB_FILE_NUM          128
MEM_STATIC                400
MEM_TOTAL                 4000
$end

--------------------------------------------------------------

   14    -755.6953363584      6.30E-09 Convergence criterion met
 Total energy in the final basis set = -755.6953363584
   13    -755.7249491488      4.34E-09 Convergence criterion met
 Total energy in the final basis set = -755.7249491488
   13    -755.7321329960      4.62E-09 Convergence criterion met
 Total energy in the final basis set = -755.7321329960
   12    -755.7327970605      4.83E-09 Convergence criterion met
 Total energy in the final basis set = -755.7327970605
   11    -755.7329546548      8.27E-09 Convergence criterion met
 Total energy in the final basis set = -755.7329546548
   11    -755.7330076210      4.71E-09 Convergence criterion met
 Total energy in the final basis set = -755.7330076210
   11    -755.7330531242      3.21E-09 Convergence criterion met
 Total energy in the final basis set = -755.7330531242
   11    -755.7331147258      2.74E-09 Convergence criterion met
 **  OPTIMIZATION CONVERGED  **
 Total job time:  62.65s(wall), 1460.78s(cpu)
        *  Thank you very much for using Q-Chem.  Have a nice day.  *

User input: 2 of 3

nid04578 10.128.18
Q-Chem Developer Version! Running on 10.128.18.*
                  Welcome to Q-Chem
     A Quantum Leap Into The Future Of Chemistry

 Q-Chem 5.0, Q-Chem, Inc., Pleasanton, CA (2017)

 Yihan Shao,  Zhengting Gan,  E. Epifanovsky,  A. T. B. Gilbert,  M. Wormit,
 J. Kussmann,  A. W. Lange,  A. Behn,  Jia Deng,  Xintian Feng,  D. Ghosh,
 M. Goldey,  P. R. Horn,  L. D. Jacobson,  I. Kaliman,  T. Kus,  A. Landau,
 Jie Liu,  E. I. Proynov,  R. M. Richard,  R. P. Steele,  E. J. Sundstrom,
 H. L. Woodcock III,  P. M. Zimmerman,  D. Zuev,  B. Albrecht,  E. Alguire,
 S. A. Baeppler,  Z. Benda,  Y. A. Bernard,  E. J. Berquist,  K. B. Bravaya,
 D. Casanova,  Chun-Min Chang,  Yunqing Chen,  A. Chien,  K. D. Closser,
 M. P. Coons,  S. Dasgupta,  M. Diedenhofen,  Hainam Do,  R. G. Edgar,
 Po-Tung Fang,  S. Fatehi,  Qingguo Feng,  Qinghui Ge,  A. Ghysels,
 J. Gomes,  J. Gonthier,  A. Gunina,  M. W. D. Hanson-Heine,
 P. H. P. Harbach,  A. W. Hauser,  J. E. Herr,  E. G. Hohenstein,
 Z. C. Holden,  Kerwin Hui,  T.-C. Jagau,  Hyunjun Ji,  B. Kaduk,
 K. Khistyaev,  Jaehoon Kim,  P. Klunzinger,  K. Koh,  D. Kosenkov,
 T. Kowalczyk,  C. M. Krauter,  A. Kunitsa,  Ka Un Lao,  A. Laurent,
 K. V. Lawler,  Joonho Lee,  D. Lefrancois,  S. Lehtola,  D. S. Levine,
 Yi-Pei Li,  You-Sheng Lin,  Fenglai Liu,  E. Livshits,  A. Luenser,
 P. Manohar,  E. Mansoor,  S. F. Manzer,  Shan-Ping Mao,  Yuezhi Mao,
 N. Mardirossian,  A. V. Marenich,  L. A. Martinez-Martinez,  S. A. Maurer,
 N. J. Mayhall,  S. C. McKenzie,  J.-M. Mewes,  A. F. Morrison,  K. Nanda,
 T. S. Nguyen-Beck,  R. Olivares-Amaya,  J. A. Parkhill,  T. M. Perrine,
 F. Plasser,  S. Prager,  A. Prociuk,  D. R. Rehn,  F. Rob,  M. Schneider,
 N. Sergueev,  S. M. Sharada,  S. Sharma,  D. W. Small,  T. Stauch,
 T. Stein,  Yu-Chuan Su,  A. J. W. Thom,  T. Tsuchimochi,  L. Vogt,
 O. Vydrov,  M. A. Watson,  J. Wenzel,  M. de Wergifosse,  T. A. Wesolowski,
 A. White,  J. Witte,  A. Yamada,  Jun Yang,  K. Yao,  S. Yeganeh,
 S. R. Yost,  Zhi-Qiang You,  A. Zech,  Igor Ying Zhang,  Xing Zhang,
 Yan Zhao,  Ying Zhu,  B. R. Brooks,  G. K. L. Chan,  C. J. Cramer,
 M. S. Gordon,  W. J. Hehre,  A. Klamt,  M. W. Schmidt,  C. D. Sherrill,
 D. G. Truhlar,  A. Aspuru-Guzik,  R. Baer,  A. T. Bell,  N. A. Besley,
 Jeng-Da Chai,  A. Dreuw,  B. D. Dunietz,  T. R. Furlani,  Chao-Ping Hsu,
 Yousung Jung,  Jing Kong,  D. S. Lambrecht,  WanZhen Liang,  C. Ochsenfeld,
 V. A. Rassolov,  L. V. Slipchenko,  J. E. Subotnik,  T. Van Voorhis,
 J. M. Herbert,  A. I. Krylov,  P. M. W. Gill,  M. Head-Gordon

 Contributors to earlier versions of Q-Chem not listed above:
 R. D. Adamson,  B. Austin,  J. Baker,  G. J. O. Beran,  K. Brandhorst,
 S. T. Brown,  E. F. C. Byrd,  A. K. Chakraborty,  C.-L. Cheng,
 Siu Hung Chien,  D. M. Chipman,  D. L. Crittenden,  H. Dachsel,
 R. A. DiStasio Jr.,  R. J. Doerksen,  A. D. Dutoi,  L. Fusti-Molnar,
 W. A. Goddard III,  A. Golubeva-Zadorozhnaya,  S. R. Gwaltney,  G. Hawkins,
 A. Heyden,  S. Hirata,  G. Kedziora,  F. J. Keil,  C. Kelley,  Jihan Kim,
 R. A. King,  R. Z. Khaliullin,  P. P. Korambath,  W. Kurlancheek,
 A. M. Lee,  M. S. Lee,  S. V. Levchenko,  Ching Yeh Lin,  D. Liotard,
 R. C. Lochan,  I. Lotan,  P. E. Maslen,  N. Nair,  D. P. O'Neill,
 D. Neuhauser,  E. Neuscamman,  C. M. Oana,  R. Olson,  B. Peters,
 R. Peverati,  P. A. Pieniazek,  Y. M. Rhee,  J. Ritchie,  M. A. Rohrdanz,
 E. Rosta,  N. J. Russ,  H. F. Schaefer III,  N. E. Schultz,  N. Shenvi,
 A. C. Simmonett,  A. Sodt,  D. Stuck,  K. S. Thanthiriwatte,  V. Vanovschi,
 Tao Wang,  A. Warshel,  C. F. Williams,  Q. Wu,  X. Xu,  W. Zhang

 Please cite Q-Chem as follows:
 Y. Shao et al., Mol. Phys. 113, 184-215 (2015)
 DOI: 10.1080/00268976.2014.952696

 Q-Chem 5.0.0 for Intel X86 EM64T Linux

 Parts of Q-Chem use Armadillo 5.200.1 (Boston Tea Smuggler).
 http://arma.sourceforge.net/

 Q-Chem begins on Wed Oct  4 17:30:57 2017

Host: nid04578
0

     Scratch files written to /global/cscratch1/sd/junteng/scratch/13/opt_1001+-.save//
The previous job contains 0 fragments, simply inherited here

Checking the input file for inconsistencies... 	...done.

--------------------------------------------------------------
User input:
--------------------------------------------------------------

$molecule
   read
$end

$rem
JOBTYPE                   OPT
METHOD                    B3LYP
DFT_D                     D3_OP
BASIS                     6-311++G(d,p)
GEOM_OPT_MAX_CYCLES       500
GEOM_OPT_TOL_GRADIENT     1
GEOM_OPT_TOL_DISPLACEMENT 1
GEOM_OPT_TOL_ENERGY       1
SYMMETRY                  False
THRESH                    12
SCF_CONVERGENCE           8
MAX_SUB_FILE_NUM          128
MEM_STATIC                400
MEM_TOTAL                 4000
$end

--------------------------------------------------------------

    8    -765.8625374497      8.32E-09 Convergence criterion met
 Total energy in the final basis set = -765.8625374497
    9    -765.8625383342      6.26E-09 Convergence criterion met
 Total energy in the final basis set = -765.8625383342
    8    -765.8625387559      7.04E-09 Convergence criterion met
 Total energy in the final basis set = -765.8625387559
    8    -765.8625387508      5.28E-09 Convergence criterion met
 Total energy in the final basis set = -765.8625387508
    6    -765.8625387551      6.21E-09 Convergence criterion met
 Total energy in the final basis set = -765.8625387551
    5    -765.8625387465      4.83E-09 Convergence criterion met
 Total energy in the final basis set = -765.8625387465
 Final energy is   -765.862538746541
        *  Thank you very much for using Q-Chem.  Have a nice day.  *
 Q-Chem 5.0, Q-Chem, Inc., Pleasanton, CA (2017)
 Q-Chem 5.0.0 for Intel X86 EM64T Linux

             Standard Nuclear Orientation (Angstroms)
    I     Atom           X                Y                Z
 ----------------------------------------------------------------
    1      C      -0.3756095800    -0.6751110722     0.5804643032
    2      C      -0.6367008535     0.8661893361     0.5055674871
    3      C       0.8922013393    -1.1615700975    -0.0873558170
    4      C       0.5120771081     1.7268114879     0.0083692724
    5      O       1.2853491813    -2.3318488502     0.4676903117
    6      O       1.4619929778    -0.6427208141    -1.0131965034
    7      O       1.5804398957     1.5880749939     0.8236510359
    8      O       0.4690670172     2.4887856648    -0.9219418900
    9      C       2.7763001424     2.2753765124     0.4128662807
   10      C       2.4468022482    -2.9485041333    -0.1198722786
   11      C      -1.6127755500    -1.1965272842    -0.2231363433
   12      C      -2.8959466927    -0.9930298399     0.6157950862
   13      C      -3.1291526048     0.5393822394     0.4387806873
   14      C      -1.8932518958     0.9273720193    -0.3973804793
   15      O      -1.7343382491    -0.2175728506    -1.2544521609
   16      H      -0.3839359336    -1.0450514788     1.6044622293
   17      H      -0.8595411248     1.2329027684     1.5116086511
   18      H       3.1131268684     1.8855811476    -0.5489748819
   19      H       2.2795888384    -3.1488750264    -1.1790898947
   20      H      -1.4855103790    -2.1857979675    -0.6581607694
   21      H      -3.7175596841    -1.5746479698     0.1954196227
   22      H      -2.7657110226    -1.2946161133     1.6571049943
   23      H      -4.0420239834     0.7382082513    -0.1242484082
   24      H      -3.1879681181     1.0806980127     1.3851897541
   25      H      -1.9665393310     1.8284358676    -0.9984424634
   26      H       2.5932494315     3.3473527174     0.3286681881
   27      H       3.5107344375     2.0709420927     1.1891207412
   28      H       2.5915284099    -3.8762568491     0.4293345370
   29      H       3.3168130404    -2.2989556115    -0.0105878368
 ----------------------------------------------------------------

   15    -765.8625106801      3.44E-09 Convergence criterion met
 Total energy in the final basis set = -765.8625106801

                    Orbital Energies (a.u.)
 --------------------------------------------------------------

 Alpha MOs
 -- Occupied --
-19.177 -19.167 -19.131 -19.119 -19.111 -10.308 -10.302 -10.240
-10.232 -10.229 -10.222 -10.207 -10.203 -10.183 -10.180  -1.118
 -1.108  -1.064  -1.031  -1.023  -0.831  -0.784  -0.777  -0.738
 -0.725  -0.654  -0.605  -0.597  -0.577  -0.560  -0.546  -0.519
 -0.504  -0.492  -0.488  -0.485  -0.478  -0.471  -0.459  -0.430
 -0.421  -0.420  -0.413  -0.396  -0.386  -0.374  -0.367  -0.367
 -0.360  -0.358  -0.339  -0.332  -0.320  -0.307  -0.291  -0.281
 -0.272

          Ground-State Mulliken Net Atomic Charges

     Atom                 Charge (a.u.)
  ----------------------------------------
      1 C                     0.096696
      2 C                     0.096705
      3 C                    -0.676027
      4 C                    -0.414603
      5 O                    -0.023610
      6 O                    -0.202235
      7 O                    -0.044292
      8 O                    -0.219949
      9 C                    -0.187896
     10 C                    -0.236470
     11 C                     0.338337
     12 C                    -0.474818
     13 C                    -0.446261
     14 C                    -0.164290
     15 O                    -0.144100
     16 H                     0.287029
     17 H                     0.233702
     18 H                     0.189809
     19 H                     0.183420
     20 H                     0.265545
     21 H                     0.180579
     22 H                     0.122135
     23 H                     0.192186
     24 H                     0.125588
     25 H                     0.285031
     26 H                     0.166016
     27 H                     0.148566
     28 H                     0.151722
     29 H                     0.171485
  ----------------------------------------
  Sum of atomic charges =     0.000000

                    Cartesian Multipole Moments
 -----------------------------------------------------------------
    Charge (ESU x 10^10)
                 0.0000
    Dipole Moment (Debye)
         X       0.1087      Y      -2.1231      Z       3.7432
       Tot       4.3048
    Quadrupole Moments (Debye-Ang)
        XX     -76.3332     XY      -1.9261     YY     -83.8530
        XZ      -1.1076     YZ       5.1818     ZZ     -95.3459

 Frequency:        13.56                  59.90                  82.13
 Force Cnst:      0.0004                 0.0072                 0.0149
 Red. Mass:       4.1019                 3.4263                 3.7403
 IR Intens:        0.574                  0.844                  3.251
 Frequency:        86.79                 101.66                 134.44
 Force Cnst:      0.0127                 0.0088                 0.0284
 Red. Mass:       2.8507                 1.4473                 2.6681
 IR Intens:        0.181                  1.656                  0.445
 Frequency:       141.46                 146.71                 195.84
 Force Cnst:      0.0197                 0.0293                 0.0909
 Red. Mass:       1.6666                 2.3077                 4.0241
 IR Intens:        1.238                  1.807                  0.252
 Frequency:       218.36                 243.08                 273.47
 Force Cnst:      0.1486                 0.1172                 0.2211
 Red. Mass:       5.2906                 3.3675                 5.0189
 IR Intens:        2.149                  3.718                  7.474
 Frequency:       294.28                 329.09                 336.53
 Force Cnst:      0.1597                 0.2292                 0.2852
 Red. Mass:       3.1300                 3.5923                 4.2742
 IR Intens:        5.687                  5.189                 11.557
 Frequency:       372.36                 465.91                 563.34
 Force Cnst:      0.4653                 0.6417                 0.8090
 Red. Mass:       5.6958                 5.0170                 4.3265
 IR Intens:        9.676                 10.168                 22.081
 Frequency:       628.82                 657.28                 691.16
 Force Cnst:      1.4694                 1.1533                 1.6213
 Red. Mass:       6.3071                 4.5310                 5.7604
 IR Intens:       13.483                  1.213                  4.276
 Frequency:       740.78                 797.72                 816.10
 Force Cnst:      1.7721                 1.6831                 0.9033
 Red. Mass:       5.4809                 4.4891                 2.3018
 IR Intens:        7.587                  7.247                  6.123
 Frequency:       829.47                 836.45                 860.61
 Force Cnst:      1.3009                 2.0590                 1.5878
 Red. Mass:       3.2093                 4.9950                 3.6385
 IR Intens:       19.954                  2.793                  1.959
 Frequency:       898.29                 907.50                 916.26
 Force Cnst:      1.2618                 1.3466                 1.5401
 Red. Mass:       2.6540                 2.7753                 3.1136
 IR Intens:        3.022                 12.413                  4.139
 Frequency:       934.79                 957.84                 973.63
 Force Cnst:      1.6849                 3.0484                 1.3346
 Red. Mass:       3.2726                 5.6394                 2.3895
 IR Intens:       25.499                 33.573                 18.117
 Frequency:       984.29                1016.17                1027.04
 Force Cnst:      2.5059                 1.9703                 2.3206
 Red. Mass:       4.3900                 3.2387                 3.7340
 IR Intens:        4.352                 29.377                 20.252
 Frequency:      1065.98                1072.16                1073.11
 Force Cnst:      2.3681                 1.6629                 1.3362
 Red. Mass:       3.5370                 2.4552                 1.9694
 IR Intens:       33.786                  7.595                 23.881
 Frequency:      1163.25                1171.59                1173.08
 Force Cnst:      1.0014                 1.0463                 1.2484
 Red. Mass:       1.2561                 1.2938                 1.5398
 IR Intens:       52.696                  3.398                 84.403
 Frequency:      1176.27                1200.75                1207.36
 Force Cnst:      1.5308                 1.3158                 1.4955
 Red. Mass:       1.8778                 1.5490                 1.7413
 IR Intens:      162.653                  4.034                125.747
 Frequency:      1211.64                1216.39                1232.21
 Force Cnst:      1.3848                 1.6501                 1.0877
 Red. Mass:       1.6010                 1.8928                 1.2158
 IR Intens:       62.572                232.081                 17.956
 Frequency:      1242.19                1248.93                1282.20
 Force Cnst:      1.3433                 1.4497                 1.2130
 Red. Mass:       1.4776                 1.5774                 1.2523
 IR Intens:       19.315                 26.258                  2.688
 Frequency:      1287.11                1314.38                1319.08
 Force Cnst:      1.5191                 1.4385                 1.5029
 Red. Mass:       1.5564                 1.4133                 1.4660
 IR Intens:       20.996                  1.683                 43.386
 Frequency:      1351.94                1372.15                1387.43
 Force Cnst:      1.6901                 1.7918                 1.9802
 Red. Mass:       1.5694                 1.6152                 1.7460
 IR Intens:       29.770                 78.800                 37.351
 Frequency:      1470.02                1471.01                1481.99
 Force Cnst:      1.5223                 1.5308                 1.3517
 Red. Mass:       1.1957                 1.2007                 1.0446
 IR Intens:       18.380                 11.734                  8.839
 Frequency:      1484.75                1490.60                1497.45
 Force Cnst:      1.3548                 1.4164                 1.3850
 Red. Mass:       1.0431                 1.0819                 1.0483
 IR Intens:       10.410                  2.420                 11.576
 Frequency:      1499.44                1510.97                1794.97
 Force Cnst:      1.3849                 1.4807                21.7433
 Red. Mass:       1.0455                 1.1008                11.4541
 IR Intens:        7.236                  6.078                 67.285
 Frequency:      1804.10                3049.43                3050.11
 Force Cnst:     21.9725                 5.6415                 5.6415
 Red. Mass:      11.4580                 1.0297                 1.0292
 IR Intens:      389.100                 27.716                 42.399
 Frequency:      3056.62                3060.95                3067.73
 Force Cnst:      5.8682                 5.9301                 5.8930
 Red. Mass:       1.0660                 1.0742                 1.0628
 IR Intens:       13.367                 17.158                 36.268
 Frequency:      3096.04                3111.44                3117.84
 Force Cnst:      6.2516                 6.2521                 6.2805
 Red. Mass:       1.1070                 1.0961                 1.0966
 IR Intens:        0.570                 12.180                 32.384
 Frequency:      3122.35                3125.24                3130.16
 Force Cnst:      6.3584                 6.3725                 6.2917
 Red. Mass:       1.1070                 1.1074                 1.0899
 IR Intens:       18.510                 15.420                 22.104
 Frequency:      3153.45                3156.23                3164.05
 Force Cnst:      6.4832                 6.4925                 6.4328
 Red. Mass:       1.1065                 1.1062                 1.0906
 IR Intens:       13.981                 14.394                  5.705

 STANDARD THERMODYNAMIC QUANTITIES AT   298.15 K  AND     1.00 ATM

   This Molecule has  0 Imaginary Frequencies
   Zero point vibrational energy:      149.060 kcal/mol

   Atom    1 Element C  Has Mass   12.00000
   Atom    2 Element C  Has Mass   12.00000
   Atom    3 Element C  Has Mass   12.00000
   Atom    4 Element C  Has Mass   12.00000
   Atom    5 Element O  Has Mass   15.99491
   Atom    6 Element O  Has Mass   15.99491
   Atom    7 Element O  Has Mass   15.99491
   Atom    8 Element O  Has Mass   15.99491
   Atom    9 Element C  Has Mass   12.00000
   Atom   10 Element C  Has Mass   12.00000
   Atom   11 Element C  Has Mass   12.00000
   Atom   12 Element C  Has Mass   12.00000
   Atom   13 Element C  Has Mass   12.00000
   Atom   14 Element C  Has Mass   12.00000
   Atom   15 Element O  Has Mass   15.99491
   Atom   16 Element H  Has Mass    1.00783
   Atom   17 Element H  Has Mass    1.00783
   Atom   18 Element H  Has Mass    1.00783
   Atom   19 Element H  Has Mass    1.00783
   Atom   20 Element H  Has Mass    1.00783
   Atom   21 Element H  Has Mass    1.00783
   Atom   22 Element H  Has Mass    1.00783
   Atom   23 Element H  Has Mass    1.00783
   Atom   24 Element H  Has Mass    1.00783
   Atom   25 Element H  Has Mass    1.00783
   Atom   26 Element H  Has Mass    1.00783
   Atom   27 Element H  Has Mass    1.00783
   Atom   28 Element H  Has Mass    1.00783
   Atom   29 Element H  Has Mass    1.00783
   Molecular Mass:   214.084170 amu
   Principal axes and moments of inertia in amu*Bohr^2:
                             1           2           3
    Eigenvalues --     2422.85346  2993.53255  4683.35457
          X               0.99993    -0.00602    -0.01020
          Y               0.00609     0.99996     0.00689
          Z               0.01016    -0.00695     0.99992
   Rotational Symmetry Number is   1
   The Molecule is an Asymmetric Top
   Translational Enthalpy:        0.889 kcal/mol
   Rotational Enthalpy:           0.889 kcal/mol
   Vibrational Enthalpy:        156.337 kcal/mol
   gas constant (RT):             0.592 kcal/mol
   Translational Entropy:        41.987  cal/mol.K
   Rotational Entropy:           31.896  cal/mol.K
   Vibrational Entropy:          49.241  cal/mol.K

   Total Enthalpy:              158.707 kcal/mol
   Total Entropy:               123.124  cal/mol.K

 Total job time:  7413.35s(wall), 39606.24s(cpu)
        *  Thank you very much for using Q-Chem.  Have a nice day.  *
