 Q-Chem 5.0, Q-Chem, Inc., Pleasanton, CA (2017)
 Q-Chem 5.0.0 for Intel X86 EM64T Linux

User input:
--------------------------------------------------------------
$molecule
0  1
C    0.469  -2.369   0.246
C   -0.100  -2.666   1.497
C    0.820  -0.970  -0.128
C   -0.250  -1.617   2.525
O    1.710  -0.973  -1.154
O    0.353   0.027   0.395
O    0.994  -1.244   2.918
O   -1.315  -1.271   3.005
C    0.990  -0.231   3.923
C    2.104   0.331  -1.586
C    0.633  -3.406  -0.690
C    0.237  -4.708  -0.384
C   -0.335  -4.993   0.854
C   -0.510  -3.982   1.810
H    0.475   0.666   3.564
H    1.246   0.871  -1.997
H   -0.645  -6.015   1.070
H    0.524  -0.605   4.840
H    2.028   0.031   4.144
H    2.851   0.214  -2.376
H    2.557   0.890  -0.761
H    0.365  -5.501  -1.118
H    1.053  -3.209  -1.674
C   -1.128  -4.326   3.139
H   -2.093  -3.824   3.253
H   -0.462  -4.036   3.958
H   -1.304  -5.403   3.231
$end

$opt
CONSTRAINT
tors    2    1    3    5    158.6
tors    1    2    4    7    -62.3
ENDCONSTRAINT
$end

$rem
JOBTYPE                   OPT
METHOD                    B3LYP
DFT_D                     D3_OP
BASIS                     STO-3G
GEOM_OPT_MAX_CYCLES       500
SYMMETRY                  False
THRESH                    12
SCF_CONVERGENCE           8
MAX_SUB_FILE_NUM          128
MEM_STATIC                400
MEM_TOTAL                 4000
$end

--------------------------------------------------------------

   15    -717.9257267684      8.11E-09 Convergence criterion met
 Total energy in the final basis set = -717.9257267684
   14    -717.9521348123      6.29E-09 Convergence criterion met
 Total energy in the final basis set = -717.9521348123
   13    -717.9540091007      7.22E-09 Convergence criterion met
 Total energy in the final basis set = -717.9540091007
   12    -717.9542332314      5.98E-09 Convergence criterion met
 Total energy in the final basis set = -717.9542332314
   11    -717.9542515360      5.14E-09 Convergence criterion met
 Total energy in the final basis set = -717.9542515360
   11    -717.9542571778      4.14E-09 Convergence criterion met
 Total energy in the final basis set = -717.9542571778
   11    -717.9542640315      2.68E-09 Convergence criterion met
 Total energy in the final basis set = -717.9542640315
   11    -717.9542748211      3.60E-09 Convergence criterion met
 **  OPTIMIZATION CONVERGED  **
 Total job time:  52.67s(wall), 1234.83s(cpu)
        *  Thank you very much for using Q-Chem.  Have a nice day.  *

User input: 2 of 3

nid01039 10.128.4
Q-Chem Developer Version! Running on 10.128.4.*
                  Welcome to Q-Chem
     A Quantum Leap Into The Future Of Chemistry

 Q-Chem 5.0, Q-Chem, Inc., Pleasanton, CA (2017)

 Yihan Shao,  Zhengting Gan,  E. Epifanovsky,  A. T. B. Gilbert,  M. Wormit,
 J. Kussmann,  A. W. Lange,  A. Behn,  Jia Deng,  Xintian Feng,  D. Ghosh,
 M. Goldey,  P. R. Horn,  L. D. Jacobson,  I. Kaliman,  T. Kus,  A. Landau,
 Jie Liu,  E. I. Proynov,  R. M. Richard,  R. P. Steele,  E. J. Sundstrom,
 H. L. Woodcock III,  P. M. Zimmerman,  D. Zuev,  B. Albrecht,  E. Alguire,
 S. A. Baeppler,  Z. Benda,  Y. A. Bernard,  E. J. Berquist,  K. B. Bravaya,
 D. Casanova,  Chun-Min Chang,  Yunqing Chen,  A. Chien,  K. D. Closser,
 M. P. Coons,  S. Dasgupta,  M. Diedenhofen,  Hainam Do,  R. G. Edgar,
 Po-Tung Fang,  S. Fatehi,  Qingguo Feng,  Qinghui Ge,  A. Ghysels,
 J. Gomes,  J. Gonthier,  A. Gunina,  M. W. D. Hanson-Heine,
 P. H. P. Harbach,  A. W. Hauser,  J. E. Herr,  E. G. Hohenstein,
 Z. C. Holden,  Kerwin Hui,  T.-C. Jagau,  Hyunjun Ji,  B. Kaduk,
 K. Khistyaev,  Jaehoon Kim,  P. Klunzinger,  K. Koh,  D. Kosenkov,
 T. Kowalczyk,  C. M. Krauter,  A. Kunitsa,  Ka Un Lao,  A. Laurent,
 K. V. Lawler,  Joonho Lee,  D. Lefrancois,  S. Lehtola,  D. S. Levine,
 Yi-Pei Li,  You-Sheng Lin,  Fenglai Liu,  E. Livshits,  A. Luenser,
 P. Manohar,  E. Mansoor,  S. F. Manzer,  Shan-Ping Mao,  Yuezhi Mao,
 N. Mardirossian,  A. V. Marenich,  L. A. Martinez-Martinez,  S. A. Maurer,
 N. J. Mayhall,  S. C. McKenzie,  J.-M. Mewes,  A. F. Morrison,  K. Nanda,
 T. S. Nguyen-Beck,  R. Olivares-Amaya,  J. A. Parkhill,  T. M. Perrine,
 F. Plasser,  S. Prager,  A. Prociuk,  D. R. Rehn,  F. Rob,  M. Schneider,
 N. Sergueev,  S. M. Sharada,  S. Sharma,  D. W. Small,  T. Stauch,
 T. Stein,  Yu-Chuan Su,  A. J. W. Thom,  T. Tsuchimochi,  L. Vogt,
 O. Vydrov,  M. A. Watson,  J. Wenzel,  M. de Wergifosse,  T. A. Wesolowski,
 A. White,  J. Witte,  A. Yamada,  Jun Yang,  K. Yao,  S. Yeganeh,
 S. R. Yost,  Zhi-Qiang You,  A. Zech,  Igor Ying Zhang,  Xing Zhang,
 Yan Zhao,  Ying Zhu,  B. R. Brooks,  G. K. L. Chan,  C. J. Cramer,
 M. S. Gordon,  W. J. Hehre,  A. Klamt,  M. W. Schmidt,  C. D. Sherrill,
 D. G. Truhlar,  A. Aspuru-Guzik,  R. Baer,  A. T. Bell,  N. A. Besley,
 Jeng-Da Chai,  A. Dreuw,  B. D. Dunietz,  T. R. Furlani,  Chao-Ping Hsu,
 Yousung Jung,  Jing Kong,  D. S. Lambrecht,  WanZhen Liang,  C. Ochsenfeld,
 V. A. Rassolov,  L. V. Slipchenko,  J. E. Subotnik,  T. Van Voorhis,
 J. M. Herbert,  A. I. Krylov,  P. M. W. Gill,  M. Head-Gordon

 Contributors to earlier versions of Q-Chem not listed above:
 R. D. Adamson,  B. Austin,  J. Baker,  G. J. O. Beran,  K. Brandhorst,
 S. T. Brown,  E. F. C. Byrd,  A. K. Chakraborty,  C.-L. Cheng,
 Siu Hung Chien,  D. M. Chipman,  D. L. Crittenden,  H. Dachsel,
 R. A. DiStasio Jr.,  R. J. Doerksen,  A. D. Dutoi,  L. Fusti-Molnar,
 W. A. Goddard III,  A. Golubeva-Zadorozhnaya,  S. R. Gwaltney,  G. Hawkins,
 A. Heyden,  S. Hirata,  G. Kedziora,  F. J. Keil,  C. Kelley,  Jihan Kim,
 R. A. King,  R. Z. Khaliullin,  P. P. Korambath,  W. Kurlancheek,
 A. M. Lee,  M. S. Lee,  S. V. Levchenko,  Ching Yeh Lin,  D. Liotard,
 R. C. Lochan,  I. Lotan,  P. E. Maslen,  N. Nair,  D. P. O'Neill,
 D. Neuhauser,  E. Neuscamman,  C. M. Oana,  R. Olson,  B. Peters,
 R. Peverati,  P. A. Pieniazek,  Y. M. Rhee,  J. Ritchie,  M. A. Rohrdanz,
 E. Rosta,  N. J. Russ,  H. F. Schaefer III,  N. E. Schultz,  N. Shenvi,
 A. C. Simmonett,  A. Sodt,  D. Stuck,  K. S. Thanthiriwatte,  V. Vanovschi,
 Tao Wang,  A. Warshel,  C. F. Williams,  Q. Wu,  X. Xu,  W. Zhang

 Please cite Q-Chem as follows:
 Y. Shao et al., Mol. Phys. 113, 184-215 (2015)
 DOI: 10.1080/00268976.2014.952696

 Q-Chem 5.0.0 for Intel X86 EM64T Linux

 Parts of Q-Chem use Armadillo 5.200.1 (Boston Tea Smuggler).
 http://arma.sourceforge.net/

 Q-Chem begins on Wed Oct  4 18:05:20 2017

Host: nid01039
0

     Scratch files written to /global/cscratch1/sd/junteng/scratch/17/opt_11n01-+.save//
The previous job contains 0 fragments, simply inherited here

Checking the input file for inconsistencies... 	...done.

--------------------------------------------------------------
User input:
--------------------------------------------------------------

$molecule
   read
$end

$rem
JOBTYPE                   OPT
METHOD                    B3LYP
DFT_D                     D3_OP
BASIS                     6-311++G(d,p)
GEOM_OPT_MAX_CYCLES       500
GEOM_OPT_TOL_GRADIENT     1
GEOM_OPT_TOL_DISPLACEMENT 1
GEOM_OPT_TOL_ENERGY       1
SYMMETRY                  False
THRESH                    12
SCF_CONVERGENCE           8
MAX_SUB_FILE_NUM          128
MEM_STATIC                400
MEM_TOTAL                 4000
$end

--------------------------------------------------------------

    9    -727.5471935161      8.40E-09 Convergence criterion met
 Total energy in the final basis set = -727.5471935161
    8    -727.5471933002      4.42E-09 Convergence criterion met
 Total energy in the final basis set = -727.5471933002
    7    -727.5471934402      4.46E-09 Convergence criterion met
 Total energy in the final basis set = -727.5471934402
    6    -727.5471934285      3.41E-09 Convergence criterion met
 Total energy in the final basis set = -727.5471934285
    5    -727.5471934492      9.33E-09 Convergence criterion met
 Total energy in the final basis set = -727.5471934492
    5    -727.5471934489      5.39E-09 Convergence criterion met
 Total energy in the final basis set = -727.5471934489
 Final energy is   -727.547193448877
        *  Thank you very much for using Q-Chem.  Have a nice day.  *
 Q-Chem 5.0, Q-Chem, Inc., Pleasanton, CA (2017)
 Q-Chem 5.0.0 for Intel X86 EM64T Linux

             Standard Nuclear Orientation (Angstroms)
    I     Atom           X                Y                Z
 ----------------------------------------------------------------
    1      C       0.5052675111    -0.8428990562    -0.0006098087
    2      C      -0.7697510297    -0.2581352655    -0.0862794668
    3      C       1.7210324755     0.0093506658    -0.1413562551
    4      C      -0.9495439825     1.2229793733    -0.2827686028
    5      O       2.8568464352    -0.6773930161     0.1049719614
    6      O       1.7143450680     1.1784697868    -0.4528308195
    7      O      -0.7476422507     1.8909339492     0.8651271279
    8      O      -1.3100684127     1.7287530594    -1.3158444133
    9      C      -0.7768678102     3.3273185368     0.7633527629
   10      C       4.0830117712     0.0593995948    -0.0434965161
   11      C       0.6237674243    -2.2275826647     0.1707098540
   12      C      -0.5142432941    -3.0180828663     0.2559197549
   13      C      -1.7737794999    -2.4322861136     0.1647495522
   14      C      -1.9249647630    -1.0541314847    -0.0112215893
   15      H       0.0158388325     3.6605530698     0.0920990311
   16      H       4.1796426593     0.4365481939    -1.0626686855
   17      H      -2.6610092088    -3.0535809802     0.2286746563
   18      H      -1.7427043156     3.6674976409     0.3873129831
   19      H      -0.6054812297     3.6924287473     1.7734715326
   20      H       4.8749995968    -0.6520208956     0.1797761634
   21      H       4.1107517867     0.8976223891     0.6541680852
   22      H      -0.4224142196    -4.0898710028     0.3896785481
   23      H       1.6080555346    -2.6703709864     0.2298016265
   24      C      -3.3041171583    -0.4498688877    -0.1249082227
   25      H      -3.4735419935    -0.0525663294    -1.1288958868
   26      H      -3.4393631741     0.3782209494     0.5766084152
   27      H      -4.0714908532    -1.1969420234     0.0840339034
 ----------------------------------------------------------------

   15    -727.5472273646      5.85E-09 Convergence criterion met
 Total energy in the final basis set = -727.5472273646

                    Orbital Energies (a.u.)
 --------------------------------------------------------------

 Alpha MOs
 -- Occupied --
-19.178 -19.168 -19.120 -19.112 -10.312 -10.306 -10.233 -10.221
-10.207 -10.207 -10.204 -10.192 -10.192 -10.191 -10.174  -1.120
 -1.110  -1.031  -1.024  -0.885  -0.801  -0.790  -0.747  -0.726
 -0.700  -0.653  -0.624  -0.580  -0.571  -0.543  -0.519  -0.501
 -0.495  -0.490  -0.479  -0.477  -0.462  -0.444  -0.434  -0.429
 -0.423  -0.416  -0.403  -0.393  -0.381  -0.371  -0.369  -0.366
 -0.357  -0.321  -0.307  -0.293  -0.290  -0.271  -0.261

          Ground-State Mulliken Net Atomic Charges

     Atom                 Charge (a.u.)
  ----------------------------------------
      1 C                     0.102979
      2 C                     0.766026
      3 C                    -0.051604
      4 C                    -0.930731
      5 O                    -0.104273
      6 O                    -0.225818
      7 O                     0.080606
      8 O                    -0.135945
      9 C                    -0.216856
     10 C                    -0.213912
     11 C                    -0.363665
     12 C                    -0.075779
     13 C                    -0.629558
     14 C                     0.462420
     15 H                     0.191861
     16 H                     0.187092
     17 H                     0.118349
     18 H                     0.161490
     19 H                     0.150238
     20 H                     0.153931
     21 H                     0.178462
     22 H                     0.183349
     23 H                     0.185218
     24 C                    -0.501810
     25 H                     0.193502
     26 H                     0.172403
     27 H                     0.162024
  ----------------------------------------
  Sum of atomic charges =     0.000000

                    Cartesian Multipole Moments
 -----------------------------------------------------------------
    Charge (ESU x 10^10)
                 0.0000
    Dipole Moment (Debye)
         X       0.7561      Y      -1.7089      Z       2.0047
       Tot       2.7406
    Quadrupole Moments (Debye-Ang)
        XX     -72.3814     XY       1.4419     YY     -79.2048
        XZ      -2.2535     YZ       5.4112     ZZ     -94.0197

 Frequency:        17.05                  63.51                  78.24
 Force Cnst:      0.0008                 0.0084                 0.0109
 Red. Mass:       4.7632                 3.5515                 3.0302
 IR Intens:        1.009                  1.158                  2.624
 Frequency:        93.93                 110.77                 120.64
 Force Cnst:      0.0096                 0.0114                 0.0128
 Red. Mass:       1.8565                 1.5824                 1.4970
 IR Intens:        1.129                  2.568                  0.022
 Frequency:       136.43                 144.43                 159.06
 Force Cnst:      0.0257                 0.0143                 0.0548
 Red. Mass:       2.3409                 1.1656                 3.6741
 IR Intens:        1.156                  0.889                  1.693
 Frequency:       183.95                 217.04                 238.79
 Force Cnst:      0.0912                 0.0947                 0.1708
 Red. Mass:       4.5771                 3.4133                 5.0840
 IR Intens:        0.030                  3.277                  4.023
 Frequency:       280.59                 298.69                 316.10
 Force Cnst:      0.2245                 0.2256                 0.3289
 Red. Mass:       4.8390                 4.2918                 5.5861
 IR Intens:        3.203                 10.390                  5.808
 Frequency:       354.46                 383.85                 431.83
 Force Cnst:      0.3112                 0.4802                 0.5092
 Red. Mass:       4.2037                 5.5314                 4.6347
 IR Intens:       15.893                  8.249                  1.229
 Frequency:       487.25                 506.43                 565.26
 Force Cnst:      0.6048                 0.6800                 0.8524
 Red. Mass:       4.3239                 4.5000                 4.5280
 IR Intens:        3.731                  2.762                  0.523
 Frequency:       590.92                 710.28                 733.56
 Force Cnst:      1.0100                 1.9180                 2.0531
 Red. Mass:       4.9094                 6.4525                 6.4759
 IR Intens:        5.646                  8.119                  3.496
 Frequency:       760.48                 781.64                 798.42
 Force Cnst:      1.2467                 0.7466                 2.0751
 Red. Mass:       3.6588                 2.0740                 5.5250
 IR Intens:       47.339                 40.747                  5.876
 Frequency:       829.55                 840.91                 895.10
 Force Cnst:      1.2813                 2.1213                 2.2994
 Red. Mass:       3.1602                 5.0916                 4.8710
 IR Intens:        0.970                  4.373                 12.544
 Frequency:       937.45                 977.48                 998.46
 Force Cnst:      0.7094                 3.5232                 0.7918
 Red. Mass:       1.3701                 6.2586                 1.3481
 IR Intens:        0.092                  9.572                  0.193
 Frequency:      1004.16                1044.06                1062.79
 Force Cnst:      1.4788                 1.7791                 1.0258
 Red. Mass:       2.4891                 2.7701                 1.5415
 IR Intens:        7.020                 21.976                  2.139
 Frequency:      1095.78                1138.54                1169.46
 Force Cnst:      2.2897                 1.7715                 1.0384
 Red. Mass:       3.2365                 2.3195                 1.2887
 IR Intens:       93.925                 84.460                  0.923
 Frequency:      1172.82                1173.50                1198.03
 Force Cnst:      1.0377                 1.9089                 1.1090
 Red. Mass:       1.2804                 2.3526                 1.3114
 IR Intens:        0.977                125.558                  1.886
 Frequency:      1210.67                1216.89                1268.51
 Force Cnst:      1.3659                 1.7211                 1.8422
 Red. Mass:       1.5817                 1.9726                 1.9431
 IR Intens:       28.729                130.833                 64.185
 Frequency:      1286.67                1295.20                1326.59
 Force Cnst:      5.8913                 3.5597                 7.7073
 Red. Mass:       6.0398                 3.6016                 7.4332
 IR Intens:      297.039                348.485                 17.405
 Frequency:      1418.26                1459.94                1468.81
 Force Cnst:      1.4633                 1.8636                 1.5505
 Red. Mass:       1.2347                 1.4840                 1.2198
 IR Intens:        4.299                 10.035                  9.895
 Frequency:      1474.31                1481.52                1482.03
 Force Cnst:      1.8781                 1.3623                 1.3527
 Red. Mass:       1.4665                 1.0534                 1.0453
 IR Intens:       57.162                  8.811                 11.242
 Frequency:      1488.61                1489.20                1495.17
 Force Cnst:      2.0532                 1.9072                 1.3802
 Red. Mass:       1.5726                 1.4596                 1.0479
 IR Intens:        8.007                  5.826                  7.295
 Frequency:      1497.83                1507.69                1616.27
 Force Cnst:      1.3925                 1.7454                10.3618
 Red. Mass:       1.0535                 1.3032                 6.7322
 IR Intens:       10.569                  3.371                 10.013
 Frequency:      1629.84                1766.49                1787.22
 Force Cnst:      9.0227                21.5754                22.3028
 Red. Mass:       5.7649                11.7351                11.8510
 IR Intens:        9.920                250.315                271.914
 Frequency:      3034.95                3050.04                3050.51
 Force Cnst:      5.6247                 5.6432                 5.6431
 Red. Mass:       1.0364                 1.0296                 1.0293
 IR Intens:       18.064                 33.883                 39.647
 Frequency:      3090.29                3111.63                3123.05
 Force Cnst:      6.1892                 6.2885                 6.3615
 Red. Mass:       1.1000                 1.1024                 1.1070
 IR Intens:        8.583                 15.243                 17.416
 Frequency:      3126.22                3156.30                3157.19
 Force Cnst:      6.3754                 6.4931                 6.4978
 Red. Mass:       1.1072                 1.1062                 1.1064
 IR Intens:       13.567                 14.211                 13.904
 Frequency:      3165.12                3184.59                3220.80
 Force Cnst:      6.4218                 6.5338                 6.6793
 Red. Mass:       1.0880                 1.0935                 1.0928
 IR Intens:        7.090                 15.408                  2.060

 STANDARD THERMODYNAMIC QUANTITIES AT   298.15 K  AND     1.00 ATM

   This Molecule has  0 Imaginary Frequencies
   Zero point vibrational energy:      133.293 kcal/mol

   Atom    1 Element C  Has Mass   12.00000
   Atom    2 Element C  Has Mass   12.00000
   Atom    3 Element C  Has Mass   12.00000
   Atom    4 Element C  Has Mass   12.00000
   Atom    5 Element O  Has Mass   15.99491
   Atom    6 Element O  Has Mass   15.99491
   Atom    7 Element O  Has Mass   15.99491
   Atom    8 Element O  Has Mass   15.99491
   Atom    9 Element C  Has Mass   12.00000
   Atom   10 Element C  Has Mass   12.00000
   Atom   11 Element C  Has Mass   12.00000
   Atom   12 Element C  Has Mass   12.00000
   Atom   13 Element C  Has Mass   12.00000
   Atom   14 Element C  Has Mass   12.00000
   Atom   15 Element H  Has Mass    1.00783
   Atom   16 Element H  Has Mass    1.00783
   Atom   17 Element H  Has Mass    1.00783
   Atom   18 Element H  Has Mass    1.00783
   Atom   19 Element H  Has Mass    1.00783
   Atom   20 Element H  Has Mass    1.00783
   Atom   21 Element H  Has Mass    1.00783
   Atom   22 Element H  Has Mass    1.00783
   Atom   23 Element H  Has Mass    1.00783
   Atom   24 Element C  Has Mass   12.00000
   Atom   25 Element H  Has Mass    1.00783
   Atom   26 Element H  Has Mass    1.00783
   Atom   27 Element H  Has Mass    1.00783
   Molecular Mass:   208.073600 amu
   Principal axes and moments of inertia in amu*Bohr^2:
                             1           2           3
    Eigenvalues --     2454.73964  3111.91521  5139.49357
          X               0.99986     0.01655    -0.00187
          Y              -0.01653     0.99982     0.00976
          Z               0.00203    -0.00972     0.99995
   Rotational Symmetry Number is   1
   The Molecule is an Asymmetric Top
   Translational Enthalpy:        0.889 kcal/mol
   Rotational Enthalpy:           0.889 kcal/mol
   Vibrational Enthalpy:        141.065 kcal/mol
   gas constant (RT):             0.592 kcal/mol
   Translational Entropy:        41.902  cal/mol.K
   Rotational Entropy:           32.040  cal/mol.K
   Vibrational Entropy:          51.965  cal/mol.K

   Total Enthalpy:              143.435 kcal/mol
   Total Entropy:               125.907  cal/mol.K

 Total job time:  5839.94s(wall), 30861.21s(cpu)
        *  Thank you very much for using Q-Chem.  Have a nice day.  *
