 Q-Chem 5.0, Q-Chem, Inc., Pleasanton, CA (2017)
 Q-Chem 5.0.0 for Intel X86 EM64T Linux

User input:
--------------------------------------------------------------
$molecule
0  1
C    0.355  -2.424   0.293
C   -0.264  -2.685   1.524
C    0.749  -1.045  -0.086
C   -0.385  -1.681   2.598
O    1.805  -1.090  -0.938
O    0.175  -0.038   0.291
O    0.833  -1.128   2.820
O   -1.397  -1.517   3.259
C    0.836  -0.152   3.862
C    2.258   0.195  -1.365
C    0.489  -3.469  -0.639
C    0.011  -4.748  -0.345
C   -0.620  -4.996   0.872
C   -0.760  -3.969   1.804
H    0.142   0.662   3.629
H    1.480   0.699  -1.947
H   -1.003  -5.990   1.096
H    0.581  -0.616   4.820
H    1.845   0.263   3.935
H    3.132   0.050  -2.006
H    2.557   0.804  -0.506
H    0.116  -5.548  -1.075
H   -1.248  -4.169   2.757
H    0.945  -3.290  -1.611
$end

$opt
CONSTRAINT
tors    2    1    3    5    150.0
tors    1    2    4    7    -50.0
ENDCONSTRAINT
$end

$rem
JOBTYPE                   OPT
METHOD                    B3LYP
DFT_D                     D3_OP
BASIS                     STO-3G
GEOM_OPT_MAX_CYCLES       500
SYMMETRY                  False
THRESH                    12
SCF_CONVERGENCE           8
MAX_SUB_FILE_NUM          128
MEM_STATIC                400
MEM_TOTAL                 4000
$end

--------------------------------------------------------------

   15    -679.0688361291      6.94E-09 Convergence criterion met
 Total energy in the final basis set = -679.0688361291
   14    -679.0948674907      5.99E-09 Convergence criterion met
 Total energy in the final basis set = -679.0948674907
   14    -679.0965885949      1.68E-09 Convergence criterion met
 Total energy in the final basis set = -679.0965885949
   12    -679.0968219537      6.25E-09 Convergence criterion met
 Total energy in the final basis set = -679.0968219537
   11    -679.0968344862      5.19E-09 Convergence criterion met
 Total energy in the final basis set = -679.0968344862
   10    -679.0968364513      8.10E-09 Convergence criterion met
 Total energy in the final basis set = -679.0968364513
   10    -679.0968391389      7.51E-09 Convergence criterion met
 Total energy in the final basis set = -679.0968391389
   11    -679.0968453650      3.37E-09 Convergence criterion met
 **  OPTIMIZATION CONVERGED  **
 Total job time:  29.13s(wall), 680.46s(cpu)
        *  Thank you very much for using Q-Chem.  Have a nice day.  *

User input: 2 of 3

nid04364 10.128.17
Q-Chem Developer Version! Running on 10.128.17.*
                  Welcome to Q-Chem
     A Quantum Leap Into The Future Of Chemistry

 Q-Chem 5.0, Q-Chem, Inc., Pleasanton, CA (2017)

 Yihan Shao,  Zhengting Gan,  E. Epifanovsky,  A. T. B. Gilbert,  M. Wormit,
 J. Kussmann,  A. W. Lange,  A. Behn,  Jia Deng,  Xintian Feng,  D. Ghosh,
 M. Goldey,  P. R. Horn,  L. D. Jacobson,  I. Kaliman,  T. Kus,  A. Landau,
 Jie Liu,  E. I. Proynov,  R. M. Richard,  R. P. Steele,  E. J. Sundstrom,
 H. L. Woodcock III,  P. M. Zimmerman,  D. Zuev,  B. Albrecht,  E. Alguire,
 S. A. Baeppler,  Z. Benda,  Y. A. Bernard,  E. J. Berquist,  K. B. Bravaya,
 D. Casanova,  Chun-Min Chang,  Yunqing Chen,  A. Chien,  K. D. Closser,
 M. P. Coons,  S. Dasgupta,  M. Diedenhofen,  Hainam Do,  R. G. Edgar,
 Po-Tung Fang,  S. Fatehi,  Qingguo Feng,  Qinghui Ge,  A. Ghysels,
 J. Gomes,  J. Gonthier,  A. Gunina,  M. W. D. Hanson-Heine,
 P. H. P. Harbach,  A. W. Hauser,  J. E. Herr,  E. G. Hohenstein,
 Z. C. Holden,  Kerwin Hui,  T.-C. Jagau,  Hyunjun Ji,  B. Kaduk,
 K. Khistyaev,  Jaehoon Kim,  P. Klunzinger,  K. Koh,  D. Kosenkov,
 T. Kowalczyk,  C. M. Krauter,  A. Kunitsa,  Ka Un Lao,  A. Laurent,
 K. V. Lawler,  Joonho Lee,  D. Lefrancois,  S. Lehtola,  D. S. Levine,
 Yi-Pei Li,  You-Sheng Lin,  Fenglai Liu,  E. Livshits,  A. Luenser,
 P. Manohar,  E. Mansoor,  S. F. Manzer,  Shan-Ping Mao,  Yuezhi Mao,
 N. Mardirossian,  A. V. Marenich,  L. A. Martinez-Martinez,  S. A. Maurer,
 N. J. Mayhall,  S. C. McKenzie,  J.-M. Mewes,  A. F. Morrison,  K. Nanda,
 T. S. Nguyen-Beck,  R. Olivares-Amaya,  J. A. Parkhill,  T. M. Perrine,
 F. Plasser,  S. Prager,  A. Prociuk,  D. R. Rehn,  F. Rob,  M. Schneider,
 N. Sergueev,  S. M. Sharada,  S. Sharma,  D. W. Small,  T. Stauch,
 T. Stein,  Yu-Chuan Su,  A. J. W. Thom,  T. Tsuchimochi,  L. Vogt,
 O. Vydrov,  M. A. Watson,  J. Wenzel,  M. de Wergifosse,  T. A. Wesolowski,
 A. White,  J. Witte,  A. Yamada,  Jun Yang,  K. Yao,  S. Yeganeh,
 S. R. Yost,  Zhi-Qiang You,  A. Zech,  Igor Ying Zhang,  Xing Zhang,
 Yan Zhao,  Ying Zhu,  B. R. Brooks,  G. K. L. Chan,  C. J. Cramer,
 M. S. Gordon,  W. J. Hehre,  A. Klamt,  M. W. Schmidt,  C. D. Sherrill,
 D. G. Truhlar,  A. Aspuru-Guzik,  R. Baer,  A. T. Bell,  N. A. Besley,
 Jeng-Da Chai,  A. Dreuw,  B. D. Dunietz,  T. R. Furlani,  Chao-Ping Hsu,
 Yousung Jung,  Jing Kong,  D. S. Lambrecht,  WanZhen Liang,  C. Ochsenfeld,
 V. A. Rassolov,  L. V. Slipchenko,  J. E. Subotnik,  T. Van Voorhis,
 J. M. Herbert,  A. I. Krylov,  P. M. W. Gill,  M. Head-Gordon

 Contributors to earlier versions of Q-Chem not listed above:
 R. D. Adamson,  B. Austin,  J. Baker,  G. J. O. Beran,  K. Brandhorst,
 S. T. Brown,  E. F. C. Byrd,  A. K. Chakraborty,  C.-L. Cheng,
 Siu Hung Chien,  D. M. Chipman,  D. L. Crittenden,  H. Dachsel,
 R. A. DiStasio Jr.,  R. J. Doerksen,  A. D. Dutoi,  L. Fusti-Molnar,
 W. A. Goddard III,  A. Golubeva-Zadorozhnaya,  S. R. Gwaltney,  G. Hawkins,
 A. Heyden,  S. Hirata,  G. Kedziora,  F. J. Keil,  C. Kelley,  Jihan Kim,
 R. A. King,  R. Z. Khaliullin,  P. P. Korambath,  W. Kurlancheek,
 A. M. Lee,  M. S. Lee,  S. V. Levchenko,  Ching Yeh Lin,  D. Liotard,
 R. C. Lochan,  I. Lotan,  P. E. Maslen,  N. Nair,  D. P. O'Neill,
 D. Neuhauser,  E. Neuscamman,  C. M. Oana,  R. Olson,  B. Peters,
 R. Peverati,  P. A. Pieniazek,  Y. M. Rhee,  J. Ritchie,  M. A. Rohrdanz,
 E. Rosta,  N. J. Russ,  H. F. Schaefer III,  N. E. Schultz,  N. Shenvi,
 A. C. Simmonett,  A. Sodt,  D. Stuck,  K. S. Thanthiriwatte,  V. Vanovschi,
 Tao Wang,  A. Warshel,  C. F. Williams,  Q. Wu,  X. Xu,  W. Zhang

 Please cite Q-Chem as follows:
 Y. Shao et al., Mol. Phys. 113, 184-215 (2015)
 DOI: 10.1080/00268976.2014.952696

 Q-Chem 5.0.0 for Intel X86 EM64T Linux

 Parts of Q-Chem use Armadillo 5.200.1 (Boston Tea Smuggler).
 http://arma.sourceforge.net/

 Q-Chem begins on Wed Oct  4 18:03:12 2017

Host: nid04364
0

     Scratch files written to /global/cscratch1/sd/junteng/scratch/16/opt_10n01-o.save//
The previous job contains 0 fragments, simply inherited here

Checking the input file for inconsistencies... 	...done.

--------------------------------------------------------------
User input:
--------------------------------------------------------------

$molecule
   read
$end

$rem
JOBTYPE                   OPT
METHOD                    B3LYP
DFT_D                     D3_OP
BASIS                     6-311++G(d,p)
GEOM_OPT_MAX_CYCLES       500
GEOM_OPT_TOL_GRADIENT     1
GEOM_OPT_TOL_DISPLACEMENT 1
GEOM_OPT_TOL_ENERGY       1
SYMMETRY                  False
THRESH                    12
SCF_CONVERGENCE           8
MAX_SUB_FILE_NUM          128
MEM_STATIC                400
MEM_TOTAL                 4000
$end

--------------------------------------------------------------

   10    -688.2160699818      5.73E-09 Convergence criterion met
 Total energy in the final basis set = -688.2160699818
   10    -688.2160711303      6.65E-09 Convergence criterion met
 Total energy in the final basis set = -688.2160711303
    9    -688.2160713679      8.64E-09 Convergence criterion met
 Total energy in the final basis set = -688.2160713679
    8    -688.2160717126      4.68E-09 Convergence criterion met
 Total energy in the final basis set = -688.2160717126
    7    -688.2160715813      5.25E-09 Convergence criterion met
 Total energy in the final basis set = -688.2160715813
    6    -688.2160715803      3.71E-09 Convergence criterion met
 Total energy in the final basis set = -688.2160715803
 Final energy is   -688.216071580292
        *  Thank you very much for using Q-Chem.  Have a nice day.  *
 Q-Chem 5.0, Q-Chem, Inc., Pleasanton, CA (2017)
 Q-Chem 5.0.0 for Intel X86 EM64T Linux

             Standard Nuclear Orientation (Angstroms)
    I     Atom           X                Y                Z
 ----------------------------------------------------------------
    1      C      -0.0798156515    -0.8848052961    -0.0277282846
    2      C      -1.1117963200     0.0684799575    -0.0765135641
    3      C       1.3373568507    -0.4799392087    -0.2681714424
    4      C      -0.8589550288     1.5421858022    -0.1852772041
    5      O       2.2094484356    -1.3537099260     0.2775117665
    6      O       1.6787646174     0.4876738836    -0.9064736907
    7      O      -0.0436473325     1.9699751591     0.7939114182
    8      O      -1.3805290421     2.2594940249    -1.0029577704
    9      C       0.3727199808     3.3450880596     0.7082665106
   10      C       3.6022852785    -1.0875572664     0.0323016234
   11      C      -0.4034411497    -2.2374643301     0.1272277622
   12      C      -1.7318573517    -2.6432033289     0.2181620086
   13      C      -2.7527444318    -1.6983318443     0.1470679680
   14      C      -2.4410021291    -0.3491456243    -0.0032012191
   15      H       0.9702602753     3.4901966680    -0.1932728466
   16      H       3.8105196845    -1.1062543565    -1.0385824627
   17      H      -3.7894679170    -2.0089540205     0.2085614562
   18      H      -0.4926850783     4.0084389032     0.6859153833
   19      H       0.9722483105     3.5218012163     1.5983280894
   20      H       4.1418632237    -1.8819409622     0.5431090159
   21      H       3.8799446405    -0.1127731583     0.4354151044
   22      H      -1.9677049590    -3.6949854388     0.3325903379
   23      H      -3.2273924832     0.3937867860    -0.0589294951
   24      H       0.3936205907    -2.9686222937     0.1581266769
 ----------------------------------------------------------------

   15    -688.2161430117      7.18E-09 Convergence criterion met
 Total energy in the final basis set = -688.2161430117

                    Orbital Energies (a.u.)
 --------------------------------------------------------------

 Alpha MOs
 -- Occupied --
-19.180 -19.170 -19.121 -19.115 -10.314 -10.308 -10.234 -10.224
-10.212 -10.211 -10.199 -10.199 -10.197 -10.197  -1.121  -1.112
 -1.033  -1.026  -0.887  -0.796  -0.787  -0.740  -0.729  -0.655
 -0.639  -0.594  -0.573  -0.553  -0.523  -0.503  -0.493  -0.489
 -0.486  -0.480  -0.463  -0.457  -0.435  -0.430  -0.419  -0.401
 -0.390  -0.382  -0.375  -0.372  -0.361  -0.323  -0.309  -0.298
 -0.293  -0.277  -0.270

          Ground-State Mulliken Net Atomic Charges

     Atom                 Charge (a.u.)
  ----------------------------------------
      1 C                     0.734872
      2 C                     0.321360
      3 C                    -0.369919
      4 C                    -0.665361
      5 O                    -0.066296
      6 O                    -0.212930
      7 O                    -0.002475
      8 O                    -0.210891
      9 C                    -0.245737
     10 C                    -0.236752
     11 C                    -0.086281
     12 C                    -0.199332
     13 C                    -0.194058
     14 C                    -0.301697
     15 H                     0.187706
     16 H                     0.188968
     17 H                     0.172331
     18 H                     0.168055
     19 H                     0.154256
     20 H                     0.158639
     21 H                     0.173627
     22 H                     0.174160
     23 H                     0.174604
     24 H                     0.183148
  ----------------------------------------
  Sum of atomic charges =     0.000000

                    Cartesian Multipole Moments
 -----------------------------------------------------------------
    Charge (ESU x 10^10)
                 0.0000
    Dipole Moment (Debye)
         X       1.1096      Y      -2.3501      Z       2.2061
       Tot       3.4090
    Quadrupole Moments (Debye-Ang)
        XX     -68.0968     XY       3.5286     YY     -72.8465
        XZ      -1.2748     YZ       6.4816     ZZ     -87.5822

 Frequency:        29.60                  76.67                  81.76
 Force Cnst:      0.0033                 0.0116                 0.0185
 Red. Mass:       6.4116                 3.3353                 4.7075
 IR Intens:        0.558                  0.415                  4.665
 Frequency:        93.77                 119.88                 140.01
 Force Cnst:      0.0181                 0.0154                 0.0268
 Red. Mass:       3.5031                 1.8196                 2.3162
 IR Intens:        3.335                  0.808                  2.408
 Frequency:       146.55                 163.18                 214.65
 Force Cnst:      0.0148                 0.0369                 0.1371
 Red. Mass:       1.1679                 2.3537                 5.0496
 IR Intens:        0.237                  0.883                  1.029
 Frequency:       252.67                 286.03                 307.88
 Force Cnst:      0.2167                 0.2107                 0.2908
 Red. Mass:       5.7619                 4.3701                 5.2077
 IR Intens:        1.620                  8.792                  4.359
 Frequency:       334.97                 369.06                 395.99
 Force Cnst:      0.3495                 0.5200                 0.5082
 Red. Mass:       5.2864                 6.4792                 5.5003
 IR Intens:       14.760                 10.714                  1.255
 Frequency:       424.71                 534.42                 561.11
 Force Cnst:      0.4162                 0.8856                 0.8278
 Red. Mass:       3.9163                 5.2629                 4.4628
 IR Intens:        0.798                  2.505                  4.661
 Frequency:       665.42                 704.04                 715.99
 Force Cnst:      1.6377                 1.7753                 1.6196
 Red. Mass:       6.2775                 6.0787                 5.3621
 IR Intens:        4.660                  6.494                  8.110
 Frequency:       751.09                 798.68                 814.32
 Force Cnst:      0.6721                 1.1022                 1.4992
 Red. Mass:       2.0222                 2.9327                 3.8373
 IR Intens:       79.261                 19.194                  5.486
 Frequency:       828.94                 848.05                 904.33
 Force Cnst:      2.0321                 2.1536                 0.7137
 Red. Mass:       5.0194                 5.0824                 1.4811
 IR Intens:       10.944                  1.065                  0.695
 Frequency:       975.49                 984.70                 986.44
 Force Cnst:      1.4241                 4.1470                 1.2510
 Red. Mass:       2.5401                 7.2590                 2.1821
 IR Intens:       15.247                  1.450                  6.601
 Frequency:      1004.20                1063.56                1097.18
 Force Cnst:      0.7819                 1.6644                 3.4882
 Red. Mass:       1.3160                 2.4974                 4.9180
 IR Intens:        0.443                 17.078                 95.026
 Frequency:      1144.50                1156.60                1169.73
 Force Cnst:      2.2340                 1.4918                 1.0478
 Red. Mass:       2.8947                 1.8928                 1.2997
 IR Intens:      158.920                 55.278                  1.527
 Frequency:      1170.57                1190.84                1211.45
 Force Cnst:      1.0364                 0.9347                 1.3544
 Red. Mass:       1.2837                 1.1188                 1.5663
 IR Intens:        0.781                  2.037                 37.229
 Frequency:      1215.48                1276.41                1287.90
 Force Cnst:      1.4023                 3.0988                 3.0796
 Red. Mass:       1.6110                 3.2282                 3.1512
 IR Intens:       42.885                188.683                386.712
 Frequency:      1314.48                1335.13                1466.83
 Force Cnst:      2.1975                 7.6978                 1.6176
 Red. Mass:       2.1586                 7.3294                 1.2760
 IR Intens:      170.412                 22.913                 12.365
 Frequency:      1469.04                1476.20                1483.85
 Force Cnst:      1.5276                 2.5029                 1.3552
 Red. Mass:       1.2014                 1.9494                 1.0447
 IR Intens:       20.173                  7.960                  6.649
 Frequency:      1484.96                1496.78                1497.36
 Force Cnst:      1.3591                 1.3812                 1.3837
 Red. Mass:       1.0461                 1.0464                 1.0474
 IR Intens:       12.185                 16.597                  3.564
 Frequency:      1516.84                1613.09                1636.82
 Force Cnst:      3.5874                 9.7019                 9.0326
 Red. Mass:       2.6464                 6.3283                 5.7222
 IR Intens:       12.786                 12.401                  6.469
 Frequency:      1772.66                1783.75                3050.33
 Force Cnst:     21.8527                22.2917                 5.6430
 Red. Mass:      11.8034                11.8912                 1.0294
 IR Intens:      251.356                301.441                 24.901
 Frequency:      3050.57                3123.55                3125.74
 Force Cnst:      5.6447                 6.3641                 6.3734
 Red. Mass:       1.0295                 1.1071                 1.1072
 IR Intens:       44.555                 17.380                 14.343
 Frequency:      3157.76                3157.99                3173.13
 Force Cnst:      6.4994                 6.5002                 6.4467
 Red. Mass:       1.1063                 1.1063                 1.0867
 IR Intens:       13.517                 13.253                  1.636
 Frequency:      3186.81                3198.66                3210.35
 Force Cnst:      6.5305                 6.6007                 6.6410
 Red. Mass:       1.0914                 1.0950                 1.0936
 IR Intens:        8.673                  7.289                  3.652

 STANDARD THERMODYNAMIC QUANTITIES AT   298.15 K  AND     1.00 ATM

   This Molecule has  0 Imaginary Frequencies
   Zero point vibrational energy:      116.198 kcal/mol

   Atom    1 Element C  Has Mass   12.00000
   Atom    2 Element C  Has Mass   12.00000
   Atom    3 Element C  Has Mass   12.00000
   Atom    4 Element C  Has Mass   12.00000
   Atom    5 Element O  Has Mass   15.99491
   Atom    6 Element O  Has Mass   15.99491
   Atom    7 Element O  Has Mass   15.99491
   Atom    8 Element O  Has Mass   15.99491
   Atom    9 Element C  Has Mass   12.00000
   Atom   10 Element C  Has Mass   12.00000
   Atom   11 Element C  Has Mass   12.00000
   Atom   12 Element C  Has Mass   12.00000
   Atom   13 Element C  Has Mass   12.00000
   Atom   14 Element C  Has Mass   12.00000
   Atom   15 Element H  Has Mass    1.00783
   Atom   16 Element H  Has Mass    1.00783
   Atom   17 Element H  Has Mass    1.00783
   Atom   18 Element H  Has Mass    1.00783
   Atom   19 Element H  Has Mass    1.00783
   Atom   20 Element H  Has Mass    1.00783
   Atom   21 Element H  Has Mass    1.00783
   Atom   22 Element H  Has Mass    1.00783
   Atom   23 Element H  Has Mass    1.00783
   Atom   24 Element H  Has Mass    1.00783
   Molecular Mass:   194.057940 amu
   Principal axes and moments of inertia in amu*Bohr^2:
                             1           2           3
    Eigenvalues --     2396.80000  2463.45144  4476.63163
          X               0.96441     0.26442    -0.00012
          Y              -0.26440     0.96436     0.00988
          Z               0.00273    -0.00950     0.99995
   Rotational Symmetry Number is   1
   The Molecule is an Asymmetric Top
   Translational Enthalpy:        0.889 kcal/mol
   Rotational Enthalpy:           0.889 kcal/mol
   Vibrational Enthalpy:        122.840 kcal/mol
   gas constant (RT):             0.592 kcal/mol
   Translational Entropy:        41.694  cal/mol.K
   Rotational Entropy:           31.647  cal/mol.K
   Vibrational Entropy:          43.414  cal/mol.K

   Total Enthalpy:              125.210 kcal/mol
   Total Entropy:               116.755  cal/mol.K

 Total job time:  4089.83s(wall), 20228.27s(cpu)
        *  Thank you very much for using Q-Chem.  Have a nice day.  *
