 Q-Chem 5.0, Q-Chem, Inc., Pleasanton, CA (2017)
 Q-Chem 5.0.0 for Intel X86 EM64T Linux

User input:
--------------------------------------------------------------
$molecule
0  1
C    0.579  -1.978   0.499
C   -0.345  -1.987   1.740
C    0.941  -0.610  -0.048
C   -0.562  -0.630   2.386
O    2.215  -0.645  -0.542
O    0.210   0.366  -0.087
O    0.648  -0.161   2.826
O   -1.631  -0.088   2.617
C    0.572   1.116   3.461
C    2.652   0.593  -1.106
C   -0.242  -2.782  -0.524
C   -0.292  -4.259  -0.098
C   -1.265  -4.223   1.081
C   -1.594  -2.718   1.188
O   -1.591  -2.362  -0.216
H    1.516  -2.494   0.747
H    0.090  -2.606   2.538
H   -0.024   1.052   4.377
H    2.622   1.389  -0.356
H   -0.708  -4.895  -0.888
H    0.690  -4.657   0.174
H   -2.154  -4.811   0.825
H   -0.840  -4.639   1.999
H    1.587   1.422   3.729
H    0.156   1.863   2.777
H    2.039   0.852  -1.975
H    3.687   0.467  -1.436
C   -2.945  -2.478   1.828
H   -3.699  -3.155   1.411
H   -2.911  -2.635   2.910
H   -3.320  -1.473   1.614
C    0.085  -2.603  -1.994
H   -0.579  -3.214  -2.616
H   -0.074  -1.570  -2.320
H    1.119  -2.890  -2.210
$end

$opt
CONSTRAINT
tors    2    1    3    5    152.3
tors    1    2    4    7    -64.6
ENDCONSTRAINT
$end

$rem
JOBTYPE                   OPT
METHOD                    B3LYP
DFT_D                     D3_OP
BASIS                     STO-3G
GEOM_OPT_MAX_CYCLES       500
SYMMETRY                  False
THRESH                    12
SCF_CONVERGENCE           8
MAX_SUB_FILE_NUM          128
MEM_STATIC                400
MEM_TOTAL                 4000
$end

--------------------------------------------------------------

   14    -833.4099632771      3.41E-09 Convergence criterion met
 Total energy in the final basis set = -833.4099632771
   13    -833.4400865826      3.88E-09 Convergence criterion met
 Total energy in the final basis set = -833.4400865826
   13    -833.4470750772      3.68E-09 Convergence criterion met
 Total energy in the final basis set = -833.4470750772
   12    -833.4477469361      4.00E-09 Convergence criterion met
 Total energy in the final basis set = -833.4477469361
   11    -833.4479472772      7.23E-09 Convergence criterion met
 Total energy in the final basis set = -833.4479472772
   11    -833.4481192171      4.39E-09 Convergence criterion met
 Total energy in the final basis set = -833.4481192171
   11    -833.4483358040      6.25E-09 Convergence criterion met
 Total energy in the final basis set = -833.4483358040
   12    -833.4486002209      3.27E-09 Convergence criterion met
 **  OPTIMIZATION CONVERGED  **
 Total job time:  143.78s(wall), 2898.14s(cpu)
        *  Thank you very much for using Q-Chem.  Have a nice day.  *

User input: 2 of 3

nid04269 10.128.16
Q-Chem Developer Version! Running on 10.128.16.*
                  Welcome to Q-Chem
     A Quantum Leap Into The Future Of Chemistry

 Q-Chem 5.0, Q-Chem, Inc., Pleasanton, CA (2017)

 Yihan Shao,  Zhengting Gan,  E. Epifanovsky,  A. T. B. Gilbert,  M. Wormit,
 J. Kussmann,  A. W. Lange,  A. Behn,  Jia Deng,  Xintian Feng,  D. Ghosh,
 M. Goldey,  P. R. Horn,  L. D. Jacobson,  I. Kaliman,  T. Kus,  A. Landau,
 Jie Liu,  E. I. Proynov,  R. M. Richard,  R. P. Steele,  E. J. Sundstrom,
 H. L. Woodcock III,  P. M. Zimmerman,  D. Zuev,  B. Albrecht,  E. Alguire,
 S. A. Baeppler,  Z. Benda,  Y. A. Bernard,  E. J. Berquist,  K. B. Bravaya,
 D. Casanova,  Chun-Min Chang,  Yunqing Chen,  A. Chien,  K. D. Closser,
 M. P. Coons,  S. Dasgupta,  M. Diedenhofen,  Hainam Do,  R. G. Edgar,
 Po-Tung Fang,  S. Fatehi,  Qingguo Feng,  Qinghui Ge,  A. Ghysels,
 J. Gomes,  J. Gonthier,  A. Gunina,  M. W. D. Hanson-Heine,
 P. H. P. Harbach,  A. W. Hauser,  J. E. Herr,  E. G. Hohenstein,
 Z. C. Holden,  Kerwin Hui,  T.-C. Jagau,  Hyunjun Ji,  B. Kaduk,
 K. Khistyaev,  Jaehoon Kim,  P. Klunzinger,  K. Koh,  D. Kosenkov,
 T. Kowalczyk,  C. M. Krauter,  A. Kunitsa,  Ka Un Lao,  A. Laurent,
 K. V. Lawler,  Joonho Lee,  D. Lefrancois,  S. Lehtola,  D. S. Levine,
 Yi-Pei Li,  You-Sheng Lin,  Fenglai Liu,  E. Livshits,  A. Luenser,
 P. Manohar,  E. Mansoor,  S. F. Manzer,  Shan-Ping Mao,  Yuezhi Mao,
 N. Mardirossian,  A. V. Marenich,  L. A. Martinez-Martinez,  S. A. Maurer,
 N. J. Mayhall,  S. C. McKenzie,  J.-M. Mewes,  A. F. Morrison,  K. Nanda,
 T. S. Nguyen-Beck,  R. Olivares-Amaya,  J. A. Parkhill,  T. M. Perrine,
 F. Plasser,  S. Prager,  A. Prociuk,  D. R. Rehn,  F. Rob,  M. Schneider,
 N. Sergueev,  S. M. Sharada,  S. Sharma,  D. W. Small,  T. Stauch,
 T. Stein,  Yu-Chuan Su,  A. J. W. Thom,  T. Tsuchimochi,  L. Vogt,
 O. Vydrov,  M. A. Watson,  J. Wenzel,  M. de Wergifosse,  T. A. Wesolowski,
 A. White,  J. Witte,  A. Yamada,  Jun Yang,  K. Yao,  S. Yeganeh,
 S. R. Yost,  Zhi-Qiang You,  A. Zech,  Igor Ying Zhang,  Xing Zhang,
 Yan Zhao,  Ying Zhu,  B. R. Brooks,  G. K. L. Chan,  C. J. Cramer,
 M. S. Gordon,  W. J. Hehre,  A. Klamt,  M. W. Schmidt,  C. D. Sherrill,
 D. G. Truhlar,  A. Aspuru-Guzik,  R. Baer,  A. T. Bell,  N. A. Besley,
 Jeng-Da Chai,  A. Dreuw,  B. D. Dunietz,  T. R. Furlani,  Chao-Ping Hsu,
 Yousung Jung,  Jing Kong,  D. S. Lambrecht,  WanZhen Liang,  C. Ochsenfeld,
 V. A. Rassolov,  L. V. Slipchenko,  J. E. Subotnik,  T. Van Voorhis,
 J. M. Herbert,  A. I. Krylov,  P. M. W. Gill,  M. Head-Gordon

 Contributors to earlier versions of Q-Chem not listed above:
 R. D. Adamson,  B. Austin,  J. Baker,  G. J. O. Beran,  K. Brandhorst,
 S. T. Brown,  E. F. C. Byrd,  A. K. Chakraborty,  C.-L. Cheng,
 Siu Hung Chien,  D. M. Chipman,  D. L. Crittenden,  H. Dachsel,
 R. A. DiStasio Jr.,  R. J. Doerksen,  A. D. Dutoi,  L. Fusti-Molnar,
 W. A. Goddard III,  A. Golubeva-Zadorozhnaya,  S. R. Gwaltney,  G. Hawkins,
 A. Heyden,  S. Hirata,  G. Kedziora,  F. J. Keil,  C. Kelley,  Jihan Kim,
 R. A. King,  R. Z. Khaliullin,  P. P. Korambath,  W. Kurlancheek,
 A. M. Lee,  M. S. Lee,  S. V. Levchenko,  Ching Yeh Lin,  D. Liotard,
 R. C. Lochan,  I. Lotan,  P. E. Maslen,  N. Nair,  D. P. O'Neill,
 D. Neuhauser,  E. Neuscamman,  C. M. Oana,  R. Olson,  B. Peters,
 R. Peverati,  P. A. Pieniazek,  Y. M. Rhee,  J. Ritchie,  M. A. Rohrdanz,
 E. Rosta,  N. J. Russ,  H. F. Schaefer III,  N. E. Schultz,  N. Shenvi,
 A. C. Simmonett,  A. Sodt,  D. Stuck,  K. S. Thanthiriwatte,  V. Vanovschi,
 Tao Wang,  A. Warshel,  C. F. Williams,  Q. Wu,  X. Xu,  W. Zhang

 Please cite Q-Chem as follows:
 Y. Shao et al., Mol. Phys. 113, 184-215 (2015)
 DOI: 10.1080/00268976.2014.952696

 Q-Chem 5.0.0 for Intel X86 EM64T Linux

 Parts of Q-Chem use Armadillo 5.200.1 (Boston Tea Smuggler).
 http://arma.sourceforge.net/

 Q-Chem begins on Wed Oct  4 18:01:54 2017

Host: nid04269
0

     Scratch files written to /global/cscratch1/sd/junteng/scratch/15/opt_1111+o.save//
The previous job contains 0 fragments, simply inherited here

Checking the input file for inconsistencies... 	...done.

--------------------------------------------------------------
User input:
--------------------------------------------------------------

$molecule
   read
$end

$rem
JOBTYPE                   OPT
METHOD                    B3LYP
DFT_D                     D3_OP
BASIS                     6-311++G(d,p)
GEOM_OPT_MAX_CYCLES       500
GEOM_OPT_TOL_GRADIENT     1
GEOM_OPT_TOL_DISPLACEMENT 1
GEOM_OPT_TOL_ENERGY       1
SYMMETRY                  False
THRESH                    12
SCF_CONVERGENCE           8
MAX_SUB_FILE_NUM          128
MEM_STATIC                400
MEM_TOTAL                 4000
$end

--------------------------------------------------------------

    9    -844.5291999212      7.72E-09 Convergence criterion met
 Total energy in the final basis set = -844.5291999212
    9    -844.5291999963      3.24E-09 Convergence criterion met
 Total energy in the final basis set = -844.5291999963
    7    -844.5292001262      9.60E-09 Convergence criterion met
 Total energy in the final basis set = -844.5292001262
    6    -844.5292001155      3.85E-09 Convergence criterion met
 Total energy in the final basis set = -844.5292001155
    6    -844.5292001322      3.78E-09 Convergence criterion met
 Total energy in the final basis set = -844.5292001322
    5    -844.5292001271      4.95E-09 Convergence criterion met
 Total energy in the final basis set = -844.5292001271
 Final energy is   -844.529200127113
        *  Thank you very much for using Q-Chem.  Have a nice day.  *
 Q-Chem 5.0, Q-Chem, Inc., Pleasanton, CA (2017)
 Q-Chem 5.0.0 for Intel X86 EM64T Linux

             Standard Nuclear Orientation (Angstroms)
    I     Atom           X                Y                Z
 ----------------------------------------------------------------
    1      C       0.0280027210     0.6616220235     0.6471510587
    2      C       0.5130906138    -0.8287023114     0.6450186149
    3      C      -1.2652827094     0.9252641121    -0.0901102353
    4      C      -0.4996176043    -1.8070887813     0.0659414997
    5      O      -1.9841286963     1.8745823462     0.5521892461
    6      O      -1.6131567758     0.4230245206    -1.1295539809
    7      O      -1.6238828900    -1.7645911253     0.8243234683
    8      O      -0.3623683264    -2.5558498975    -0.8640162224
    9      C      -2.7326859965    -2.5456108648     0.3430634589
   10      C      -3.2103327678     2.2746872917    -0.0868512723
   11      C       1.2357182466     1.3729657915    -0.0774945405
   12      C       2.4023040506     1.4319935016     0.9406539997
   13      C       2.8662505718    -0.0464286316     0.9621534109
   14      C       1.9019531371    -0.7096805318    -0.0634764048
   15      O       1.6742124700     0.3665266845    -0.9958940268
   16      H      -0.0893033285     1.0437954546     1.6594755560
   17      H       0.6465313852    -1.1522673469     1.6804289053
   18      H      -2.4695160724    -3.6034462992     0.2987828326
   19      H      -3.8678829825     1.4148027277    -0.2219324521
   20      H       3.1861510808     2.0904429962     0.5608055189
   21      H       2.0888370373     1.8113747914     1.9151434149
   22      H       3.8937574238    -0.1434980792     0.6078821601
   23      H       2.8083653979    -0.5102439409     1.9490018945
   24      H      -3.5358209414    -2.3814166419     1.0585359449
   25      H      -3.0243627151    -2.2019725732    -0.6506546424
   26      H      -3.0048020270     2.7243396080    -1.0596981130
   27      H      -3.6628270719     3.0024310039     0.5831284710
   28      C       2.4766451311    -1.9188533432    -0.7691175180
   29      H       3.4713355848    -1.6739726614    -1.1491403836
   30      H       2.5700251329    -2.7561936840    -0.0721190899
   31      H       1.8393068200    -2.2325997684    -1.5914081207
   32      C       0.9269695340     2.6648332239    -0.8017857526
   33      H       1.8337951577     3.0459367473    -1.2756828924
   34      H       0.1763819358     2.5047626467    -1.5778090677
   35      H       0.5565323623     3.4181759099    -0.1020057263
 ----------------------------------------------------------------

   15    -844.5292099800      3.73E-09 Convergence criterion met
 Total energy in the final basis set = -844.5292099800

                    Orbital Energies (a.u.)
 --------------------------------------------------------------

 Alpha MOs
 -- Occupied --
-19.177 -19.166 -19.125 -19.117 -19.111 -10.306 -10.303 -10.242
-10.236 -10.232 -10.223 -10.203 -10.203 -10.177 -10.175 -10.168
-10.154  -1.117  -1.108  -1.059  -1.029  -1.023  -0.830  -0.803
 -0.782  -0.749  -0.725  -0.720  -0.670  -0.642  -0.601  -0.581
 -0.563  -0.553  -0.526  -0.508  -0.501  -0.491  -0.488  -0.480
 -0.473  -0.470  -0.456  -0.439  -0.433  -0.422  -0.419  -0.411
 -0.405  -0.396  -0.392  -0.373  -0.369  -0.365  -0.358  -0.355
 -0.352  -0.346  -0.331  -0.323  -0.318  -0.308  -0.289  -0.274
 -0.269

          Ground-State Mulliken Net Atomic Charges

     Atom                 Charge (a.u.)
  ----------------------------------------
      1 C                     0.699508
      2 C                     0.416593
      3 C                    -1.523592
      4 C                    -0.532021
      5 O                     0.041779
      6 O                    -0.152471
      7 O                    -0.018963
      8 O                    -0.171527
      9 C                    -0.176129
     10 C                    -0.186973
     11 C                    -0.182658
     12 C                    -0.295346
     13 C                    -0.435580
     14 C                    -0.748132
     15 O                     0.038376
     16 H                     0.295239
     17 H                     0.261515
     18 H                     0.169396
     19 H                     0.162351
     20 H                     0.170258
     21 H                     0.140871
     22 H                     0.174719
     23 H                     0.139352
     24 H                     0.148775
     25 H                     0.190596
     26 H                     0.178561
     27 H                     0.154256
     28 C                    -0.020941
     29 H                     0.141641
     30 H                     0.159148
     31 H                     0.207835
     32 C                    -0.007731
     33 H                     0.178970
     34 H                     0.218836
     35 H                     0.163491
  ----------------------------------------
  Sum of atomic charges =     0.000000

                    Cartesian Multipole Moments
 -----------------------------------------------------------------
    Charge (ESU x 10^10)
                 0.0000
    Dipole Moment (Debye)
         X      -0.8274      Y       2.0027      Z       3.5069
       Tot       4.1224
    Quadrupole Moments (Debye-Ang)
        XX     -89.2236     XY      -0.9327     YY     -97.7375
        XZ       1.5851     YZ      -4.7449     ZZ    -107.8725

 Frequency:        24.80                  37.39                  79.89
 Force Cnst:      0.0014                 0.0040                 0.0189
 Red. Mass:       3.8833                 4.8640                 5.0158
 IR Intens:        0.023                  0.852                  3.050
 Frequency:        99.87                 121.61                 146.07
 Force Cnst:      0.0204                 0.0156                 0.0193
 Red. Mass:       3.4656                 1.7948                 1.5344
 IR Intens:        1.979                  0.229                  0.955
 Frequency:       149.15                 151.50                 185.59
 Force Cnst:      0.0256                 0.0220                 0.0619
 Red. Mass:       1.9517                 1.6267                 3.0493
 IR Intens:        1.380                  0.474                  0.489
 Frequency:       218.31                 221.68                 223.66
 Force Cnst:      0.0552                 0.0452                 0.0603
 Red. Mass:       1.9663                 1.5607                 2.0450
 IR Intens:        0.173                  2.494                  2.672
 Frequency:       233.52                 247.29                 260.38
 Force Cnst:      0.0526                 0.0793                 0.1872
 Red. Mass:       1.6358                 2.2007                 4.6853
 IR Intens:        2.657                  1.858                  4.132
 Frequency:       280.65                 319.97                 324.93
 Force Cnst:      0.1708                 0.2410                 0.1654
 Red. Mass:       3.6801                 3.9955                 2.6589
 IR Intens:        1.196                 12.372                  0.551
 Frequency:       339.94                 367.35                 370.32
 Force Cnst:      0.2393                 0.3393                 0.3006
 Red. Mass:       3.5142                 4.2680                 3.7206
 IR Intens:        5.221                  4.077                  8.853
 Frequency:       422.84                 488.72                 572.85
 Force Cnst:      0.3042                 0.4696                 0.7425
 Red. Mass:       2.8877                 3.3368                 3.8403
 IR Intens:        3.889                 12.579                 11.488
 Frequency:       596.70                 613.55                 648.08
 Force Cnst:      0.9834                 0.8981                 1.1151
 Red. Mass:       4.6876                 4.0490                 4.5062
 IR Intens:        8.602                  3.920                  2.014
 Frequency:       675.11                 719.26                 755.14
 Force Cnst:      1.2985                 1.8092                 1.5398
 Red. Mass:       4.8355                 5.9357                 4.5831
 IR Intens:        1.077                  7.478                  2.847
 Frequency:       808.26                 824.98                 858.40
 Force Cnst:      1.1895                 1.0436                 1.3287
 Red. Mass:       3.0904                 2.6025                 3.0605
 IR Intens:        1.722                  8.754                  5.729
 Frequency:       862.11                 871.81                 887.59
 Force Cnst:      2.1436                 1.9387                 1.1524
 Red. Mass:       4.8952                 4.3292                 2.4827
 IR Intens:        7.625                 23.092                 18.912
 Frequency:       890.94                 914.62                 926.77
 Force Cnst:      1.1356                 1.0956                 1.3116
 Red. Mass:       2.4282                 2.2229                 2.5919
 IR Intens:        8.593                 11.597                 29.770
 Frequency:       968.33                 971.78                 985.89
 Force Cnst:      1.8316                 2.4666                 1.9219
 Red. Mass:       3.3154                 4.4332                 3.3560
 IR Intens:        7.837                  3.328                  5.370
 Frequency:      1010.71                1056.19                1065.04
 Force Cnst:      0.9548                 2.4447                 2.0105
 Red. Mass:       1.5864                 3.7196                 3.0083
 IR Intens:        2.112                 61.343                 54.282
 Frequency:      1109.74                1129.42                1137.80
 Force Cnst:      1.0847                 1.3253                 1.8476
 Red. Mass:       1.4949                 1.7634                 2.4223
 IR Intens:        7.318                 23.277                 22.701
 Frequency:      1165.17                1171.00                1172.13
 Force Cnst:      1.7585                 1.0508                 1.0996
 Red. Mass:       2.1984                 1.3007                 1.3584
 IR Intens:      113.389                  9.985                 12.002
 Frequency:      1181.07                1194.92                1204.87
 Force Cnst:      1.9049                 2.4090                 1.6176
 Red. Mass:       2.3178                 2.8636                 1.8912
 IR Intens:       56.807                369.949                  7.487
 Frequency:      1209.82                1212.37                1221.01
 Force Cnst:      1.3494                 1.6341                 1.6097
 Red. Mass:       1.5647                 1.8870                 1.8326
 IR Intens:       18.802                159.042                 16.883
 Frequency:      1246.03                1257.23                1263.31
 Force Cnst:      2.0339                 1.2577                 1.4136
 Red. Mass:       2.2235                 1.3505                 1.5034
 IR Intens:       36.974                  2.811                 26.863
 Frequency:      1286.87                1330.05                1343.90
 Force Cnst:      1.6599                 1.6284                 2.4261
 Red. Mass:       1.7012                 1.5623                 2.2799
 IR Intens:        8.422                  1.553                  6.499
 Frequency:      1370.43                1396.52                1418.50
 Force Cnst:      1.7500                 1.8236                 1.6195
 Red. Mass:       1.5815                 1.5870                 1.3661
 IR Intens:      101.743                 39.754                 24.137
 Frequency:      1428.40                1466.73                1468.75
 Force Cnst:      1.5998                 1.5035                 1.5305
 Red. Mass:       1.3308                 1.1862                 1.2042
 IR Intens:       11.740                 14.168                 14.624
 Frequency:      1482.83                1483.73                1483.98
 Force Cnst:      1.3760                 1.3551                 1.3594
 Red. Mass:       1.0621                 1.0447                 1.0477
 IR Intens:        4.097                  3.011                 14.991
 Frequency:      1488.22                1494.30                1495.79
 Force Cnst:      1.3839                 1.3939                 1.3812
 Red. Mass:       1.0605                 1.0595                 1.0478
 IR Intens:        5.584                  0.947                  7.900
 Frequency:      1499.09                1501.35                1508.60
 Force Cnst:      1.3838                 1.3980                 1.4292
 Red. Mass:       1.0451                 1.0527                 1.0658
 IR Intens:       14.629                  7.201                 10.778
 Frequency:      1512.05                1791.34                1811.69
 Force Cnst:      1.4566                20.8414                22.0888
 Red. Mass:       1.0814                11.0235                11.4224
 IR Intens:        7.760                 89.372                319.257
 Frequency:      3041.23                3042.01                3048.88
 Force Cnst:      5.6421                 5.6739                 5.6380
 Red. Mass:       1.0354                 1.0407                 1.0294
 IR Intens:       15.599                 15.658                 18.917
 Frequency:      3049.21                3053.59                3061.83
 Force Cnst:      5.6404                 5.8276                 5.9050
 Red. Mass:       1.0296                 1.0608                 1.0691
 IR Intens:       51.187                 30.572                 23.594
 Frequency:      3067.93                3090.49                3098.74
 Force Cnst:      5.9479                 6.2287                 6.2351
 Red. Mass:       1.0726                 1.1069                 1.1021
 IR Intens:       28.005                  0.391                 13.100
 Frequency:      3108.46                3110.51                3117.09
 Force Cnst:      6.2807                 6.2743                 6.3112
 Red. Mass:       1.1032                 1.1007                 1.1025
 IR Intens:       14.750                 28.733                 20.042
 Frequency:      3118.43                3122.26                3123.40
 Force Cnst:      6.2436                 6.3581                 6.3635
 Red. Mass:       1.0897                 1.1070                 1.1071
 IR Intens:       26.065                 20.563                 13.741
 Frequency:      3152.49                3156.32                3164.97
 Force Cnst:      6.4790                 6.4925                 6.4711
 Red. Mass:       1.1065                 1.1061                 1.0964
 IR Intens:       14.049                 14.373                  2.092

 STANDARD THERMODYNAMIC QUANTITIES AT   298.15 K  AND     1.00 ATM

   This Molecule has  0 Imaginary Frequencies
   Zero point vibrational energy:      183.652 kcal/mol

   Atom    1 Element C  Has Mass   12.00000
   Atom    2 Element C  Has Mass   12.00000
   Atom    3 Element C  Has Mass   12.00000
   Atom    4 Element C  Has Mass   12.00000
   Atom    5 Element O  Has Mass   15.99491
   Atom    6 Element O  Has Mass   15.99491
   Atom    7 Element O  Has Mass   15.99491
   Atom    8 Element O  Has Mass   15.99491
   Atom    9 Element C  Has Mass   12.00000
   Atom   10 Element C  Has Mass   12.00000
   Atom   11 Element C  Has Mass   12.00000
   Atom   12 Element C  Has Mass   12.00000
   Atom   13 Element C  Has Mass   12.00000
   Atom   14 Element C  Has Mass   12.00000
   Atom   15 Element O  Has Mass   15.99491
   Atom   16 Element H  Has Mass    1.00783
   Atom   17 Element H  Has Mass    1.00783
   Atom   18 Element H  Has Mass    1.00783
   Atom   19 Element H  Has Mass    1.00783
   Atom   20 Element H  Has Mass    1.00783
   Atom   21 Element H  Has Mass    1.00783
   Atom   22 Element H  Has Mass    1.00783
   Atom   23 Element H  Has Mass    1.00783
   Atom   24 Element H  Has Mass    1.00783
   Atom   25 Element H  Has Mass    1.00783
   Atom   26 Element H  Has Mass    1.00783
   Atom   27 Element H  Has Mass    1.00783
   Atom   28 Element C  Has Mass   12.00000
   Atom   29 Element H  Has Mass    1.00783
   Atom   30 Element H  Has Mass    1.00783
   Atom   31 Element H  Has Mass    1.00783
   Atom   32 Element C  Has Mass   12.00000
   Atom   33 Element H  Has Mass    1.00783
   Atom   34 Element H  Has Mass    1.00783
   Atom   35 Element H  Has Mass    1.00783
   Molecular Mass:   242.115490 amu
   Principal axes and moments of inertia in amu*Bohr^2:
                             1           2           3
    Eigenvalues --     2977.74833  3617.57044  5614.86111
          X               0.99992    -0.01137     0.00567
          Y               0.01139     0.99992    -0.00484
          Z              -0.00561     0.00491     0.99997
   Rotational Symmetry Number is   1
   The Molecule is an Asymmetric Top
   Translational Enthalpy:        0.889 kcal/mol
   Rotational Enthalpy:           0.889 kcal/mol
   Vibrational Enthalpy:        192.707 kcal/mol
   gas constant (RT):             0.592 kcal/mol
   Translational Entropy:        42.354  cal/mol.K
   Rotational Entropy:           32.469  cal/mol.K
   Vibrational Entropy:          58.082  cal/mol.K

   Total Enthalpy:              195.077 kcal/mol
   Total Entropy:               132.905  cal/mol.K

 Total job time:  14063.35s(wall), 84544.12s(cpu)
        *  Thank you very much for using Q-Chem.  Have a nice day.  *
