 Q-Chem 5.0, Q-Chem, Inc., Pleasanton, CA (2017)
 Q-Chem 5.0.0 for Intel X86 EM64T Linux

User input:
--------------------------------------------------------------
$molecule
0  1
C    0.355  -2.424   0.293
C   -0.264  -2.685   1.524
C    0.749  -1.045  -0.086
C   -0.385  -1.681   2.598
O    1.805  -1.090  -0.938
O    0.175  -0.038   0.291
O    0.833  -1.128   2.820
O   -1.397  -1.517   3.259
C    0.836  -0.152   3.862
C    2.258   0.195  -1.365
C    0.489  -3.469  -0.639
C    0.011  -4.748  -0.345
C   -0.620  -4.996   0.872
C   -0.760  -3.969   1.804
H    0.142   0.662   3.629
H    1.480   0.699  -1.947
H   -1.003  -5.990   1.096
H    0.581  -0.616   4.820
H    1.845   0.263   3.935
H    3.132   0.050  -2.006
H    2.557   0.804  -0.506
H    0.116  -5.548  -1.075
H   -1.248  -4.169   2.757
H    0.945  -3.290  -1.611
$end

$opt
CONSTRAINT
tors    2    1    3    5    155.0
tors    1    2    4    7    -50.0
ENDCONSTRAINT
$end

$rem
JOBTYPE                   OPT
METHOD                    B3LYP
DFT_D                     D3_OP
BASIS                     STO-3G
GEOM_OPT_MAX_CYCLES       500
SYMMETRY                  False
THRESH                    12
SCF_CONVERGENCE           8
MAX_SUB_FILE_NUM          128
MEM_STATIC                400
MEM_TOTAL                 4000
$end

--------------------------------------------------------------

   15    -679.0688361291      6.94E-09 Convergence criterion met
 Total energy in the final basis set = -679.0688361291
   14    -679.0949244483      5.16E-09 Convergence criterion met
 Total energy in the final basis set = -679.0949244483
   13    -679.0966905642      9.03E-09 Convergence criterion met
 Total energy in the final basis set = -679.0966905642
   12    -679.0969341585      7.35E-09 Convergence criterion met
 Total energy in the final basis set = -679.0969341585
   11    -679.0969519644      6.34E-09 Convergence criterion met
 Total energy in the final basis set = -679.0969519644
   11    -679.0969559967      2.78E-09 Convergence criterion met
 Total energy in the final basis set = -679.0969559967
   11    -679.0969602274      1.32E-09 Convergence criterion met
 Total energy in the final basis set = -679.0969602274
   11    -679.0969657356      1.36E-09 Convergence criterion met
 **  OPTIMIZATION CONVERGED  **
 Total job time:  29.56s(wall), 689.53s(cpu)
        *  Thank you very much for using Q-Chem.  Have a nice day.  *

User input: 2 of 3

nid04365 10.128.17
Q-Chem Developer Version! Running on 10.128.17.*
                  Welcome to Q-Chem
     A Quantum Leap Into The Future Of Chemistry

 Q-Chem 5.0, Q-Chem, Inc., Pleasanton, CA (2017)

 Yihan Shao,  Zhengting Gan,  E. Epifanovsky,  A. T. B. Gilbert,  M. Wormit,
 J. Kussmann,  A. W. Lange,  A. Behn,  Jia Deng,  Xintian Feng,  D. Ghosh,
 M. Goldey,  P. R. Horn,  L. D. Jacobson,  I. Kaliman,  T. Kus,  A. Landau,
 Jie Liu,  E. I. Proynov,  R. M. Richard,  R. P. Steele,  E. J. Sundstrom,
 H. L. Woodcock III,  P. M. Zimmerman,  D. Zuev,  B. Albrecht,  E. Alguire,
 S. A. Baeppler,  Z. Benda,  Y. A. Bernard,  E. J. Berquist,  K. B. Bravaya,
 D. Casanova,  Chun-Min Chang,  Yunqing Chen,  A. Chien,  K. D. Closser,
 M. P. Coons,  S. Dasgupta,  M. Diedenhofen,  Hainam Do,  R. G. Edgar,
 Po-Tung Fang,  S. Fatehi,  Qingguo Feng,  Qinghui Ge,  A. Ghysels,
 J. Gomes,  J. Gonthier,  A. Gunina,  M. W. D. Hanson-Heine,
 P. H. P. Harbach,  A. W. Hauser,  J. E. Herr,  E. G. Hohenstein,
 Z. C. Holden,  Kerwin Hui,  T.-C. Jagau,  Hyunjun Ji,  B. Kaduk,
 K. Khistyaev,  Jaehoon Kim,  P. Klunzinger,  K. Koh,  D. Kosenkov,
 T. Kowalczyk,  C. M. Krauter,  A. Kunitsa,  Ka Un Lao,  A. Laurent,
 K. V. Lawler,  Joonho Lee,  D. Lefrancois,  S. Lehtola,  D. S. Levine,
 Yi-Pei Li,  You-Sheng Lin,  Fenglai Liu,  E. Livshits,  A. Luenser,
 P. Manohar,  E. Mansoor,  S. F. Manzer,  Shan-Ping Mao,  Yuezhi Mao,
 N. Mardirossian,  A. V. Marenich,  L. A. Martinez-Martinez,  S. A. Maurer,
 N. J. Mayhall,  S. C. McKenzie,  J.-M. Mewes,  A. F. Morrison,  K. Nanda,
 T. S. Nguyen-Beck,  R. Olivares-Amaya,  J. A. Parkhill,  T. M. Perrine,
 F. Plasser,  S. Prager,  A. Prociuk,  D. R. Rehn,  F. Rob,  M. Schneider,
 N. Sergueev,  S. M. Sharada,  S. Sharma,  D. W. Small,  T. Stauch,
 T. Stein,  Yu-Chuan Su,  A. J. W. Thom,  T. Tsuchimochi,  L. Vogt,
 O. Vydrov,  M. A. Watson,  J. Wenzel,  M. de Wergifosse,  T. A. Wesolowski,
 A. White,  J. Witte,  A. Yamada,  Jun Yang,  K. Yao,  S. Yeganeh,
 S. R. Yost,  Zhi-Qiang You,  A. Zech,  Igor Ying Zhang,  Xing Zhang,
 Yan Zhao,  Ying Zhu,  B. R. Brooks,  G. K. L. Chan,  C. J. Cramer,
 M. S. Gordon,  W. J. Hehre,  A. Klamt,  M. W. Schmidt,  C. D. Sherrill,
 D. G. Truhlar,  A. Aspuru-Guzik,  R. Baer,  A. T. Bell,  N. A. Besley,
 Jeng-Da Chai,  A. Dreuw,  B. D. Dunietz,  T. R. Furlani,  Chao-Ping Hsu,
 Yousung Jung,  Jing Kong,  D. S. Lambrecht,  WanZhen Liang,  C. Ochsenfeld,
 V. A. Rassolov,  L. V. Slipchenko,  J. E. Subotnik,  T. Van Voorhis,
 J. M. Herbert,  A. I. Krylov,  P. M. W. Gill,  M. Head-Gordon

 Contributors to earlier versions of Q-Chem not listed above:
 R. D. Adamson,  B. Austin,  J. Baker,  G. J. O. Beran,  K. Brandhorst,
 S. T. Brown,  E. F. C. Byrd,  A. K. Chakraborty,  C.-L. Cheng,
 Siu Hung Chien,  D. M. Chipman,  D. L. Crittenden,  H. Dachsel,
 R. A. DiStasio Jr.,  R. J. Doerksen,  A. D. Dutoi,  L. Fusti-Molnar,
 W. A. Goddard III,  A. Golubeva-Zadorozhnaya,  S. R. Gwaltney,  G. Hawkins,
 A. Heyden,  S. Hirata,  G. Kedziora,  F. J. Keil,  C. Kelley,  Jihan Kim,
 R. A. King,  R. Z. Khaliullin,  P. P. Korambath,  W. Kurlancheek,
 A. M. Lee,  M. S. Lee,  S. V. Levchenko,  Ching Yeh Lin,  D. Liotard,
 R. C. Lochan,  I. Lotan,  P. E. Maslen,  N. Nair,  D. P. O'Neill,
 D. Neuhauser,  E. Neuscamman,  C. M. Oana,  R. Olson,  B. Peters,
 R. Peverati,  P. A. Pieniazek,  Y. M. Rhee,  J. Ritchie,  M. A. Rohrdanz,
 E. Rosta,  N. J. Russ,  H. F. Schaefer III,  N. E. Schultz,  N. Shenvi,
 A. C. Simmonett,  A. Sodt,  D. Stuck,  K. S. Thanthiriwatte,  V. Vanovschi,
 Tao Wang,  A. Warshel,  C. F. Williams,  Q. Wu,  X. Xu,  W. Zhang

 Please cite Q-Chem as follows:
 Y. Shao et al., Mol. Phys. 113, 184-215 (2015)
 DOI: 10.1080/00268976.2014.952696

 Q-Chem 5.0.0 for Intel X86 EM64T Linux

 Parts of Q-Chem use Armadillo 5.200.1 (Boston Tea Smuggler).
 http://arma.sourceforge.net/

 Q-Chem begins on Wed Oct  4 18:03:12 2017

Host: nid04365
0

     Scratch files written to /global/cscratch1/sd/junteng/scratch/16/opt_10n01oo.save//
The previous job contains 0 fragments, simply inherited here

Checking the input file for inconsistencies... 	...done.

--------------------------------------------------------------
User input:
--------------------------------------------------------------

$molecule
   read
$end

$rem
JOBTYPE                   OPT
METHOD                    B3LYP
DFT_D                     D3_OP
BASIS                     6-311++G(d,p)
GEOM_OPT_MAX_CYCLES       500
GEOM_OPT_TOL_GRADIENT     1
GEOM_OPT_TOL_DISPLACEMENT 1
GEOM_OPT_TOL_ENERGY       1
SYMMETRY                  False
THRESH                    12
SCF_CONVERGENCE           8
MAX_SUB_FILE_NUM          128
MEM_STATIC                400
MEM_TOTAL                 4000
$end

--------------------------------------------------------------

    9    -688.2160442485      4.70E-09 Convergence criterion met
 Total energy in the final basis set = -688.2160442485
    9    -688.2160444359      6.20E-09 Convergence criterion met
 Total energy in the final basis set = -688.2160444359
    8    -688.2160447070      5.89E-09 Convergence criterion met
 Total energy in the final basis set = -688.2160447070
    7    -688.2160445712      4.86E-09 Convergence criterion met
 Total energy in the final basis set = -688.2160445712
    6    -688.2160445747      5.16E-09 Convergence criterion met
 Total energy in the final basis set = -688.2160445747
    5    -688.2160445702      9.69E-09 Convergence criterion met
 Total energy in the final basis set = -688.2160445702
 Final energy is   -688.216044570189
        *  Thank you very much for using Q-Chem.  Have a nice day.  *
 Q-Chem 5.0, Q-Chem, Inc., Pleasanton, CA (2017)
 Q-Chem 5.0.0 for Intel X86 EM64T Linux

             Standard Nuclear Orientation (Angstroms)
    I     Atom           X                Y                Z
 ----------------------------------------------------------------
    1      C      -0.1247784618    -0.8785322889    -0.0300329572
    2      C      -1.1097137051     0.1237833318    -0.0747267354
    3      C       1.3105055096    -0.5442895084    -0.2733229823
    4      C      -0.7853124251     1.5835475798    -0.1792657262
    5      O       2.1383661888    -1.4534067259     0.2831148198
    6      O       1.6984151896     0.3982999773    -0.9222356788
    7      O       0.0651009861     1.9638798737     0.7895972446
    8      O      -1.2813251255     2.3309808861    -0.9858840026
    9      C       0.5527420553     3.3153702343     0.7021651378
   10      C       3.5429680090    -1.2597570765     0.0372286551
   11      C      -0.5137344978    -2.2139014114     0.1231281014
   12      C      -1.8601410141    -2.5547252668     0.2159221259
   13      C      -2.8343905922    -1.5614729071     0.1484657624
   14      C      -2.4575746799    -0.2287992261     0.0001241221
   15      H       1.1449079939     3.4314910478    -0.2070819216
   16      H       3.7503976737    -1.2941046438    -1.0334044786
   17      H      -3.8847863038    -1.8216898327     0.2115931923
   18      H      -0.2762783196     4.0239278094     0.6934992030
   19      H       1.1727881635     3.4568729743     1.5844144282
   20      H       4.0411057578    -2.0781392531     0.5522544455
   21      H       3.8701066790    -0.2986663797     0.4361448248
   22      H      -2.1463739141    -3.5940767286     0.3292777888
   23      H      -3.2061428197     0.5523595926    -0.0526611440
   24      H       0.2463959905    -2.9833474401     0.1511115743
 ----------------------------------------------------------------

   15    -688.2161066775      7.17E-09 Convergence criterion met
 Total energy in the final basis set = -688.2161066775

                    Orbital Energies (a.u.)
 --------------------------------------------------------------

 Alpha MOs
 -- Occupied --
-19.180 -19.170 -19.121 -19.115 -10.314 -10.308 -10.234 -10.224
-10.212 -10.211 -10.199 -10.199 -10.197 -10.197  -1.121  -1.112
 -1.033  -1.026  -0.887  -0.796  -0.787  -0.741  -0.729  -0.655
 -0.639  -0.594  -0.573  -0.553  -0.523  -0.503  -0.493  -0.489
 -0.486  -0.480  -0.463  -0.457  -0.435  -0.431  -0.418  -0.401
 -0.390  -0.382  -0.375  -0.372  -0.361  -0.323  -0.309  -0.298
 -0.293  -0.277  -0.270

          Ground-State Mulliken Net Atomic Charges

     Atom                 Charge (a.u.)
  ----------------------------------------
      1 C                     0.733057
      2 C                     0.335010
      3 C                    -0.376738
      4 C                    -0.654701
      5 O                    -0.065005
      6 O                    -0.213075
      7 O                    -0.003490
      8 O                    -0.212724
      9 C                    -0.245530
     10 C                    -0.236464
     11 C                    -0.091966
     12 C                    -0.201925
     13 C                    -0.198033
     14 C                    -0.303611
     15 H                     0.187645
     16 H                     0.188958
     17 H                     0.172358
     18 H                     0.168219
     19 H                     0.154249
     20 H                     0.158762
     21 H                     0.173214
     22 H                     0.174068
     23 H                     0.174906
     24 H                     0.182814
  ----------------------------------------
  Sum of atomic charges =     0.000000

                    Cartesian Multipole Moments
 -----------------------------------------------------------------
    Charge (ESU x 10^10)
                 0.0000
    Dipole Moment (Debye)
         X       1.0182      Y      -2.4078      Z       2.2040
       Tot       3.4193
    Quadrupole Moments (Debye-Ang)
        XX     -67.8021     XY       3.3983     YY     -73.2193
        XZ      -0.9272     YZ       6.5061     ZZ     -87.5721

 Frequency:        25.63                  74.50                  80.00
 Force Cnst:      0.0023                 0.0103                 0.0170
 Red. Mass:       6.0441                 3.1415                 4.5081
 IR Intens:        0.518                  0.401                  4.931
 Frequency:        92.64                 114.79                 129.10
 Force Cnst:      0.0168                 0.0115                 0.0123
 Red. Mass:       3.3311                 1.4760                 1.2483
 IR Intens:        3.112                  0.534                  0.430
 Frequency:       138.95                 158.13                 214.52
 Force Cnst:      0.0281                 0.0442                 0.1400
 Red. Mass:       2.4661                 3.0016                 5.1636
 IR Intens:        2.253                  1.185                  1.034
 Frequency:       252.02                 284.65                 307.53
 Force Cnst:      0.2179                 0.2085                 0.2874
 Red. Mass:       5.8227                 4.3673                 5.1588
 IR Intens:        1.625                  8.687                  4.821
 Frequency:       333.55                 368.21                 396.20
 Force Cnst:      0.3460                 0.5224                 0.5071
 Red. Mass:       5.2779                 6.5402                 5.4826
 IR Intens:       14.552                 10.392                  1.237
 Frequency:       423.67                 534.99                 560.38
 Force Cnst:      0.4147                 0.8773                 0.8304
 Red. Mass:       3.9215                 5.2024                 4.4880
 IR Intens:        0.840                  2.416                  4.732
 Frequency:       665.13                 704.15                 715.56
 Force Cnst:      1.6349                 1.7753                 1.6247
 Red. Mass:       6.2722                 6.0769                 5.3854
 IR Intens:        4.622                  6.355                  8.169
 Frequency:       750.75                 799.00                 813.72
 Force Cnst:      0.6694                 1.0991                 1.5053
 Red. Mass:       2.0158                 2.9221                 3.8587
 IR Intens:       79.448                 18.727                  5.660
 Frequency:       828.50                 847.84                 903.98
 Force Cnst:      2.0286                 2.1480                 0.7142
 Red. Mass:       5.0161                 5.0718                 1.4834
 IR Intens:       10.995                  1.134                  0.668
 Frequency:       975.09                 984.30                 986.03
 Force Cnst:      1.4110                 4.1572                 1.2585
 Red. Mass:       2.5187                 7.2827                 2.1970
 IR Intens:       15.300                  1.356                  6.720
 Frequency:      1003.87                1063.32                1097.06
 Force Cnst:      0.7816                 1.6632                 3.4691
 Red. Mass:       1.3163                 2.4966                 4.8922
 IR Intens:        0.484                 17.035                 93.820
 Frequency:      1144.50                1156.13                1169.44
 Force Cnst:      2.2084                 1.4930                 1.0468
 Red. Mass:       2.8615                 1.8959                 1.2992
 IR Intens:      158.218                 56.657                  1.371
 Frequency:      1170.42                1190.94                1210.96
 Force Cnst:      1.0352                 0.9352                 1.3531
 Red. Mass:       1.2826                 1.1192                 1.5662
 IR Intens:        0.786                  2.010                 33.020
 Frequency:      1214.34                1276.46                1288.51
 Force Cnst:      1.4133                 3.1645                 3.0314
 Red. Mass:       1.6266                 3.2964                 3.0989
 IR Intens:       48.344                189.058                386.109
 Frequency:      1313.39                1334.89                1466.10
 Force Cnst:      2.1906                 7.7406                 1.6013
 Red. Mass:       2.1554                 7.3728                 1.2644
 IR Intens:      169.201                 22.433                 13.029
 Frequency:      1468.41                1476.03                1482.92
 Force Cnst:      1.5243                 2.5373                 1.3540
 Red. Mass:       1.1999                 1.9766                 1.0450
 IR Intens:       19.764                  7.875                  5.457
 Frequency:      1483.72                1496.32                1496.93
 Force Cnst:      1.3577                 1.3804                 1.3833
 Red. Mass:       1.0467                 1.0464                 1.0477
 IR Intens:       13.290                 16.467                  3.752
 Frequency:      1516.73                1612.84                1636.83
 Force Cnst:      3.5909                 9.6731                 9.0494
 Red. Mass:       2.6494                 6.3115                 5.7327
 IR Intens:       12.436                 12.084                  6.622
 Frequency:      1773.13                1783.33                3050.25
 Force Cnst:     21.8527                22.2626                 5.6435
 Red. Mass:      11.7971                11.8812                 1.0295
 IR Intens:      249.830                303.620                 27.388
 Frequency:      3050.57                3123.68                3125.76
 Force Cnst:      5.6439                 6.3648                 6.3737
 Red. Mass:       1.0294                 1.1071                 1.1072
 IR Intens:       41.979                 17.438                 14.291
 Frequency:      3157.69                3157.99                3173.22
 Force Cnst:      6.4991                 6.5001                 6.4470
 Red. Mass:       1.1063                 1.1062                 1.0867
 IR Intens:       13.587                 13.151                  1.656
 Frequency:      3186.95                3199.04                3210.07
 Force Cnst:      6.5314                 6.6019                 6.6408
 Red. Mass:       1.0914                 1.0949                 1.0938
 IR Intens:        8.798                  7.019                  3.743

 STANDARD THERMODYNAMIC QUANTITIES AT   298.15 K  AND     1.00 ATM

   This Molecule has  0 Imaginary Frequencies
   Zero point vibrational energy:      116.119 kcal/mol

   Atom    1 Element C  Has Mass   12.00000
   Atom    2 Element C  Has Mass   12.00000
   Atom    3 Element C  Has Mass   12.00000
   Atom    4 Element C  Has Mass   12.00000
   Atom    5 Element O  Has Mass   15.99491
   Atom    6 Element O  Has Mass   15.99491
   Atom    7 Element O  Has Mass   15.99491
   Atom    8 Element O  Has Mass   15.99491
   Atom    9 Element C  Has Mass   12.00000
   Atom   10 Element C  Has Mass   12.00000
   Atom   11 Element C  Has Mass   12.00000
   Atom   12 Element C  Has Mass   12.00000
   Atom   13 Element C  Has Mass   12.00000
   Atom   14 Element C  Has Mass   12.00000
   Atom   15 Element H  Has Mass    1.00783
   Atom   16 Element H  Has Mass    1.00783
   Atom   17 Element H  Has Mass    1.00783
   Atom   18 Element H  Has Mass    1.00783
   Atom   19 Element H  Has Mass    1.00783
   Atom   20 Element H  Has Mass    1.00783
   Atom   21 Element H  Has Mass    1.00783
   Atom   22 Element H  Has Mass    1.00783
   Atom   23 Element H  Has Mass    1.00783
   Atom   24 Element H  Has Mass    1.00783
   Molecular Mass:   194.057940 amu
   Principal axes and moments of inertia in amu*Bohr^2:
                             1           2           3
    Eigenvalues --     2393.57259  2463.10989  4475.09675
          X               0.96890     0.24744     0.00045
          Y              -0.24744     0.96886     0.00976
          Z               0.00198    -0.00957     0.99995
   Rotational Symmetry Number is   1
   The Molecule is an Asymmetric Top
   Translational Enthalpy:        0.889 kcal/mol
   Rotational Enthalpy:           0.889 kcal/mol
   Vibrational Enthalpy:        122.810 kcal/mol
   gas constant (RT):             0.592 kcal/mol
   Translational Entropy:        41.694  cal/mol.K
   Rotational Entropy:           31.645  cal/mol.K
   Vibrational Entropy:          44.256  cal/mol.K

   Total Enthalpy:              125.180 kcal/mol
   Total Entropy:               117.595  cal/mol.K

 Total job time:  4104.37s(wall), 20284.08s(cpu)
        *  Thank you very much for using Q-Chem.  Have a nice day.  *
