 Q-Chem 5.0, Q-Chem, Inc., Pleasanton, CA (2017)
 Q-Chem 5.0.0 for Intel X86 EM64T Linux

User input:
--------------------------------------------------------------
$molecule
0  1
C    0.304  -2.425   0.241
C   -0.187  -2.670   1.539
C    0.664  -1.037  -0.131
C   -0.223  -1.586   2.547
O    1.892  -1.027  -0.706
O   -0.050  -0.071   0.073
O    1.036  -1.102   2.698
O   -1.208  -1.281   3.197
C    1.131  -0.051   3.659
C    2.346   0.277  -1.069
C    0.337  -3.468  -0.713
C   -0.078  -4.750  -0.324
C   -0.556  -4.992   0.965
C   -0.619  -3.961   1.912
H    0.496   0.792   3.371
H    1.683   0.717  -1.820
H   -0.885  -5.997   1.223
H    0.862  -0.417   4.655
H    2.169   0.291   3.685
H    3.345   0.180  -1.503
H    2.413   0.921  -0.186
H   -0.050  -5.576  -1.034
C   -1.153  -4.262   3.286
C    0.800  -3.263  -2.130
H    0.377  -2.346  -2.553
H    0.472  -4.085  -2.776
H    1.893  -3.221  -2.170
H   -2.134  -3.796   3.422
H   -0.464  -3.904   4.057
H   -1.273  -5.340   3.441
$end

$opt
CONSTRAINT
tors    2    1    3    5    140.2
tors    1    2    4    7    -57.3
ENDCONSTRAINT
$end

$rem
JOBTYPE                   OPT
METHOD                    B3LYP
DFT_D                     D3_OP
BASIS                     STO-3G
GEOM_OPT_MAX_CYCLES       500
SYMMETRY                  False
THRESH                    12
SCF_CONVERGENCE           8
MAX_SUB_FILE_NUM          128
MEM_STATIC                400
MEM_TOTAL                 4000
$end

--------------------------------------------------------------

   15    -756.7774928998      6.43E-09 Convergence criterion met
 Total energy in the final basis set = -756.7774928998
   14    -756.8042120484      6.23E-09 Convergence criterion met
 Total energy in the final basis set = -756.8042120484
   14    -756.8076801566      3.79E-09 Convergence criterion met
 Total energy in the final basis set = -756.8076801566
   12    -756.8080386973      8.63E-09 Convergence criterion met
 Total energy in the final basis set = -756.8080386973
   11    -756.8080935038      5.26E-09 Convergence criterion met
 Total energy in the final basis set = -756.8080935038
   11    -756.8081212013      5.61E-09 Convergence criterion met
 Total energy in the final basis set = -756.8081212013
   11    -756.8081332511      1.93E-09 Convergence criterion met
 Total energy in the final basis set = -756.8081332511
   11    -756.8081564658      2.55E-09 Convergence criterion met
 **  OPTIMIZATION CONVERGED  **
 Total job time:  160.22s(wall), 3700.91s(cpu)
        *  Thank you very much for using Q-Chem.  Have a nice day.  *

User input: 2 of 3

nid03064 10.128.12
Q-Chem Developer Version! Running on 10.128.12.*
                  Welcome to Q-Chem
     A Quantum Leap Into The Future Of Chemistry

 Q-Chem 5.0, Q-Chem, Inc., Pleasanton, CA (2017)

 Yihan Shao,  Zhengting Gan,  E. Epifanovsky,  A. T. B. Gilbert,  M. Wormit,
 J. Kussmann,  A. W. Lange,  A. Behn,  Jia Deng,  Xintian Feng,  D. Ghosh,
 M. Goldey,  P. R. Horn,  L. D. Jacobson,  I. Kaliman,  T. Kus,  A. Landau,
 Jie Liu,  E. I. Proynov,  R. M. Richard,  R. P. Steele,  E. J. Sundstrom,
 H. L. Woodcock III,  P. M. Zimmerman,  D. Zuev,  B. Albrecht,  E. Alguire,
 S. A. Baeppler,  Z. Benda,  Y. A. Bernard,  E. J. Berquist,  K. B. Bravaya,
 D. Casanova,  Chun-Min Chang,  Yunqing Chen,  A. Chien,  K. D. Closser,
 M. P. Coons,  S. Dasgupta,  M. Diedenhofen,  Hainam Do,  R. G. Edgar,
 Po-Tung Fang,  S. Fatehi,  Qingguo Feng,  Qinghui Ge,  A. Ghysels,
 J. Gomes,  J. Gonthier,  A. Gunina,  M. W. D. Hanson-Heine,
 P. H. P. Harbach,  A. W. Hauser,  J. E. Herr,  E. G. Hohenstein,
 Z. C. Holden,  Kerwin Hui,  T.-C. Jagau,  Hyunjun Ji,  B. Kaduk,
 K. Khistyaev,  Jaehoon Kim,  P. Klunzinger,  K. Koh,  D. Kosenkov,
 T. Kowalczyk,  C. M. Krauter,  A. Kunitsa,  Ka Un Lao,  A. Laurent,
 K. V. Lawler,  Joonho Lee,  D. Lefrancois,  S. Lehtola,  D. S. Levine,
 Yi-Pei Li,  You-Sheng Lin,  Fenglai Liu,  E. Livshits,  A. Luenser,
 P. Manohar,  E. Mansoor,  S. F. Manzer,  Shan-Ping Mao,  Yuezhi Mao,
 N. Mardirossian,  A. V. Marenich,  L. A. Martinez-Martinez,  S. A. Maurer,
 N. J. Mayhall,  S. C. McKenzie,  J.-M. Mewes,  A. F. Morrison,  K. Nanda,
 T. S. Nguyen-Beck,  R. Olivares-Amaya,  J. A. Parkhill,  T. M. Perrine,
 F. Plasser,  S. Prager,  A. Prociuk,  D. R. Rehn,  F. Rob,  M. Schneider,
 N. Sergueev,  S. M. Sharada,  S. Sharma,  D. W. Small,  T. Stauch,
 T. Stein,  Yu-Chuan Su,  A. J. W. Thom,  T. Tsuchimochi,  L. Vogt,
 O. Vydrov,  M. A. Watson,  J. Wenzel,  M. de Wergifosse,  T. A. Wesolowski,
 A. White,  J. Witte,  A. Yamada,  Jun Yang,  K. Yao,  S. Yeganeh,
 S. R. Yost,  Zhi-Qiang You,  A. Zech,  Igor Ying Zhang,  Xing Zhang,
 Yan Zhao,  Ying Zhu,  B. R. Brooks,  G. K. L. Chan,  C. J. Cramer,
 M. S. Gordon,  W. J. Hehre,  A. Klamt,  M. W. Schmidt,  C. D. Sherrill,
 D. G. Truhlar,  A. Aspuru-Guzik,  R. Baer,  A. T. Bell,  N. A. Besley,
 Jeng-Da Chai,  A. Dreuw,  B. D. Dunietz,  T. R. Furlani,  Chao-Ping Hsu,
 Yousung Jung,  Jing Kong,  D. S. Lambrecht,  WanZhen Liang,  C. Ochsenfeld,
 V. A. Rassolov,  L. V. Slipchenko,  J. E. Subotnik,  T. Van Voorhis,
 J. M. Herbert,  A. I. Krylov,  P. M. W. Gill,  M. Head-Gordon

 Contributors to earlier versions of Q-Chem not listed above:
 R. D. Adamson,  B. Austin,  J. Baker,  G. J. O. Beran,  K. Brandhorst,
 S. T. Brown,  E. F. C. Byrd,  A. K. Chakraborty,  C.-L. Cheng,
 Siu Hung Chien,  D. M. Chipman,  D. L. Crittenden,  H. Dachsel,
 R. A. DiStasio Jr.,  R. J. Doerksen,  A. D. Dutoi,  L. Fusti-Molnar,
 W. A. Goddard III,  A. Golubeva-Zadorozhnaya,  S. R. Gwaltney,  G. Hawkins,
 A. Heyden,  S. Hirata,  G. Kedziora,  F. J. Keil,  C. Kelley,  Jihan Kim,
 R. A. King,  R. Z. Khaliullin,  P. P. Korambath,  W. Kurlancheek,
 A. M. Lee,  M. S. Lee,  S. V. Levchenko,  Ching Yeh Lin,  D. Liotard,
 R. C. Lochan,  I. Lotan,  P. E. Maslen,  N. Nair,  D. P. O'Neill,
 D. Neuhauser,  E. Neuscamman,  C. M. Oana,  R. Olson,  B. Peters,
 R. Peverati,  P. A. Pieniazek,  Y. M. Rhee,  J. Ritchie,  M. A. Rohrdanz,
 E. Rosta,  N. J. Russ,  H. F. Schaefer III,  N. E. Schultz,  N. Shenvi,
 A. C. Simmonett,  A. Sodt,  D. Stuck,  K. S. Thanthiriwatte,  V. Vanovschi,
 Tao Wang,  A. Warshel,  C. F. Williams,  Q. Wu,  X. Xu,  W. Zhang

 Please cite Q-Chem as follows:
 Y. Shao et al., Mol. Phys. 113, 184-215 (2015)
 DOI: 10.1080/00268976.2014.952696

 Q-Chem 5.0.0 for Intel X86 EM64T Linux

 Parts of Q-Chem use Armadillo 5.200.1 (Boston Tea Smuggler).
 http://arma.sourceforge.net/

 Q-Chem begins on Wed Oct  4 18:29:06 2017

Host: nid03064
0

     Scratch files written to /global/cscratch1/sd/junteng/scratch/18/opt_11n11+o.save//
The previous job contains 0 fragments, simply inherited here

Checking the input file for inconsistencies... 	...done.

--------------------------------------------------------------
User input:
--------------------------------------------------------------

$molecule
   read
$end

$rem
JOBTYPE                   OPT
METHOD                    B3LYP
DFT_D                     D3_OP
BASIS                     6-311++G(d,p)
GEOM_OPT_MAX_CYCLES       500
GEOM_OPT_TOL_GRADIENT     1
GEOM_OPT_TOL_DISPLACEMENT 1
GEOM_OPT_TOL_ENERGY       1
SYMMETRY                  False
THRESH                    12
SCF_CONVERGENCE           8
MAX_SUB_FILE_NUM          128
MEM_STATIC                400
MEM_TOTAL                 4000
$end

--------------------------------------------------------------

    9    -766.8750650911      2.97E-09 Convergence criterion met
 Total energy in the final basis set = -766.8750650911
    7    -766.8750650981      6.79E-09 Convergence criterion met
 Total energy in the final basis set = -766.8750650981
    6    -766.8750652402      8.61E-09 Convergence criterion met
 Total energy in the final basis set = -766.8750652402
    5    -766.8750652376      7.35E-09 Convergence criterion met
 Total energy in the final basis set = -766.8750652376
    5    -766.8750652517      4.88E-09 Convergence criterion met
 Total energy in the final basis set = -766.8750652517
    4    -766.8750652451      6.29E-09 Convergence criterion met
 Total energy in the final basis set = -766.8750652451
 Final energy is   -766.875065245075
        *  Thank you very much for using Q-Chem.  Have a nice day.  *
 Q-Chem 5.0, Q-Chem, Inc., Pleasanton, CA (2017)
 Q-Chem 5.0.0 for Intel X86 EM64T Linux

             Standard Nuclear Orientation (Angstroms)
    I     Atom           X                Y                Z
 ----------------------------------------------------------------
    1      C       0.1521323529    -0.7428938348    -0.0926509186
    2      C      -0.9826738385     0.0862601043    -0.0290769535
    3      C       1.4951568451    -0.1366586518    -0.3780461060
    4      C      -0.8356305599     1.5708034757    -0.1427627590
    5      O       2.3789997556    -0.3940851467     0.6029229151
    6      O       1.7651851523     0.4785827319    -1.3813620076
    7      O       0.1915676530     2.0236464284     0.6073427028
    8      O      -1.5472089077     2.2909469992    -0.8003112115
    9      C       0.5160436238     3.4169066565     0.4534132056
   10      C       3.7073834608     0.1226766459     0.3999947988
   11      C       0.0328801478    -2.1394546219    -0.0137390794
   12      C      -1.2471622402    -2.6713565196     0.1490629939
   13      C      -2.3675843466    -1.8542832353     0.2265077467
   14      C      -2.2684302097    -0.4652742161     0.1285050612
   15      H       0.8250813697     3.6152971831    -0.5741243396
   16      H       4.1532004595    -0.3108396090    -0.4966490113
   17      H      -3.3465221122    -2.3032685901     0.3570255500
   18      H      -0.3438925529     4.0402117837     0.7012736870
   19      H       1.3359682708     3.6005792250     1.1441879730
   20      H       4.2683157378    -0.1647083359     1.2863735286
   21      H       3.6788420827     1.2082390039     0.2968058486
   22      H      -1.3676273129    -3.7480693527     0.2083223015
   23      C      -3.5217225616     0.3742100204     0.2013949371
   24      C       1.2243249070    -3.0613389547    -0.1260599972
   25      H       1.8613651246    -2.7946104155    -0.9734408693
   26      H       0.8952482184    -4.0922512581    -0.2676352573
   27      H       1.8438718225    -3.0189214422     0.7731818870
   28      H      -3.7342302900     0.8460476996    -0.7597797308
   29      H      -3.4327956908     1.1799856691     0.9340306878
   30      H      -4.3734798378    -0.2480008731     0.4824309772
 ----------------------------------------------------------------

   15    -766.8749162362      8.85E-09 Convergence criterion met
 Total energy in the final basis set = -766.8749162362

                    Orbital Energies (a.u.)
 --------------------------------------------------------------

 Alpha MOs
 -- Occupied --
-19.178 -19.173 -19.120 -19.116 -10.312 -10.308 -10.233 -10.228
-10.205 -10.204 -10.201 -10.200 -10.187 -10.185 -10.176 -10.168
 -1.121  -1.114  -1.031  -1.028  -0.885  -0.808  -0.792  -0.748
 -0.733  -0.726  -0.674  -0.648  -0.620  -0.576  -0.568  -0.532
 -0.519  -0.513  -0.489  -0.488  -0.480  -0.477  -0.469  -0.441
 -0.436  -0.428  -0.423  -0.415  -0.412  -0.405  -0.396  -0.387
 -0.381  -0.372  -0.360  -0.358  -0.357  -0.320  -0.312  -0.298
 -0.287  -0.265  -0.253

          Ground-State Mulliken Net Atomic Charges

     Atom                 Charge (a.u.)
  ----------------------------------------
      1 C                     0.435759
      2 C                     0.563316
      3 C                    -0.937175
      4 C                    -0.440075
      5 O                     0.046763
      6 O                    -0.122891
      7 O                    -0.012362
      8 O                    -0.197403
      9 C                    -0.224302
     10 C                    -0.213247
     11 C                     0.619664
     12 C                    -0.542705
     13 C                    -0.670498
     14 C                     0.512918
     15 H                     0.195812
     16 H                     0.184329
     17 H                     0.124667
     18 H                     0.175291
     19 H                     0.149887
     20 H                     0.158962
     21 H                     0.158656
     22 H                     0.132304
     23 C                    -0.561593
     24 C                    -0.573827
     25 H                     0.176919
     26 H                     0.151830
     27 H                     0.191827
     28 H                     0.203443
     29 H                     0.174210
     30 H                     0.139519
  ----------------------------------------
  Sum of atomic charges =     0.000000

                    Cartesian Multipole Moments
 -----------------------------------------------------------------
    Charge (ESU x 10^10)
                 0.0000
    Dipole Moment (Debye)
         X       1.5193      Y      -1.4764      Z       2.4768
       Tot       3.2592
    Quadrupole Moments (Debye-Ang)
        XX     -82.3258     XY       5.4805     YY     -84.5817
        XZ       0.4569     YZ       5.6058     ZZ    -102.1009

 Frequency:        20.99                  52.34                  68.18
 Force Cnst:      0.0014                 0.0066                 0.0108
 Red. Mass:       5.3829                 4.0776                 3.9532
 IR Intens:        0.383                  0.089                  3.240
 Frequency:        79.61                 111.41                 116.81
 Force Cnst:      0.0111                 0.0109                 0.0180
 Red. Mass:       2.9708                 1.4896                 2.2436
 IR Intens:        3.405                  0.325                  0.674
 Frequency:       125.63                 131.64                 136.17
 Force Cnst:      0.0221                 0.0128                 0.0118
 Red. Mass:       2.3735                 1.2560                 1.0772
 IR Intens:        4.783                  0.663                  0.094
 Frequency:       143.59                 150.60                 217.72
 Force Cnst:      0.0202                 0.0203                 0.1443
 Red. Mass:       1.6623                 1.5216                 5.1657
 IR Intens:        0.256                  0.540                  0.239
 Frequency:       240.05                 248.98                 291.31
 Force Cnst:      0.2022                 0.1656                 0.1550
 Red. Mass:       5.9548                 4.5336                 3.1009
 IR Intens:        0.732                  3.767                  0.920
 Frequency:       303.74                 313.14                 322.89
 Force Cnst:      0.2579                 0.2284                 0.2292
 Red. Mass:       4.7453                 3.9527                 3.7314
 IR Intens:        5.035                  9.942                  8.606
 Frequency:       368.38                 400.62                 423.31
 Force Cnst:      0.4618                 0.3670                 0.5310
 Red. Mass:       5.7754                 3.8809                 5.0293
 IR Intens:        5.109                  6.637                  1.063
 Frequency:       486.60                 494.10                 554.83
 Force Cnst:      0.6016                 0.5348                 0.7818
 Red. Mass:       4.3126                 3.7181                 4.3103
 IR Intens:        1.222                 10.032                  2.088
 Frequency:       616.33                 712.38                 726.17
 Force Cnst:      1.0605                 1.8441                 1.9501
 Red. Mass:       4.7386                 6.1676                 6.2768
 IR Intens:        7.189                  1.150                  0.479
 Frequency:       735.87                 798.78                 805.64
 Force Cnst:      2.0014                 2.1529                 2.3509
 Red. Mass:       6.2732                 5.7269                 6.1475
 IR Intens:       23.574                  6.473                 10.513
 Frequency:       814.12                 830.37                 890.34
 Force Cnst:      2.5424                 0.5302                 2.6291
 Red. Mass:       6.5106                 1.3052                 5.6293
 IR Intens:       10.547                 18.323                  5.036
 Frequency:       921.68                 968.65                 988.23
 Force Cnst:      2.1742                 0.7377                 1.5097
 Red. Mass:       4.3440                 1.3345                 2.6238
 IR Intens:        9.693                  0.142                  5.562
 Frequency:       996.82                1046.54                1055.37
 Force Cnst:      2.7963                 0.9958                 1.5025
 Red. Mass:       4.7764                 1.5431                 2.2896
 IR Intens:       12.143                  3.327                 56.334
 Frequency:      1059.01                1062.76                1133.73
 Force Cnst:      1.0919                 1.0161                 4.0484
 Red. Mass:       1.6524                 1.5269                 5.3458
 IR Intens:        8.768                  3.895                 87.004
 Frequency:      1169.39                1169.99                1183.83
 Force Cnst:      1.0353                 1.0374                 1.2671
 Red. Mass:       1.2849                 1.2862                 1.5345
 IR Intens:        0.320                  1.998                 93.122
 Frequency:      1202.14                1210.62                1222.45
 Force Cnst:      1.5554                 1.3696                 2.8054
 Red. Mass:       1.8268                 1.5861                 3.1863
 IR Intens:       21.755                 12.226                294.479
 Frequency:      1274.91                1286.76                1292.77
 Force Cnst:      1.8212                 5.9709                 4.1324
 Red. Mass:       1.9017                 6.1207                 4.1967
 IR Intens:       12.819                174.857                214.150
 Frequency:      1315.48                1418.19                1419.88
 Force Cnst:      6.5036                 1.4678                 1.4762
 Red. Mass:       6.3788                 1.2386                 1.2428
 IR Intens:       48.381                  1.203                  5.079
 Frequency:      1432.00                1465.10                1468.57
 Force Cnst:      3.5364                 1.5175                 1.5945
 Red. Mass:       2.9270                 1.1999                 1.2548
 IR Intens:       52.504                 11.153                 46.786
 Frequency:      1481.11                1481.85                1483.15
 Force Cnst:      1.4477                 1.3542                 1.3628
 Red. Mass:       1.1201                 1.0467                 1.0515
 IR Intens:        4.144                  2.229                 18.526
 Frequency:      1486.04                1490.87                1495.85
 Force Cnst:      1.4245                 1.4406                 1.3893
 Red. Mass:       1.0948                 1.1001                 1.0538
 IR Intens:        0.251                 10.584                 15.019
 Frequency:      1496.87                1501.32                1503.19
 Force Cnst:      1.3950                 1.7153                 2.5243
 Red. Mass:       1.0567                 1.2916                 1.8961
 IR Intens:        3.316                  5.641                 20.554
 Frequency:      1608.38                1632.84                1772.79
 Force Cnst:      8.1820                11.1278                21.8482
 Red. Mass:       5.3682                 7.0839                11.7991
 IR Intens:       13.394                  2.261                 99.713
 Frequency:      1778.32                3035.16                3040.88
 Force Cnst:     21.8260                 5.6223                 5.6428
 Red. Mass:      11.7140                 1.0359                 1.0357
 IR Intens:      418.911                 24.399                 23.162
 Frequency:      3050.34                3050.63                3090.81
 Force Cnst:      5.6431                 5.6446                 6.1942
 Red. Mass:       1.0294                 1.0294                 1.1005
 IR Intens:       16.095                 52.182                 10.652
 Frequency:      3099.23                3108.04                3112.25
 Force Cnst:      6.2261                 6.2731                 6.2930
 Red. Mass:       1.1002                 1.1022                 1.1027
 IR Intens:       12.773                 17.528                 12.681
 Frequency:      3122.70                3125.60                3156.35
 Force Cnst:      6.3588                 6.3733                 6.4943
 Red. Mass:       1.1068                 1.1073                 1.1064
 IR Intens:       18.070                 13.676                 13.078
 Frequency:      3158.15                3160.53                3177.59
 Force Cnst:      6.5014                 6.3984                 6.5119
 Red. Mass:       1.1064                 1.0872                 1.0946
 IR Intens:       12.712                  8.238                 20.498

 STANDARD THERMODYNAMIC QUANTITIES AT   298.15 K  AND     1.00 ATM

   This Molecule has  0 Imaginary Frequencies
   Zero point vibrational energy:      150.389 kcal/mol

   Atom    1 Element C  Has Mass   12.00000
   Atom    2 Element C  Has Mass   12.00000
   Atom    3 Element C  Has Mass   12.00000
   Atom    4 Element C  Has Mass   12.00000
   Atom    5 Element O  Has Mass   15.99491
   Atom    6 Element O  Has Mass   15.99491
   Atom    7 Element O  Has Mass   15.99491
   Atom    8 Element O  Has Mass   15.99491
   Atom    9 Element C  Has Mass   12.00000
   Atom   10 Element C  Has Mass   12.00000
   Atom   11 Element C  Has Mass   12.00000
   Atom   12 Element C  Has Mass   12.00000
   Atom   13 Element C  Has Mass   12.00000
   Atom   14 Element C  Has Mass   12.00000
   Atom   15 Element H  Has Mass    1.00783
   Atom   16 Element H  Has Mass    1.00783
   Atom   17 Element H  Has Mass    1.00783
   Atom   18 Element H  Has Mass    1.00783
   Atom   19 Element H  Has Mass    1.00783
   Atom   20 Element H  Has Mass    1.00783
   Atom   21 Element H  Has Mass    1.00783
   Atom   22 Element H  Has Mass    1.00783
   Atom   23 Element C  Has Mass   12.00000
   Atom   24 Element C  Has Mass   12.00000
   Atom   25 Element H  Has Mass    1.00783
   Atom   26 Element H  Has Mass    1.00783
   Atom   27 Element H  Has Mass    1.00783
   Atom   28 Element H  Has Mass    1.00783
   Atom   29 Element H  Has Mass    1.00783
   Atom   30 Element H  Has Mass    1.00783
   Molecular Mass:   222.089260 amu
   Principal axes and moments of inertia in amu*Bohr^2:
                             1           2           3
    Eigenvalues --     2853.89119  3197.17831  5563.52373
          X               0.99994     0.01121     0.00103
          Y              -0.01122     0.99990     0.00803
          Z              -0.00094    -0.00804     0.99997
   Rotational Symmetry Number is   1
   The Molecule is an Asymmetric Top
   Translational Enthalpy:        0.889 kcal/mol
   Rotational Enthalpy:           0.889 kcal/mol
   Vibrational Enthalpy:        159.270 kcal/mol
   gas constant (RT):             0.592 kcal/mol
   Translational Entropy:        42.096  cal/mol.K
   Rotational Entropy:           32.295  cal/mol.K
   Vibrational Entropy:          59.377  cal/mol.K

   Total Enthalpy:              161.640 kcal/mol
   Total Entropy:               133.769  cal/mol.K

 Total job time:  8437.92s(wall), 47346.32s(cpu)
        *  Thank you very much for using Q-Chem.  Have a nice day.  *
