 Q-Chem 4.4, Q-Chem, Inc., Pleasanton, CA (2016)
 Q-Chem 4.3.0 for Intel X86 EM64T Linux

User input:
--------------------------------------------------------------
$molecule
0  1
C    0.355  -2.424   0.293
C   -0.264  -2.685   1.524
C    0.749  -1.045  -0.086
C   -0.385  -1.681   2.598
O    1.805  -1.090  -0.938
O    0.175  -0.038   0.291
O    0.833  -1.128   2.820
O   -1.397  -1.517   3.259
C    0.836  -0.152   3.862
C    2.258   0.195  -1.365
C    0.489  -3.469  -0.639
C    0.011  -4.748  -0.345
C   -0.620  -4.996   0.872
C   -0.760  -3.969   1.804
H    0.142   0.662   3.629
H    1.480   0.699  -1.947
H   -1.003  -5.990   1.096
H    0.581  -0.616   4.820
H    1.845   0.263   3.935
H    3.132   0.050  -2.006
H    2.557   0.804  -0.506
H    0.116  -5.548  -1.075
H   -1.248  -4.169   2.757
H    0.945  -3.290  -1.611
$end

$opt
CONSTRAINT
tors    2    1    3    5    155.0
tors    1    2    4    7    -50.0
ENDCONSTRAINT
$end

$rem
JOBTYPE                   OPT
METHOD                    B3LYP
DFT_D                     EMPIRICAL_GRIMME3
BASIS                     6-31G*
GEOM_OPT_MAX_CYCLES       500
GEOM_OPT_TOL_GRADIENT     5
GEOM_OPT_TOL_DISPLACEMENT 5
GEOM_OPT_TOL_ENERGY       5
SYMMETRY                  False
THRESH                    12
SCF_CONVERGENCE           8
MAX_SUB_FILE_NUM          128
MEM_STATIC                400
MEM_TOTAL                 4000
$end

--------------------------------------------------------------

   15    -688.0123746139      8.48E-09 Convergence criterion met
 Total energy in the final basis set = -688.0123746139
   13    -688.0158335752      5.08E-09 Convergence criterion met
 Total energy in the final basis set = -688.0158335752
   11    -688.0161962639      9.47E-09 Convergence criterion met
 Total energy in the final basis set = -688.0161962639
   12    -688.0162304105      4.20E-09 Convergence criterion met
 Total energy in the final basis set = -688.0162304105
   11    -688.0162690368      5.86E-09 Convergence criterion met
 Total energy in the final basis set = -688.0162690368
   10    -688.0162858687      6.77E-09 Convergence criterion met
 Total energy in the final basis set = -688.0162858687
   10    -688.0162988946      5.30E-09 Convergence criterion met
 Total energy in the final basis set = -688.0162988946
   10    -688.0163121903      4.59E-09 Convergence criterion met
 **  OPTIMIZATION CONVERGED  **
 Total job time:  187.97s(wall), 2538.52s(cpu)
        *  Thank you very much for using Q-Chem.  Have a nice day.  *

User input: 2 of 2

                  Welcome to Q-Chem
     A Quantum Leap Into The Future Of Chemistry

 Q-Chem 4.4, Q-Chem, Inc., Pleasanton, CA (2016)

 Y. Shao,  Z. Gan,  E. Epifanovsky,  A. T. B. Gilbert,  M. Wormit,
 J. Kussmann,  A. W. Lange,  A. Behn,  J. Deng,  X. Feng,  D. Ghosh,
 M. Goldey,  P. R. Horn,  L. D. Jacobson,  I. Kaliman,  R. Z. Khaliullin,
 T. Kus,  A. Landau,  J. Liu,  E. I. Proynov,  Y. M. Rhee,  R. M. Richard,
 M. A. Rohrdanz,  R. P. Steele,  E. J. Sundstrom,  H. L. Woodcock III,
 P. M. Zimmerman,  D. Zuev,  B. Albrecht,  E. Alguire,  B. Austin,
 S. A. Baeppler,  G. J. O. Beran,  Y. A. Bernard,  E. Berquist,
 K. Brandhorst,  K. B. Bravaya,  S. T. Brown,  D. Casanova,  C.-M. Chang,
 Y. Chen,  S. H. Chien,  K. D. Closser,  M. P. Coons,  D. L. Crittenden,
 S. Dasgupta,  M. Diedenhofen,  R. A. DiStasio Jr.,  H. Do,  A. D. Dutoi,
 R. G. Edgar,  P.-T. Fang,  S. Fatehi,  Q. Feng,  L. Fusti-Molnar,
 A. Ghysels,  A. Golubeva-Zadorozhnaya,  J. Gomes,  A. Gunina,
 M. W. D. Hanson-Heine,  P. H. P. Harbach,  A. W. Hauser,  E. G. Hohenstein,
 Z. C. Holden,  K. Hui,  T.-C. Jagau,  H. Ji,  B. Kaduk,  K. Khistyaev,
 Jaehoon Kim,  Jihan Kim,  R. A. King,  P. Klunzinger,  D. Kosenkov,
 T. Kowalczyk,  C. M. Krauter,  A. Kunitsa,  K. U. Lao,  A. Laurent,
 K. V. Lawler,  D. Lefrancois,  S. Lehtola,  S. V. Levchenko,  C. Y. Lin,
 Y.-S. Lin,  F. Liu,  E. Livshits,  R. C. Lochan,  A. Luenser,  P. Manohar,
 S. F. Manzer,  S.-P. Mao,  Y. Mao,  N. Mardirossian,  A. V. Marenich,
 L. A. Martinez-Martinez,  S. A. Maurer,  N. J. Mayhall,  J.-M. Mewes,
 A. F. Morrison,  K. Nanda,  C. M. Oana,  R. Olivares-Amaya,  D. P. O'Neill,
 J. A. Parkhill,  T. M. Perrine,  R. Peverati,  P. A. Pieniazek,  F. Plasser,
 A. Prociuk,  D. R. Rehn,  E. Rosta,  N. J. Russ,  N. Sergueev,
 S. M. Sharada,  S. Sharma,  D. W. Small,  A. Sodt,  T. Stauch,  T. Stein,
 D. Stuck,  Y.-C. Su,  A. J. W. Thom,  T. Tsuchimochi,  L. Vogt,  O. Vydrov,
 T. Wang,  M. A. Watson,  J. Wenzel,  A. White,  C. F. Williams,
 V. Vanovschi,  S. Yeganeh,  S. R. Yost,  Z.-Q. You,  I. Y. Zhang,  X. Zhang,
 Y. Zhao,  B. R. Brooks,  G. K. L. Chan,  D. M. Chipman,  C. J. Cramer,
 W. A. Goddard III,  M. S. Gordon,  W. J. Hehre,  A. Klamt,
 H. F. Schaefer III,  M. W. Schmidt,  C. D. Sherrill,  D. G. Truhlar,
 A. Warshel,  X. Xu,  A. Aspuru-Guzik,  R. Baer,  A. T. Bell,  N. A. Besley,
 J.-D. Chai,  A. Dreuw,  B. D. Dunietz,  T. R. Furlani,  S. R. Gwaltney,
 C.-P. Hsu,  Y. Jung,  J. Kong,  D. S. Lambrecht,  W. Liang,  C. Ochsenfeld,
 V. A. Rassolov,  L. V. Slipchenko,  J. E. Subotnik,  T. Van Voorhis,
 J. M. Herbert,  A. I. Krylov,  P. M. W. Gill,  M. Head-Gordon

 Contributors to earlier versions of Q-Chem not listed above:
 R. D. Adamson,  J. Baker,  E. F. C. Byrd,  A. K. Chakraborty,  C.-L. Cheng,
 H. Dachsel,  R. J. Doerksen,  G. Hawkins,  A. Heyden,  S. Hirata,
 G. Kedziora,  F. J. Keil,  C. Kelley,  P. P. Korambath,  W. Kurlancheek,
 A. M. Lee,  M. S. Lee,  D. Liotard,  I. Lotan,  P. E. Maslen,  N. Nair,
 D. Neuhauser,  R. Olson,  B. Peters,  J. Ritchie,  N. E. Schultz,
 N. Shenvi,  A. C. Simmonett,  K. S. Thanthiriwatte,  Q. Wu,  W. Zhang

 Please cite Q-Chem as follows:
 Y. Shao et al., Mol. Phys. 113, 184-215 (2015)
 DOI: 10.1080/00268976.2014.952696

 Q-Chem 4.3.0 for Intel X86 EM64T Linux

 Parts of Q-Chem use Armadillo 5.200.1 (Boston Tea Smuggler).
 http://arma.sourceforge.net/

 Q-Chem begins on Mon Oct  2 23:24:09 2017

Host: nid06079
0

     Scratch files written to /global/cscratch1/sd/junteng/scratch/16/opt_10n01.save//

Checking the input file for inconsistencies... 	...done.

--------------------------------------------------------------
User input:
--------------------------------------------------------------

$molecule
   read
$end

$rem
JOBTYPE                   OPT
METHOD                    B3LYP
DFT_D                     EMPIRICAL_GRIMME3
BASIS                     6-31G*
GEOM_OPT_MAX_CYCLES       500
GEOM_OPT_TOL_GRADIENT     5
GEOM_OPT_TOL_DISPLACEMENT 5
GEOM_OPT_TOL_ENERGY       5
SYMMETRY                  False
THRESH                    12
SCF_CONVERGENCE           8
MAX_SUB_FILE_NUM          128
MEM_STATIC                400
MEM_TOTAL                 4000
$end
--------------------------------------------------------------

   10    -688.0162332616      7.90E-09 Convergence criterion met
 Total energy in the final basis set = -688.0162332616
    8    -688.0162338251      9.95E-09 Convergence criterion met
 Total energy in the final basis set = -688.0162338251
   10    -688.0162340369      2.76E-09 Convergence criterion met
 Total energy in the final basis set = -688.0162340369
    7    -688.0162341082      8.78E-09 Convergence criterion met
 Total energy in the final basis set = -688.0162341082
    8    -688.0162342049      4.78E-09 Convergence criterion met
 Total energy in the final basis set = -688.0162342049
    7    -688.0162342573      6.30E-09 Convergence criterion met
 Total energy in the final basis set = -688.0162342573

             Standard Nuclear Orientation (Angstroms)
    I     Atom           X                Y                Z
 ----------------------------------------------------------------
    1      C      -0.1961580274    -0.8683066062    -0.0264464375
    2      C      -1.0920752397     0.2175045249    -0.0707624524
    3      C       1.2630647349    -0.6617761854    -0.2756475328
    4      C      -0.6558684887     1.6487222773    -0.1527875738
    5      O       2.0126377098    -1.6272764127     0.3029277830
    6      O       1.7320199945     0.2315836501    -0.9503715158
    7      O       0.2940927034     1.9299626142     0.7594722834
    8      O      -1.1578683895     2.4679988419    -0.8923454142
    9      C       0.8529407917     3.2500929932     0.6675865617
   10      C       3.4227085625    -1.5388266009     0.0401667377
   11      C      -0.7000886686    -2.1664161170     0.1233444890
   12      C      -2.0736734766    -2.3902750315     0.2092127645
   13      C      -2.9601024087    -1.3155203690     0.1336855598
   14      C      -2.4676156044    -0.0187462292    -0.0101072856
   15      H       1.3555378874     3.3737976126    -0.2957759557
   16      H       3.6197503237    -1.6214313947    -1.0326974141
   17      H      -4.0319468009    -1.4847358832     0.1873251665
   18      H       0.0717062754     4.0083381389     0.7685165696
   19      H       1.5698815667     3.3215901505     1.4861300531
   20      H       3.8733458568    -2.3718940495     0.5805566355
   21      H       3.8184698761    -0.5848239697     0.3990966111
   22      H      -2.4497062124    -3.4034550891     0.3203791643
   23      H      -3.1430276241     0.8288416020    -0.0690255908
   24      H      -0.0069639115    -2.9996812959     0.1513922659
 ----------------------------------------------------------------

    7    -688.0162342517      1.68E-09 Convergence criterion met
 Total energy in the final basis set = -688.0162342517
 Final energy is   -688.016234251687
 **  OPTIMIZATION CONVERGED  **

                    Orbital Energies (a.u.)
 --------------------------------------------------------------

 Alpha MOs
 -- Occupied --
-19.197 -19.187 -19.138 -19.131 -10.320 -10.313 -10.244 -10.234
-10.219 -10.217 -10.208 -10.208 -10.207 -10.206  -1.106  -1.097
 -1.017  -1.009  -0.874  -0.784  -0.776  -0.730  -0.718  -0.644
 -0.628  -0.582  -0.562  -0.540  -0.511  -0.490  -0.480  -0.477
 -0.474  -0.465  -0.452  -0.444  -0.424  -0.419  -0.405  -0.389
 -0.379  -0.369  -0.364  -0.360  -0.349  -0.308  -0.293  -0.281
 -0.277  -0.264  -0.257

          Ground-State Mulliken Net Atomic Charges

     Atom                 Charge (a.u.)
  ----------------------------------------
      1 C                     0.058915
      2 C                     0.070127
      3 C                     0.574693
      4 C                     0.550405
      5 O                    -0.456838
      6 O                    -0.487385
      7 O                    -0.442718
      8 O                    -0.478549
      9 C                    -0.218484
     10 C                    -0.217531
     11 C                    -0.170085
     12 C                    -0.124153
     13 C                    -0.123646
     14 C                    -0.163795
     15 H                     0.179530
     16 H                     0.172063
     17 H                     0.143997
     18 H                     0.170090
     19 H                     0.161307
     20 H                     0.165874
     21 H                     0.173412
     22 H                     0.142004
     23 H                     0.161563
     24 H                     0.159204
  ----------------------------------------
  Sum of atomic charges =    -0.000000

                    Cartesian Multipole Moments
 -----------------------------------------------------------------
    Charge (ESU x 10^10)
                -0.0000
    Dipole Moment (Debye)
         X       0.7892      Y      -2.3893      Z       2.0213
       Tot       3.2276
    Quadrupole Moments (Debye-Ang)
        XX     -66.0096     XY       3.3057     YY     -71.9951
        XZ      -0.3121     YZ       5.8172     ZZ     -84.3062

 Total job time:  128.83s(wall), 2844.36s(cpu)
        *  Thank you very much for using Q-Chem.  Have a nice day.  *
