 Q-Chem 5.0, Q-Chem, Inc., Pleasanton, CA (2017)
 Q-Chem 5.0.0 for Intel X86 EM64T Linux

User input:
--------------------------------------------------------------
$molecule
0  1
C    0.711  -1.958   0.589
C   -0.299  -1.995   1.756
C    1.089  -0.603   0.022
C   -0.528  -0.668   2.454
O    2.255  -0.726  -0.682
O    0.458   0.435   0.138
O    0.672  -0.221   2.944
O   -1.603  -0.140   2.687
C    0.580   1.027   3.634
C    2.698   0.490  -1.286
C   -0.031  -2.720  -0.508
C   -0.144  -4.202  -0.153
C   -1.210  -4.188   0.944
C   -1.515  -2.680   1.086
O   -1.391  -2.278  -0.299
H    1.639  -2.461   0.888
H    0.068  -2.659   2.552
H   -0.050   0.928   4.523
H    1.951   0.864  -1.993
H   -0.511  -4.776  -1.011
H    0.804  -4.638   0.173
H   -2.087  -4.746   0.595
H   -0.869  -4.649   1.876
H    1.587   1.311   3.953
H    0.196   1.807   2.969
H    3.619   0.278  -1.837
H    2.918   1.240  -0.519
H    0.300  -2.531  -1.532
C   -2.908  -2.427   1.624
H   -3.642  -3.061   1.114
H   -2.968  -2.632   2.696
H   -3.235  -1.402   1.426
$end

$opt
CONSTRAINT
tors    2    1    3    5    162.3
tors    1    2    4    7    -55.0
ENDCONSTRAINT
$end

$rem
JOBTYPE                   OPT
METHOD                    B3LYP
DFT_D                     D3_OP
BASIS                     STO-3G
GEOM_OPT_MAX_CYCLES       500
SYMMETRY                  False
THRESH                    12
SCF_CONVERGENCE           8
MAX_SUB_FILE_NUM          128
MEM_STATIC                400
MEM_TOTAL                 4000
$end

--------------------------------------------------------------

   14    -794.5514909720      6.56E-09 Convergence criterion met
 Total energy in the final basis set = -794.5514909720
   13    -794.5823824045      4.09E-09 Convergence criterion met
 Total energy in the final basis set = -794.5823824045
   13    -794.5881975294      3.51E-09 Convergence criterion met
 Total energy in the final basis set = -794.5881975294
   12    -794.5887504532      5.35E-09 Convergence criterion met
 Total energy in the final basis set = -794.5887504532
   11    -794.5889259958      6.24E-09 Convergence criterion met
 Total energy in the final basis set = -794.5889259958
   11    -794.5890491320      4.10E-09 Convergence criterion met
 Total energy in the final basis set = -794.5890491320
   11    -794.5891507372      5.09E-09 Convergence criterion met
 Total energy in the final basis set = -794.5891507372
   11    -794.5892899862      4.49E-09 Convergence criterion met
 **  OPTIMIZATION CONVERGED  **
 Total job time:  60.31s(wall), 1423.22s(cpu)
        *  Thank you very much for using Q-Chem.  Have a nice day.  *

User input: 2 of 3

nid05748 10.128.22
Q-Chem Developer Version! Running on 10.128.22.*
                  Welcome to Q-Chem
     A Quantum Leap Into The Future Of Chemistry

 Q-Chem 5.0, Q-Chem, Inc., Pleasanton, CA (2017)

 Yihan Shao,  Zhengting Gan,  E. Epifanovsky,  A. T. B. Gilbert,  M. Wormit,
 J. Kussmann,  A. W. Lange,  A. Behn,  Jia Deng,  Xintian Feng,  D. Ghosh,
 M. Goldey,  P. R. Horn,  L. D. Jacobson,  I. Kaliman,  T. Kus,  A. Landau,
 Jie Liu,  E. I. Proynov,  R. M. Richard,  R. P. Steele,  E. J. Sundstrom,
 H. L. Woodcock III,  P. M. Zimmerman,  D. Zuev,  B. Albrecht,  E. Alguire,
 S. A. Baeppler,  Z. Benda,  Y. A. Bernard,  E. J. Berquist,  K. B. Bravaya,
 D. Casanova,  Chun-Min Chang,  Yunqing Chen,  A. Chien,  K. D. Closser,
 M. P. Coons,  S. Dasgupta,  M. Diedenhofen,  Hainam Do,  R. G. Edgar,
 Po-Tung Fang,  S. Fatehi,  Qingguo Feng,  Qinghui Ge,  A. Ghysels,
 J. Gomes,  J. Gonthier,  A. Gunina,  M. W. D. Hanson-Heine,
 P. H. P. Harbach,  A. W. Hauser,  J. E. Herr,  E. G. Hohenstein,
 Z. C. Holden,  Kerwin Hui,  T.-C. Jagau,  Hyunjun Ji,  B. Kaduk,
 K. Khistyaev,  Jaehoon Kim,  P. Klunzinger,  K. Koh,  D. Kosenkov,
 T. Kowalczyk,  C. M. Krauter,  A. Kunitsa,  Ka Un Lao,  A. Laurent,
 K. V. Lawler,  Joonho Lee,  D. Lefrancois,  S. Lehtola,  D. S. Levine,
 Yi-Pei Li,  You-Sheng Lin,  Fenglai Liu,  E. Livshits,  A. Luenser,
 P. Manohar,  E. Mansoor,  S. F. Manzer,  Shan-Ping Mao,  Yuezhi Mao,
 N. Mardirossian,  A. V. Marenich,  L. A. Martinez-Martinez,  S. A. Maurer,
 N. J. Mayhall,  S. C. McKenzie,  J.-M. Mewes,  A. F. Morrison,  K. Nanda,
 T. S. Nguyen-Beck,  R. Olivares-Amaya,  J. A. Parkhill,  T. M. Perrine,
 F. Plasser,  S. Prager,  A. Prociuk,  D. R. Rehn,  F. Rob,  M. Schneider,
 N. Sergueev,  S. M. Sharada,  S. Sharma,  D. W. Small,  T. Stauch,
 T. Stein,  Yu-Chuan Su,  A. J. W. Thom,  T. Tsuchimochi,  L. Vogt,
 O. Vydrov,  M. A. Watson,  J. Wenzel,  M. de Wergifosse,  T. A. Wesolowski,
 A. White,  J. Witte,  A. Yamada,  Jun Yang,  K. Yao,  S. Yeganeh,
 S. R. Yost,  Zhi-Qiang You,  A. Zech,  Igor Ying Zhang,  Xing Zhang,
 Yan Zhao,  Ying Zhu,  B. R. Brooks,  G. K. L. Chan,  C. J. Cramer,
 M. S. Gordon,  W. J. Hehre,  A. Klamt,  M. W. Schmidt,  C. D. Sherrill,
 D. G. Truhlar,  A. Aspuru-Guzik,  R. Baer,  A. T. Bell,  N. A. Besley,
 Jeng-Da Chai,  A. Dreuw,  B. D. Dunietz,  T. R. Furlani,  Chao-Ping Hsu,
 Yousung Jung,  Jing Kong,  D. S. Lambrecht,  WanZhen Liang,  C. Ochsenfeld,
 V. A. Rassolov,  L. V. Slipchenko,  J. E. Subotnik,  T. Van Voorhis,
 J. M. Herbert,  A. I. Krylov,  P. M. W. Gill,  M. Head-Gordon

 Contributors to earlier versions of Q-Chem not listed above:
 R. D. Adamson,  B. Austin,  J. Baker,  G. J. O. Beran,  K. Brandhorst,
 S. T. Brown,  E. F. C. Byrd,  A. K. Chakraborty,  C.-L. Cheng,
 Siu Hung Chien,  D. M. Chipman,  D. L. Crittenden,  H. Dachsel,
 R. A. DiStasio Jr.,  R. J. Doerksen,  A. D. Dutoi,  L. Fusti-Molnar,
 W. A. Goddard III,  A. Golubeva-Zadorozhnaya,  S. R. Gwaltney,  G. Hawkins,
 A. Heyden,  S. Hirata,  G. Kedziora,  F. J. Keil,  C. Kelley,  Jihan Kim,
 R. A. King,  R. Z. Khaliullin,  P. P. Korambath,  W. Kurlancheek,
 A. M. Lee,  M. S. Lee,  S. V. Levchenko,  Ching Yeh Lin,  D. Liotard,
 R. C. Lochan,  I. Lotan,  P. E. Maslen,  N. Nair,  D. P. O'Neill,
 D. Neuhauser,  E. Neuscamman,  C. M. Oana,  R. Olson,  B. Peters,
 R. Peverati,  P. A. Pieniazek,  Y. M. Rhee,  J. Ritchie,  M. A. Rohrdanz,
 E. Rosta,  N. J. Russ,  H. F. Schaefer III,  N. E. Schultz,  N. Shenvi,
 A. C. Simmonett,  A. Sodt,  D. Stuck,  K. S. Thanthiriwatte,  V. Vanovschi,
 Tao Wang,  A. Warshel,  C. F. Williams,  Q. Wu,  X. Xu,  W. Zhang

 Please cite Q-Chem as follows:
 Y. Shao et al., Mol. Phys. 113, 184-215 (2015)
 DOI: 10.1080/00268976.2014.952696

 Q-Chem 5.0.0 for Intel X86 EM64T Linux

 Parts of Q-Chem use Armadillo 5.200.1 (Boston Tea Smuggler).
 http://arma.sourceforge.net/

 Q-Chem begins on Wed Oct  4 17:38:16 2017

Host: nid05748
0

     Scratch files written to /global/cscratch1/sd/junteng/scratch/14/opt_1101o+.save//
The previous job contains 0 fragments, simply inherited here

Checking the input file for inconsistencies... 	...done.

--------------------------------------------------------------
User input:
--------------------------------------------------------------

$molecule
   read
$end

$rem
JOBTYPE                   OPT
METHOD                    B3LYP
DFT_D                     D3_OP
BASIS                     6-311++G(d,p)
GEOM_OPT_MAX_CYCLES       500
GEOM_OPT_TOL_GRADIENT     1
GEOM_OPT_TOL_DISPLACEMENT 1
GEOM_OPT_TOL_ENERGY       1
SYMMETRY                  False
THRESH                    12
SCF_CONVERGENCE           8
MAX_SUB_FILE_NUM          128
MEM_STATIC                400
MEM_TOTAL                 4000
$end

--------------------------------------------------------------

    9    -805.1940489667      3.13E-09 Convergence criterion met
 Total energy in the final basis set = -805.1940489667
    9    -805.1940495085      5.23E-09 Convergence criterion met
 Total energy in the final basis set = -805.1940495085
    9    -805.1940497280      3.45E-09 Convergence criterion met
 Total energy in the final basis set = -805.1940497280
    8    -805.1940499121      3.87E-09 Convergence criterion met
 Total energy in the final basis set = -805.1940499121
    6    -805.1940498941      6.13E-09 Convergence criterion met
 Total energy in the final basis set = -805.1940498941
    5    -805.1940498910      7.48E-09 Convergence criterion met
 Total energy in the final basis set = -805.1940498910
 Final energy is   -805.194049891044
        *  Thank you very much for using Q-Chem.  Have a nice day.  *
 Q-Chem 5.0, Q-Chem, Inc., Pleasanton, CA (2017)
 Q-Chem 5.0.0 for Intel X86 EM64T Linux

             Standard Nuclear Orientation (Angstroms)
    I     Atom           X                Y                Z
 ----------------------------------------------------------------
    1      C      -0.0493306672     0.8276027627     0.6256919496
    2      C       0.6591756823    -0.5670899486     0.5973734082
    3      C      -1.3339886736     0.9254088206    -0.1681156287
    4      C      -0.2308340551    -1.7150359760     0.1442693685
    5      O      -2.0742555014     1.9665493718     0.2783791262
    6      O      -1.6583533187     0.2350638386    -1.1008752661
    7      O      -1.3042715417    -1.7806952077     0.9707823753
    8      O      -0.0280542192    -2.5072904387    -0.7365883704
    9      C      -2.3079114614    -2.7484829839     0.6147214319
   10      C      -3.2943839142     2.2231631819    -0.4425453245
   11      C       1.0358277008     1.7065589779    -0.0700868693
   12      C       2.2376720467     1.8839094382     0.8826840720
   13      C       2.9182630524     0.4926715330     0.7536795011
   14      C       1.9613708002    -0.2511029658    -0.2210754076
   15      O       1.5325309443     0.8322873762    -1.0787939733
   16      H      -0.2505744160     1.1721418043     1.6389215654
   17      H       0.9298253164    -0.8295181300     1.6239351782
   18      H      -1.8929495693    -3.7574137325     0.6288804980
   19      H      -3.0798789602     2.4513243818    -1.4876712881
   20      H       2.8892616912     2.6820836428     0.5240514166
   21      H       1.9303922788     2.1294809569     1.9011871345
   22      H       3.9049873780     0.5769241434     0.2958114880
   23      H       3.0316562272    -0.0271770486     1.7070495216
   24      H      -3.0893997502    -2.6457228287     1.3647771081
   25      H      -2.6965596062    -2.5281682704    -0.3806338279
   26      H      -3.7492545869     3.0784931056     0.0521760058
   27      H      -3.9541565530     1.3555726626    -0.3936507677
   28      H       0.6524519974     2.6196871388    -0.5211475892
   29      C       2.6159543747    -1.3438760909    -1.0362103020
   30      H       3.5153027787    -0.9436261686    -1.5104245734
   31      H       2.9060636608    -2.1774342855    -0.3914670795
   32      H       1.9411718930    -1.7263273880    -1.7973431174
 ----------------------------------------------------------------

   15    -805.1940741186      3.66E-09 Convergence criterion met
 Total energy in the final basis set = -805.1940741186

                    Orbital Energies (a.u.)
 --------------------------------------------------------------

 Alpha MOs
 -- Occupied --
-19.177 -19.166 -19.128 -19.119 -19.111 -10.308 -10.303 -10.238
-10.238 -10.232 -10.222 -10.205 -10.203 -10.181 -10.177 -10.154
 -1.118  -1.107  -1.062  -1.030  -1.022  -0.831  -0.793  -0.780
 -0.748  -0.723  -0.686  -0.650  -0.603  -0.594  -0.569  -0.553
 -0.532  -0.510  -0.504  -0.491  -0.489  -0.482  -0.477  -0.471
 -0.458  -0.436  -0.425  -0.420  -0.417  -0.407  -0.394  -0.377
 -0.373  -0.369  -0.365  -0.359  -0.359  -0.349  -0.335  -0.328
 -0.319  -0.307  -0.290  -0.275  -0.271

          Ground-State Mulliken Net Atomic Charges

     Atom                 Charge (a.u.)
  ----------------------------------------
      1 C                     0.039219
      2 C                     0.299993
      3 C                    -0.920508
      4 C                    -0.432045
      5 O                    -0.011204
      6 O                    -0.187887
      7 O                    -0.018869
      8 O                    -0.188709
      9 C                    -0.180595
     10 C                    -0.230665
     11 C                     0.467761
     12 C                    -0.454708
     13 C                    -0.460694
     14 C                    -0.289658
     15 O                    -0.052017
     16 H                     0.289600
     17 H                     0.249793
     18 H                     0.165886
     19 H                     0.184042
     20 H                     0.183991
     21 H                     0.121363
     22 H                     0.173757
     23 H                     0.142907
     24 H                     0.148958
     25 H                     0.189772
     26 H                     0.150979
     27 H                     0.170152
     28 H                     0.277622
     29 C                    -0.338067
     30 H                     0.143224
     31 H                     0.157889
     32 H                     0.208718
  ----------------------------------------
  Sum of atomic charges =     0.000000

                    Cartesian Multipole Moments
 -----------------------------------------------------------------
    Charge (ESU x 10^10)
                 0.0000
    Dipole Moment (Debye)
         X      -0.8230      Y       1.9629      Z       3.4264
       Tot       4.0337
    Quadrupole Moments (Debye-Ang)
        XX     -82.7454     XY      -0.7673     YY     -91.7390
        XZ       2.3272     YZ      -4.4239     ZZ    -100.3352

 Frequency:        25.00                  34.11                  78.64
 Force Cnst:      0.0013                 0.0031                 0.0071
 Red. Mass:       3.6479                 4.5520                 1.9513
 IR Intens:        0.129                  0.576                  0.199
 Frequency:        84.18                 111.20                 124.35
 Force Cnst:      0.0144                 0.0130                 0.0214
 Red. Mass:       3.4410                 1.7874                 2.3500
 IR Intens:        4.886                  0.037                  1.062
 Frequency:       144.45                 153.66                 189.04
 Force Cnst:      0.0470                 0.0188                 0.0734
 Red. Mass:       3.8206                 1.3480                 3.4835
 IR Intens:        1.957                  0.320                  0.437
 Frequency:       213.98                 232.28                 247.21
 Force Cnst:      0.1161                 0.0802                 0.0490
 Red. Mass:       4.3037                 2.5219                 1.3605
 IR Intens:        1.490                  4.195                  1.674
 Frequency:       267.93                 294.41                 317.45
 Force Cnst:      0.1726                 0.2542                 0.1692
 Red. Mass:       4.0805                 4.9767                 2.8489
 IR Intens:        3.659                  3.970                  8.742
 Frequency:       328.95                 343.90                 359.37
 Force Cnst:      0.1869                 0.3068                 0.2061
 Red. Mass:       2.9313                 4.4023                 2.7087
 IR Intens:        0.035                 13.099                  2.916
 Frequency:       378.61                 476.72                 574.26
 Force Cnst:      0.4108                 0.5340                 0.7240
 Red. Mass:       4.8638                 3.9881                 3.7263
 IR Intens:        8.424                 13.593                 17.226
 Frequency:       606.54                 644.65                 663.86
 Force Cnst:      1.1212                 1.1714                 1.1150
 Red. Mass:       5.1726                 4.7840                 4.2941
 IR Intens:       11.269                  4.311                  0.207
 Frequency:       699.96                 750.40                 802.19
 Force Cnst:      1.7664                 1.7305                 1.3489
 Red. Mass:       6.1193                 5.2159                 3.5578
 IR Intens:        4.289                  4.611                  5.190
 Frequency:       813.91                 831.35                 841.61
 Force Cnst:      0.9690                 1.7219                 1.6554
 Red. Mass:       2.4827                 4.2285                 3.9667
 IR Intens:       10.715                 12.669                 11.100
 Frequency:       858.54                 898.57                 904.53
 Force Cnst:      1.2455                 1.2091                 1.3126
 Red. Mass:       2.8680                 2.5415                 2.7229
 IR Intens:       10.261                  6.962                  3.505
 Frequency:       915.38                 933.93                 967.36
 Force Cnst:      1.2156                 1.5848                 2.3641
 Red. Mass:       2.4622                 3.0838                 4.2879
 IR Intens:       12.488                  5.875                  3.099
 Frequency:       973.96                 993.88                1011.46
 Force Cnst:      2.0034                 1.7415                 2.4592
 Red. Mass:       3.5845                 2.9922                 4.0799
 IR Intens:       14.707                 14.073                 41.947
 Frequency:      1036.15                1061.74                1073.99
 Force Cnst:      1.1851                 2.5300                 1.7212
 Red. Mass:       1.8735                 3.8091                 2.5327
 IR Intens:       25.696                 59.243                 22.114
 Frequency:      1123.79                1137.61                1171.05
 Force Cnst:      1.3727                 1.2771                 1.1018
 Red. Mass:       1.8449                 1.6749                 1.3636
 IR Intens:       30.958                 14.071                 25.740
 Frequency:      1171.34                1178.86                1189.09
 Force Cnst:      1.0408                 1.9248                 1.6895
 Red. Mass:       1.2875                 2.3507                 2.0280
 IR Intens:        3.710                182.532                298.949
 Frequency:      1201.93                1204.74                1211.24
 Force Cnst:      1.3578                 1.3871                 1.3402
 Red. Mass:       1.5953                 1.6221                 1.5504
 IR Intens:       12.758                 41.598                 19.533
 Frequency:      1212.87                1216.87                1249.78
 Force Cnst:      1.5284                 1.5375                 1.4008
 Red. Mass:       1.7634                 1.7622                 1.5221
 IR Intens:      142.701                 79.611                 14.334
 Frequency:      1255.11                1290.59                1317.33
 Force Cnst:      1.1752                 1.8488                 1.4608
 Red. Mass:       1.2662                 1.8839                 1.4287
 IR Intens:        3.927                  8.491                 17.010
 Frequency:      1325.20                1336.45                1362.46
 Force Cnst:      1.6316                 2.0355                 1.7466
 Red. Mass:       1.5769                 1.9343                 1.5970
 IR Intens:       20.067                 10.156                 84.713
 Frequency:      1388.91                1430.97                1466.17
 Force Cnst:      1.9213                 1.5970                 1.5002
 Red. Mass:       1.6905                 1.3237                 1.1845
 IR Intens:       49.390                 14.963                 12.549
 Frequency:      1469.02                1481.87                1483.09
 Force Cnst:      1.5286                 1.3535                 1.3903
 Red. Mass:       1.2022                 1.0462                 1.0728
 IR Intens:       15.976                  8.095                  1.854
 Frequency:      1484.11                1490.91                1497.17
 Force Cnst:      1.3556                 1.3853                 1.3807
 Red. Mass:       1.0446                 1.0578                 1.0455
 IR Intens:       11.215                  2.248                 11.711
 Frequency:      1498.98                1500.18                1508.74
 Force Cnst:      1.3873                 1.3960                 1.4732
 Red. Mass:       1.0479                 1.0528                 1.0985
 IR Intens:       10.845                  9.229                  6.262
 Frequency:      1795.32                1811.38                3044.52
 Force Cnst:     21.6580                22.1892                 5.6831
 Red. Mass:      11.4046                11.4782                 1.0406
 IR Intens:       89.063                349.855                 19.045
 Frequency:      3048.69                3049.68                3055.16
 Force Cnst:      5.6372                 5.6421                 5.8702
 Red. Mass:       1.0294                 1.0296                 1.0674
 IR Intens:       33.638                 37.421                 13.892
 Frequency:      3059.99                3067.31                3093.74
 Force Cnst:      5.9133                 5.8884                 6.2447
 Red. Mass:       1.0719                 1.0623                 1.1074
 IR Intens:       21.593                 37.877                  0.581
 Frequency:      3102.50                3110.16                3116.44
 Force Cnst:      6.2495                 6.2484                 6.2711
 Red. Mass:       1.1020                 1.0964                 1.0959
 IR Intens:       12.518                 17.880                 37.344
 Frequency:      3122.33                3123.64                3128.39
 Force Cnst:      6.3587                 6.3655                 6.2857
 Red. Mass:       1.1070                 1.1073                 1.0901
 IR Intens:       19.094                 15.355                 23.618
 Frequency:      3152.62                3157.06                3164.35
 Force Cnst:      6.4789                 6.4968                 6.4729
 Red. Mass:       1.1064                 1.1063                 1.0972
 IR Intens:       14.468                 14.498                  2.809

 STANDARD THERMODYNAMIC QUANTITIES AT   298.15 K  AND     1.00 ATM

   This Molecule has  0 Imaginary Frequencies
   Zero point vibrational energy:      166.293 kcal/mol

   Atom    1 Element C  Has Mass   12.00000
   Atom    2 Element C  Has Mass   12.00000
   Atom    3 Element C  Has Mass   12.00000
   Atom    4 Element C  Has Mass   12.00000
   Atom    5 Element O  Has Mass   15.99491
   Atom    6 Element O  Has Mass   15.99491
   Atom    7 Element O  Has Mass   15.99491
   Atom    8 Element O  Has Mass   15.99491
   Atom    9 Element C  Has Mass   12.00000
   Atom   10 Element C  Has Mass   12.00000
   Atom   11 Element C  Has Mass   12.00000
   Atom   12 Element C  Has Mass   12.00000
   Atom   13 Element C  Has Mass   12.00000
   Atom   14 Element C  Has Mass   12.00000
   Atom   15 Element O  Has Mass   15.99491
   Atom   16 Element H  Has Mass    1.00783
   Atom   17 Element H  Has Mass    1.00783
   Atom   18 Element H  Has Mass    1.00783
   Atom   19 Element H  Has Mass    1.00783
   Atom   20 Element H  Has Mass    1.00783
   Atom   21 Element H  Has Mass    1.00783
   Atom   22 Element H  Has Mass    1.00783
   Atom   23 Element H  Has Mass    1.00783
   Atom   24 Element H  Has Mass    1.00783
   Atom   25 Element H  Has Mass    1.00783
   Atom   26 Element H  Has Mass    1.00783
   Atom   27 Element H  Has Mass    1.00783
   Atom   28 Element H  Has Mass    1.00783
   Atom   29 Element C  Has Mass   12.00000
   Atom   30 Element H  Has Mass    1.00783
   Atom   31 Element H  Has Mass    1.00783
   Atom   32 Element H  Has Mass    1.00783
   Molecular Mass:   228.099830 amu
   Principal axes and moments of inertia in amu*Bohr^2:
                             1           2           3
    Eigenvalues --     2652.44936  3419.49162  5127.93099
          X               0.99998    -0.00307     0.00563
          Y               0.00306     0.99999     0.00239
          Z              -0.00564    -0.00237     0.99998
   Rotational Symmetry Number is   1
   The Molecule is an Asymmetric Top
   Translational Enthalpy:        0.889 kcal/mol
   Rotational Enthalpy:           0.889 kcal/mol
   Vibrational Enthalpy:        174.466 kcal/mol
   gas constant (RT):             0.592 kcal/mol
   Translational Entropy:        42.176  cal/mol.K
   Rotational Entropy:           32.208  cal/mol.K
   Vibrational Entropy:          53.862  cal/mol.K

   Total Enthalpy:              176.836 kcal/mol
   Total Entropy:               128.246  cal/mol.K

 Total job time:  10423.51s(wall), 59353.11s(cpu)
        *  Thank you very much for using Q-Chem.  Have a nice day.  *
