 Q-Chem 5.0, Q-Chem, Inc., Pleasanton, CA (2017)
 Q-Chem 5.0.0 for Intel X86 EM64T Linux

User input:
--------------------------------------------------------------
$molecule
0  1
C    0.355  -2.424   0.293
C   -0.264  -2.685   1.524
C    0.749  -1.045  -0.086
C   -0.385  -1.681   2.598
O    1.805  -1.090  -0.938
O    0.175  -0.038   0.291
O    0.833  -1.128   2.820
O   -1.397  -1.517   3.259
C    0.836  -0.152   3.862
C    2.258   0.195  -1.365
C    0.489  -3.469  -0.639
C    0.011  -4.748  -0.345
C   -0.620  -4.996   0.872
C   -0.760  -3.969   1.804
H    0.142   0.662   3.629
H    1.480   0.699  -1.947
H   -1.003  -5.990   1.096
H    0.581  -0.616   4.820
H    1.845   0.263   3.935
H    3.132   0.050  -2.006
H    2.557   0.804  -0.506
H    0.116  -5.548  -1.075
H   -1.248  -4.169   2.757
H    0.945  -3.290  -1.611
$end

$opt
CONSTRAINT
tors    2    1    3    5    160.0
tors    1    2    4    7    -45.0
ENDCONSTRAINT
$end

$rem
JOBTYPE                   OPT
METHOD                    B3LYP
DFT_D                     D3_OP
BASIS                     STO-3G
GEOM_OPT_MAX_CYCLES       500
SYMMETRY                  False
THRESH                    12
SCF_CONVERGENCE           8
MAX_SUB_FILE_NUM          128
MEM_STATIC                400
MEM_TOTAL                 4000
$end

--------------------------------------------------------------

   15    -679.0688361291      6.94E-09 Convergence criterion met
 Total energy in the final basis set = -679.0688361291
   14    -679.0941686031      5.78E-09 Convergence criterion met
 Total energy in the final basis set = -679.0941686031
   13    -679.0964563459      9.57E-09 Convergence criterion met
 Total energy in the final basis set = -679.0964563459
   12    -679.0967087472      8.55E-09 Convergence criterion met
 Total energy in the final basis set = -679.0967087472
   12    -679.0967516442      4.86E-09 Convergence criterion met
 Total energy in the final basis set = -679.0967516442
   11    -679.0967560504      3.88E-09 Convergence criterion met
 Total energy in the final basis set = -679.0967560504
   11    -679.0967617459      1.98E-09 Convergence criterion met
 Total energy in the final basis set = -679.0967617459
   11    -679.0967657287      1.84E-09 Convergence criterion met
 **  OPTIMIZATION CONVERGED  **
 Total job time:  30.00s(wall), 700.03s(cpu)
        *  Thank you very much for using Q-Chem.  Have a nice day.  *

User input: 2 of 3

nid04376 10.128.17
Q-Chem Developer Version! Running on 10.128.17.*
                  Welcome to Q-Chem
     A Quantum Leap Into The Future Of Chemistry

 Q-Chem 5.0, Q-Chem, Inc., Pleasanton, CA (2017)

 Yihan Shao,  Zhengting Gan,  E. Epifanovsky,  A. T. B. Gilbert,  M. Wormit,
 J. Kussmann,  A. W. Lange,  A. Behn,  Jia Deng,  Xintian Feng,  D. Ghosh,
 M. Goldey,  P. R. Horn,  L. D. Jacobson,  I. Kaliman,  T. Kus,  A. Landau,
 Jie Liu,  E. I. Proynov,  R. M. Richard,  R. P. Steele,  E. J. Sundstrom,
 H. L. Woodcock III,  P. M. Zimmerman,  D. Zuev,  B. Albrecht,  E. Alguire,
 S. A. Baeppler,  Z. Benda,  Y. A. Bernard,  E. J. Berquist,  K. B. Bravaya,
 D. Casanova,  Chun-Min Chang,  Yunqing Chen,  A. Chien,  K. D. Closser,
 M. P. Coons,  S. Dasgupta,  M. Diedenhofen,  Hainam Do,  R. G. Edgar,
 Po-Tung Fang,  S. Fatehi,  Qingguo Feng,  Qinghui Ge,  A. Ghysels,
 J. Gomes,  J. Gonthier,  A. Gunina,  M. W. D. Hanson-Heine,
 P. H. P. Harbach,  A. W. Hauser,  J. E. Herr,  E. G. Hohenstein,
 Z. C. Holden,  Kerwin Hui,  T.-C. Jagau,  Hyunjun Ji,  B. Kaduk,
 K. Khistyaev,  Jaehoon Kim,  P. Klunzinger,  K. Koh,  D. Kosenkov,
 T. Kowalczyk,  C. M. Krauter,  A. Kunitsa,  Ka Un Lao,  A. Laurent,
 K. V. Lawler,  Joonho Lee,  D. Lefrancois,  S. Lehtola,  D. S. Levine,
 Yi-Pei Li,  You-Sheng Lin,  Fenglai Liu,  E. Livshits,  A. Luenser,
 P. Manohar,  E. Mansoor,  S. F. Manzer,  Shan-Ping Mao,  Yuezhi Mao,
 N. Mardirossian,  A. V. Marenich,  L. A. Martinez-Martinez,  S. A. Maurer,
 N. J. Mayhall,  S. C. McKenzie,  J.-M. Mewes,  A. F. Morrison,  K. Nanda,
 T. S. Nguyen-Beck,  R. Olivares-Amaya,  J. A. Parkhill,  T. M. Perrine,
 F. Plasser,  S. Prager,  A. Prociuk,  D. R. Rehn,  F. Rob,  M. Schneider,
 N. Sergueev,  S. M. Sharada,  S. Sharma,  D. W. Small,  T. Stauch,
 T. Stein,  Yu-Chuan Su,  A. J. W. Thom,  T. Tsuchimochi,  L. Vogt,
 O. Vydrov,  M. A. Watson,  J. Wenzel,  M. de Wergifosse,  T. A. Wesolowski,
 A. White,  J. Witte,  A. Yamada,  Jun Yang,  K. Yao,  S. Yeganeh,
 S. R. Yost,  Zhi-Qiang You,  A. Zech,  Igor Ying Zhang,  Xing Zhang,
 Yan Zhao,  Ying Zhu,  B. R. Brooks,  G. K. L. Chan,  C. J. Cramer,
 M. S. Gordon,  W. J. Hehre,  A. Klamt,  M. W. Schmidt,  C. D. Sherrill,
 D. G. Truhlar,  A. Aspuru-Guzik,  R. Baer,  A. T. Bell,  N. A. Besley,
 Jeng-Da Chai,  A. Dreuw,  B. D. Dunietz,  T. R. Furlani,  Chao-Ping Hsu,
 Yousung Jung,  Jing Kong,  D. S. Lambrecht,  WanZhen Liang,  C. Ochsenfeld,
 V. A. Rassolov,  L. V. Slipchenko,  J. E. Subotnik,  T. Van Voorhis,
 J. M. Herbert,  A. I. Krylov,  P. M. W. Gill,  M. Head-Gordon

 Contributors to earlier versions of Q-Chem not listed above:
 R. D. Adamson,  B. Austin,  J. Baker,  G. J. O. Beran,  K. Brandhorst,
 S. T. Brown,  E. F. C. Byrd,  A. K. Chakraborty,  C.-L. Cheng,
 Siu Hung Chien,  D. M. Chipman,  D. L. Crittenden,  H. Dachsel,
 R. A. DiStasio Jr.,  R. J. Doerksen,  A. D. Dutoi,  L. Fusti-Molnar,
 W. A. Goddard III,  A. Golubeva-Zadorozhnaya,  S. R. Gwaltney,  G. Hawkins,
 A. Heyden,  S. Hirata,  G. Kedziora,  F. J. Keil,  C. Kelley,  Jihan Kim,
 R. A. King,  R. Z. Khaliullin,  P. P. Korambath,  W. Kurlancheek,
 A. M. Lee,  M. S. Lee,  S. V. Levchenko,  Ching Yeh Lin,  D. Liotard,
 R. C. Lochan,  I. Lotan,  P. E. Maslen,  N. Nair,  D. P. O'Neill,
 D. Neuhauser,  E. Neuscamman,  C. M. Oana,  R. Olson,  B. Peters,
 R. Peverati,  P. A. Pieniazek,  Y. M. Rhee,  J. Ritchie,  M. A. Rohrdanz,
 E. Rosta,  N. J. Russ,  H. F. Schaefer III,  N. E. Schultz,  N. Shenvi,
 A. C. Simmonett,  A. Sodt,  D. Stuck,  K. S. Thanthiriwatte,  V. Vanovschi,
 Tao Wang,  A. Warshel,  C. F. Williams,  Q. Wu,  X. Xu,  W. Zhang

 Please cite Q-Chem as follows:
 Y. Shao et al., Mol. Phys. 113, 184-215 (2015)
 DOI: 10.1080/00268976.2014.952696

 Q-Chem 5.0.0 for Intel X86 EM64T Linux

 Parts of Q-Chem use Armadillo 5.200.1 (Boston Tea Smuggler).
 http://arma.sourceforge.net/

 Q-Chem begins on Wed Oct  4 18:03:13 2017

Host: nid04376
0

     Scratch files written to /global/cscratch1/sd/junteng/scratch/16/opt_10n01++.save//
The previous job contains 0 fragments, simply inherited here

Checking the input file for inconsistencies... 	...done.

--------------------------------------------------------------
User input:
--------------------------------------------------------------

$molecule
   read
$end

$rem
JOBTYPE                   OPT
METHOD                    B3LYP
DFT_D                     D3_OP
BASIS                     6-311++G(d,p)
GEOM_OPT_MAX_CYCLES       500
GEOM_OPT_TOL_GRADIENT     1
GEOM_OPT_TOL_DISPLACEMENT 1
GEOM_OPT_TOL_ENERGY       1
SYMMETRY                  False
THRESH                    12
SCF_CONVERGENCE           8
MAX_SUB_FILE_NUM          128
MEM_STATIC                400
MEM_TOTAL                 4000
$end

--------------------------------------------------------------

   11    -688.2160076444      3.81E-09 Convergence criterion met
 Total energy in the final basis set = -688.2160076444
    9    -688.2160075433      8.95E-09 Convergence criterion met
 Total energy in the final basis set = -688.2160075433
    8    -688.2160073170      5.46E-09 Convergence criterion met
 Total energy in the final basis set = -688.2160073170
    7    -688.2160073466      3.94E-09 Convergence criterion met
 Total energy in the final basis set = -688.2160073466
    5    -688.2160073480      8.75E-09 Convergence criterion met
 Total energy in the final basis set = -688.2160073480
    4    -688.2160073552      7.24E-09 Convergence criterion met
 Total energy in the final basis set = -688.2160073552
 Final energy is   -688.216007355171
        *  Thank you very much for using Q-Chem.  Have a nice day.  *
 Q-Chem 5.0, Q-Chem, Inc., Pleasanton, CA (2017)
 Q-Chem 5.0.0 for Intel X86 EM64T Linux

             Standard Nuclear Orientation (Angstroms)
    I     Atom           X                Y                Z
 ----------------------------------------------------------------
    1      C      -0.0219249922    -0.8883888532    -0.0305202625
    2      C      -1.1118599000    -0.0012389348    -0.0768277034
    3      C       1.3677918384    -0.3977830477    -0.2731248904
    4      C      -0.9566332158     1.4861466113    -0.1826161071
    5      O       2.2904185405    -1.2105959651     0.2830564633
    6      O       1.6493137861     0.5825137317    -0.9210273480
    7      O      -0.1579826030     1.9652397793     0.7864340765
    8      O      -1.5360630599     2.1700717955    -0.9900942249
    9      C       0.1552025241     3.3674786536     0.7050221864
   10      C       3.6649419165    -0.8603068152     0.0401737505
   11      C      -0.2606986608    -2.2583645861     0.1249405505
   12      C      -1.5608000388    -2.7467592835     0.2182743940
   13      C      -2.6391037339    -1.8676389464     0.1493791462
   14      C      -2.4121517299    -0.5018013516    -0.0015583721
   15      H       0.6948713844     3.5703289912    -0.2212107519
   16      H       3.8759264935    -0.8633618778    -1.0303741131
   17      H      -3.6544400631    -2.2420913572     0.2126233520
   18      H      -0.7552237473     3.9673195918     0.7381718034
   19      H       0.7838486199     3.5735293681     1.5683348281
   20      H       4.2509123215    -1.6217019578     0.5500456165
   21      H       3.8827299395     0.1284611370     0.4462353618
   22      H      -1.7300935826    -3.8112885446     0.3324534903
   23      H      -3.2432829054     0.1908077459    -0.0555238511
   24      H       0.5806741839    -2.9378985061     0.1534363778
 ----------------------------------------------------------------

   15    -688.2161175633      7.18E-09 Convergence criterion met
 Total energy in the final basis set = -688.2161175633

                    Orbital Energies (a.u.)
 --------------------------------------------------------------

 Alpha MOs
 -- Occupied --
-19.180 -19.170 -19.121 -19.115 -10.314 -10.308 -10.234 -10.224
-10.212 -10.211 -10.199 -10.199 -10.197 -10.197  -1.121  -1.113
 -1.033  -1.026  -0.887  -0.796  -0.787  -0.740  -0.729  -0.655
 -0.639  -0.594  -0.573  -0.553  -0.523  -0.503  -0.493  -0.489
 -0.486  -0.480  -0.463  -0.457  -0.435  -0.431  -0.418  -0.401
 -0.390  -0.382  -0.375  -0.372  -0.361  -0.323  -0.309  -0.298
 -0.293  -0.277  -0.270

          Ground-State Mulliken Net Atomic Charges

     Atom                 Charge (a.u.)
  ----------------------------------------
      1 C                     0.725183
      2 C                     0.331358
      3 C                    -0.377522
      4 C                    -0.653524
      5 O                    -0.065701
      6 O                    -0.212131
      7 O                    -0.003605
      8 O                    -0.211677
      9 C                    -0.247024
     10 C                    -0.236992
     11 C                    -0.085548
     12 C                    -0.201888
     13 C                    -0.197504
     14 C                    -0.300376
     15 H                     0.188730
     16 H                     0.189186
     17 H                     0.172511
     18 H                     0.168848
     19 H                     0.153802
     20 H                     0.158624
     21 H                     0.173316
     22 H                     0.174155
     23 H                     0.174832
     24 H                     0.182949
  ----------------------------------------
  Sum of atomic charges =     0.000000

                    Cartesian Multipole Moments
 -----------------------------------------------------------------
    Charge (ESU x 10^10)
                 0.0000
    Dipole Moment (Debye)
         X       1.2610      Y      -2.2631      Z       2.2166
       Tot       3.4096
    Quadrupole Moments (Debye-Ang)
        XX     -68.6639     XY       3.8264     YY     -72.3068
        XZ      -1.6641     YZ       6.3699     ZZ     -87.5665

 Frequency:        29.92                  78.34                  82.58
 Force Cnst:      0.0034                 0.0163                 0.0145
 Red. Mass:       6.5154                 4.5089                 3.6092
 IR Intens:        0.569                  0.854                  3.825
 Frequency:        95.47                 123.65                 140.88
 Force Cnst:      0.0197                 0.0185                 0.0255
 Red. Mass:       3.6699                 2.0501                 2.1797
 IR Intens:        3.487                  1.140                  2.397
 Frequency:       150.89                 162.02                 214.50
 Force Cnst:      0.0151                 0.0336                 0.1381
 Red. Mass:       1.1279                 2.1727                 5.0957
 IR Intens:        0.111                  0.796                  1.055
 Frequency:       252.96                 285.16                 307.58
 Force Cnst:      0.2178                 0.2102                 0.2884
 Red. Mass:       5.7764                 4.3868                 5.1739
 IR Intens:        1.615                  8.707                  4.735
 Frequency:       334.26                 368.89                 396.41
 Force Cnst:      0.3491                 0.5258                 0.5114
 Red. Mass:       5.3025                 6.5586                 5.5236
 IR Intens:       14.242                 10.662                  1.255
 Frequency:       424.36                 535.18                 560.42
 Force Cnst:      0.4147                 0.8824                 0.8311
 Red. Mass:       3.9088                 5.2287                 4.4913
 IR Intens:        0.878                  2.425                  4.623
 Frequency:       664.56                 703.08                 716.10
 Force Cnst:      1.6370                 1.7716                 1.6351
 Red. Mass:       6.2911                 6.0829                 5.4117
 IR Intens:        4.546                  6.329                  7.674
 Frequency:       750.94                 799.18                 813.93
 Force Cnst:      0.6735                 1.0972                 1.4833
 Red. Mass:       2.0270                 2.9157                 3.8002
 IR Intens:       79.529                 18.894                  5.735
 Frequency:       828.89                 848.16                 904.30
 Force Cnst:      2.0349                 2.1585                 0.7138
 Red. Mass:       5.0268                 5.0925                 1.4815
 IR Intens:       11.112                  1.146                  0.682
 Frequency:       975.53                 984.74                 986.61
 Force Cnst:      1.3922                 3.6799                 1.3270
 Red. Mass:       2.4829                 6.4408                 2.3138
 IR Intens:       14.761                  1.774                  6.517
 Frequency:      1004.47                1062.83                1097.31
 Force Cnst:      0.7819                 1.6497                 3.4928
 Red. Mass:       1.3154                 2.4788                 4.9234
 IR Intens:        0.462                 16.693                 94.790
 Frequency:      1143.88                1156.48                1170.93
 Force Cnst:      2.2658                 1.4864                 1.0376
 Red. Mass:       2.9391                 1.8863                 1.2844
 IR Intens:      157.522                 54.219                  1.255
 Frequency:      1172.10                1189.69                1211.62
 Force Cnst:      1.0473                 0.9323                 1.3538
 Red. Mass:       1.2939                 1.1180                 1.5652
 IR Intens:        1.163                  2.125                 36.100
 Frequency:      1215.53                1275.70                1286.89
 Force Cnst:      1.3991                 3.0120                 3.0803
 Red. Mass:       1.6071                 3.1413                 3.1569
 IR Intens:       42.467                184.731                384.977
 Frequency:      1312.69                1334.15                1467.81
 Force Cnst:      2.2449                 7.6943                 1.6672
 Red. Mass:       2.2111                 7.3368                 1.3134
 IR Intens:      180.242                 23.958                 10.736
 Frequency:      1469.35                1476.18                1483.72
 Force Cnst:      1.5196                 2.4122                 1.3571
 Red. Mass:       1.1946                 1.8788                 1.0463
 IR Intens:       19.613                  9.288                  7.074
 Frequency:      1485.40                1495.42                1498.03
 Force Cnst:      1.3594                 1.3774                 1.3877
 Red. Mass:       1.0457                 1.0454                 1.0495
 IR Intens:       11.689                 11.147                  9.226
 Frequency:      1514.59                1612.05                1636.17
 Force Cnst:      3.5720                 9.6894                 9.0373
 Red. Mass:       2.6428                 6.3283                 5.7297
 IR Intens:       12.800                 12.285                  6.685
 Frequency:      1772.11                1782.53                3050.15
 Force Cnst:     21.8435                22.2487                 5.6438
 Red. Mass:      11.8057                11.8845                 1.0296
 IR Intens:      251.510                300.543                 32.819
 Frequency:      3051.05                3122.76                3127.35
 Force Cnst:      5.6456                 6.3605                 6.3808
 Red. Mass:       1.0293                 1.1070                 1.1073
 IR Intens:       36.946                 17.230                 14.567
 Frequency:      3157.55                3157.59                3172.95
 Force Cnst:      6.4983                 6.4988                 6.4466
 Red. Mass:       1.1062                 1.1063                 1.0868
 IR Intens:       14.043                 12.777                  1.660
 Frequency:      3186.88                3198.86                3212.02
 Force Cnst:      6.5315                 6.6016                 6.6463
 Red. Mass:       1.0915                 1.0950                 1.0934
 IR Intens:        8.940                  7.147                  3.454

 STANDARD THERMODYNAMIC QUANTITIES AT   298.15 K  AND     1.00 ATM

   This Molecule has  0 Imaginary Frequencies
   Zero point vibrational energy:      116.202 kcal/mol

   Atom    1 Element C  Has Mass   12.00000
   Atom    2 Element C  Has Mass   12.00000
   Atom    3 Element C  Has Mass   12.00000
   Atom    4 Element C  Has Mass   12.00000
   Atom    5 Element O  Has Mass   15.99491
   Atom    6 Element O  Has Mass   15.99491
   Atom    7 Element O  Has Mass   15.99491
   Atom    8 Element O  Has Mass   15.99491
   Atom    9 Element C  Has Mass   12.00000
   Atom   10 Element C  Has Mass   12.00000
   Atom   11 Element C  Has Mass   12.00000
   Atom   12 Element C  Has Mass   12.00000
   Atom   13 Element C  Has Mass   12.00000
   Atom   14 Element C  Has Mass   12.00000
   Atom   15 Element H  Has Mass    1.00783
   Atom   16 Element H  Has Mass    1.00783
   Atom   17 Element H  Has Mass    1.00783
   Atom   18 Element H  Has Mass    1.00783
   Atom   19 Element H  Has Mass    1.00783
   Atom   20 Element H  Has Mass    1.00783
   Atom   21 Element H  Has Mass    1.00783
   Atom   22 Element H  Has Mass    1.00783
   Atom   23 Element H  Has Mass    1.00783
   Atom   24 Element H  Has Mass    1.00783
   Molecular Mass:   194.057940 amu
   Principal axes and moments of inertia in amu*Bohr^2:
                             1           2           3
    Eigenvalues --     2396.75502  2468.12973  4482.38258
          X               0.96672     0.25585    -0.00063
          Y              -0.25583     0.96667     0.00980
          Z               0.00312    -0.00931     0.99995
   Rotational Symmetry Number is   1
   The Molecule is an Asymmetric Top
   Translational Enthalpy:        0.889 kcal/mol
   Rotational Enthalpy:           0.889 kcal/mol
   Vibrational Enthalpy:        122.832 kcal/mol
   gas constant (RT):             0.592 kcal/mol
   Translational Entropy:        41.694  cal/mol.K
   Rotational Entropy:           31.650  cal/mol.K
   Vibrational Entropy:          43.194  cal/mol.K

   Total Enthalpy:              125.202 kcal/mol
   Total Entropy:               116.538  cal/mol.K

 Total job time:  4076.84s(wall), 20231.26s(cpu)
        *  Thank you very much for using Q-Chem.  Have a nice day.  *
