 Q-Chem 5.0, Q-Chem, Inc., Pleasanton, CA (2017)
 Q-Chem 5.0.0 for Intel X86 EM64T Linux

User input:
--------------------------------------------------------------
$molecule
0  1
C    0.304  -2.425   0.241
C   -0.187  -2.670   1.539
C    0.664  -1.037  -0.131
C   -0.223  -1.586   2.547
O    1.892  -1.027  -0.706
O   -0.050  -0.071   0.073
O    1.036  -1.102   2.698
O   -1.208  -1.281   3.197
C    1.131  -0.051   3.659
C    2.346   0.277  -1.069
C    0.337  -3.468  -0.713
C   -0.078  -4.750  -0.324
C   -0.556  -4.992   0.965
C   -0.619  -3.961   1.912
H    0.496   0.792   3.371
H    1.683   0.717  -1.820
H   -0.885  -5.997   1.223
H    0.862  -0.417   4.655
H    2.169   0.291   3.685
H    3.345   0.180  -1.503
H    2.413   0.921  -0.186
H   -0.050  -5.576  -1.034
C   -1.153  -4.262   3.286
C    0.800  -3.263  -2.130
H    0.377  -2.346  -2.553
H    0.472  -4.085  -2.776
H    1.893  -3.221  -2.170
H   -2.134  -3.796   3.422
H   -0.464  -3.904   4.057
H   -1.273  -5.340   3.441
$end

$opt
CONSTRAINT
tors    2    1    3    5    140.2
tors    1    2    4    7    -52.3
ENDCONSTRAINT
$end

$rem
JOBTYPE                   OPT
METHOD                    B3LYP
DFT_D                     D3_OP
BASIS                     STO-3G
GEOM_OPT_MAX_CYCLES       500
SYMMETRY                  False
THRESH                    12
SCF_CONVERGENCE           8
MAX_SUB_FILE_NUM          128
MEM_STATIC                400
MEM_TOTAL                 4000
$end

--------------------------------------------------------------

   15    -756.7774928998      6.43E-09 Convergence criterion met
 Total energy in the final basis set = -756.7774928998
   14    -756.8042979312      5.83E-09 Convergence criterion met
 Total energy in the final basis set = -756.8042979312
   14    -756.8077332054      3.72E-09 Convergence criterion met
 Total energy in the final basis set = -756.8077332054
   12    -756.8080704730      8.19E-09 Convergence criterion met
 Total energy in the final basis set = -756.8080704730
   11    -756.8081250493      6.05E-09 Convergence criterion met
 Total energy in the final basis set = -756.8081250493
   11    -756.8081434836      5.18E-09 Convergence criterion met
 Total energy in the final basis set = -756.8081434836
   10    -756.8081562735      7.88E-09 Convergence criterion met
 Total energy in the final basis set = -756.8081562735
   11    -756.8081777401      2.67E-09 Convergence criterion met
 **  OPTIMIZATION CONVERGED  **
 Total job time:  172.89s(wall), 3972.56s(cpu)
        *  Thank you very much for using Q-Chem.  Have a nice day.  *

User input: 2 of 3

nid03053 10.128.12
Q-Chem Developer Version! Running on 10.128.12.*
                  Welcome to Q-Chem
     A Quantum Leap Into The Future Of Chemistry

 Q-Chem 5.0, Q-Chem, Inc., Pleasanton, CA (2017)

 Yihan Shao,  Zhengting Gan,  E. Epifanovsky,  A. T. B. Gilbert,  M. Wormit,
 J. Kussmann,  A. W. Lange,  A. Behn,  Jia Deng,  Xintian Feng,  D. Ghosh,
 M. Goldey,  P. R. Horn,  L. D. Jacobson,  I. Kaliman,  T. Kus,  A. Landau,
 Jie Liu,  E. I. Proynov,  R. M. Richard,  R. P. Steele,  E. J. Sundstrom,
 H. L. Woodcock III,  P. M. Zimmerman,  D. Zuev,  B. Albrecht,  E. Alguire,
 S. A. Baeppler,  Z. Benda,  Y. A. Bernard,  E. J. Berquist,  K. B. Bravaya,
 D. Casanova,  Chun-Min Chang,  Yunqing Chen,  A. Chien,  K. D. Closser,
 M. P. Coons,  S. Dasgupta,  M. Diedenhofen,  Hainam Do,  R. G. Edgar,
 Po-Tung Fang,  S. Fatehi,  Qingguo Feng,  Qinghui Ge,  A. Ghysels,
 J. Gomes,  J. Gonthier,  A. Gunina,  M. W. D. Hanson-Heine,
 P. H. P. Harbach,  A. W. Hauser,  J. E. Herr,  E. G. Hohenstein,
 Z. C. Holden,  Kerwin Hui,  T.-C. Jagau,  Hyunjun Ji,  B. Kaduk,
 K. Khistyaev,  Jaehoon Kim,  P. Klunzinger,  K. Koh,  D. Kosenkov,
 T. Kowalczyk,  C. M. Krauter,  A. Kunitsa,  Ka Un Lao,  A. Laurent,
 K. V. Lawler,  Joonho Lee,  D. Lefrancois,  S. Lehtola,  D. S. Levine,
 Yi-Pei Li,  You-Sheng Lin,  Fenglai Liu,  E. Livshits,  A. Luenser,
 P. Manohar,  E. Mansoor,  S. F. Manzer,  Shan-Ping Mao,  Yuezhi Mao,
 N. Mardirossian,  A. V. Marenich,  L. A. Martinez-Martinez,  S. A. Maurer,
 N. J. Mayhall,  S. C. McKenzie,  J.-M. Mewes,  A. F. Morrison,  K. Nanda,
 T. S. Nguyen-Beck,  R. Olivares-Amaya,  J. A. Parkhill,  T. M. Perrine,
 F. Plasser,  S. Prager,  A. Prociuk,  D. R. Rehn,  F. Rob,  M. Schneider,
 N. Sergueev,  S. M. Sharada,  S. Sharma,  D. W. Small,  T. Stauch,
 T. Stein,  Yu-Chuan Su,  A. J. W. Thom,  T. Tsuchimochi,  L. Vogt,
 O. Vydrov,  M. A. Watson,  J. Wenzel,  M. de Wergifosse,  T. A. Wesolowski,
 A. White,  J. Witte,  A. Yamada,  Jun Yang,  K. Yao,  S. Yeganeh,
 S. R. Yost,  Zhi-Qiang You,  A. Zech,  Igor Ying Zhang,  Xing Zhang,
 Yan Zhao,  Ying Zhu,  B. R. Brooks,  G. K. L. Chan,  C. J. Cramer,
 M. S. Gordon,  W. J. Hehre,  A. Klamt,  M. W. Schmidt,  C. D. Sherrill,
 D. G. Truhlar,  A. Aspuru-Guzik,  R. Baer,  A. T. Bell,  N. A. Besley,
 Jeng-Da Chai,  A. Dreuw,  B. D. Dunietz,  T. R. Furlani,  Chao-Ping Hsu,
 Yousung Jung,  Jing Kong,  D. S. Lambrecht,  WanZhen Liang,  C. Ochsenfeld,
 V. A. Rassolov,  L. V. Slipchenko,  J. E. Subotnik,  T. Van Voorhis,
 J. M. Herbert,  A. I. Krylov,  P. M. W. Gill,  M. Head-Gordon

 Contributors to earlier versions of Q-Chem not listed above:
 R. D. Adamson,  B. Austin,  J. Baker,  G. J. O. Beran,  K. Brandhorst,
 S. T. Brown,  E. F. C. Byrd,  A. K. Chakraborty,  C.-L. Cheng,
 Siu Hung Chien,  D. M. Chipman,  D. L. Crittenden,  H. Dachsel,
 R. A. DiStasio Jr.,  R. J. Doerksen,  A. D. Dutoi,  L. Fusti-Molnar,
 W. A. Goddard III,  A. Golubeva-Zadorozhnaya,  S. R. Gwaltney,  G. Hawkins,
 A. Heyden,  S. Hirata,  G. Kedziora,  F. J. Keil,  C. Kelley,  Jihan Kim,
 R. A. King,  R. Z. Khaliullin,  P. P. Korambath,  W. Kurlancheek,
 A. M. Lee,  M. S. Lee,  S. V. Levchenko,  Ching Yeh Lin,  D. Liotard,
 R. C. Lochan,  I. Lotan,  P. E. Maslen,  N. Nair,  D. P. O'Neill,
 D. Neuhauser,  E. Neuscamman,  C. M. Oana,  R. Olson,  B. Peters,
 R. Peverati,  P. A. Pieniazek,  Y. M. Rhee,  J. Ritchie,  M. A. Rohrdanz,
 E. Rosta,  N. J. Russ,  H. F. Schaefer III,  N. E. Schultz,  N. Shenvi,
 A. C. Simmonett,  A. Sodt,  D. Stuck,  K. S. Thanthiriwatte,  V. Vanovschi,
 Tao Wang,  A. Warshel,  C. F. Williams,  Q. Wu,  X. Xu,  W. Zhang

 Please cite Q-Chem as follows:
 Y. Shao et al., Mol. Phys. 113, 184-215 (2015)
 DOI: 10.1080/00268976.2014.952696

 Q-Chem 5.0.0 for Intel X86 EM64T Linux

 Parts of Q-Chem use Armadillo 5.200.1 (Boston Tea Smuggler).
 http://arma.sourceforge.net/

 Q-Chem begins on Wed Oct  4 18:29:18 2017

Host: nid03053
0

     Scratch files written to /global/cscratch1/sd/junteng/scratch/18/opt_11n11++.save//
The previous job contains 0 fragments, simply inherited here

Checking the input file for inconsistencies... 	...done.

--------------------------------------------------------------
User input:
--------------------------------------------------------------

$molecule
   read
$end

$rem
JOBTYPE                   OPT
METHOD                    B3LYP
DFT_D                     D3_OP
BASIS                     6-311++G(d,p)
GEOM_OPT_MAX_CYCLES       500
GEOM_OPT_TOL_GRADIENT     1
GEOM_OPT_TOL_DISPLACEMENT 1
GEOM_OPT_TOL_ENERGY       1
SYMMETRY                  False
THRESH                    12
SCF_CONVERGENCE           8
MAX_SUB_FILE_NUM          128
MEM_STATIC                400
MEM_TOTAL                 4000
$end

--------------------------------------------------------------

    9    -766.8750741550      4.96E-09 Convergence criterion met
 Total energy in the final basis set = -766.8750741550
    8    -766.8750742966      4.65E-09 Convergence criterion met
 Total energy in the final basis set = -766.8750742966
    6    -766.8750744022      9.33E-09 Convergence criterion met
 Total energy in the final basis set = -766.8750744022
    5    -766.8750744077      7.26E-09 Convergence criterion met
 Total energy in the final basis set = -766.8750744077
    5    -766.8750744020      4.63E-09 Convergence criterion met
 Total energy in the final basis set = -766.8750744020
    4    -766.8750744063      7.98E-09 Convergence criterion met
 Total energy in the final basis set = -766.8750744063
 Final energy is   -766.875074406262
        *  Thank you very much for using Q-Chem.  Have a nice day.  *
 Q-Chem 5.0, Q-Chem, Inc., Pleasanton, CA (2017)
 Q-Chem 5.0.0 for Intel X86 EM64T Linux

             Standard Nuclear Orientation (Angstroms)
    I     Atom           X                Y                Z
 ----------------------------------------------------------------
    1      C       0.1607291597    -0.7417021950    -0.0927795506
    2      C      -0.9823878245     0.0759772212    -0.0303232687
    3      C       1.4963921278    -0.1192413926    -0.3766543354
    4      C      -0.8500828985     1.5619515418    -0.1450627041
    5      O       2.3895007109    -0.3848131776     0.5937641095
    6      O       1.7536132743     0.5173774365    -1.3700698084
    7      O       0.1601911053     2.0278946176     0.6197989147
    8      O      -1.5603697559     2.2717850486    -0.8148308488
    9      C       0.4741856636     3.4234117891     0.4640224136
   10      C       3.7104211948     0.1510835967     0.3912518589
   11      C       0.0546259157    -2.1396853403    -0.0136517440
   12      C      -1.2205938546    -2.6833465014     0.1483070398
   13      C      -2.3488252111    -1.8770751351     0.2257281361
   14      C      -2.2626402894    -0.4872751502     0.1276778719
   15      H       0.8034967867     3.6174057113    -0.5580424456
   16      H       4.1517051204    -0.2547317562    -0.5204270927
   17      H      -3.3232480434    -2.3355937678     0.3571318820
   18      H      -0.3967943711     4.0399536171     0.6890867692
   19      H       1.2773565955     3.6195814795     1.1708583398
   20      H       4.2830027017    -0.1520288549     1.2648263750
   21      H       3.6686602812     1.2385146457     0.3159477264
   22      H      -1.3313789881    -3.7611065244     0.2072325586
   23      C      -3.5231654863     0.3412993828     0.2010906287
   24      C       1.2542461649    -3.0511399738    -0.1245040559
   25      H       1.8896361143    -2.7800274370    -0.9717110821
   26      H       0.9345275626    -4.0852281724    -0.2648520989
   27      H       1.8729528050    -3.0016623459     0.7747810635
   28      H      -3.7474512865     0.8005173025    -0.7636803140
   29      H      -3.4360097642     1.1560926704     0.9238366911
   30      H      -4.3673661638    -0.2851850275     0.4950989489
 ----------------------------------------------------------------

   15    -766.8749487983      8.84E-09 Convergence criterion met
 Total energy in the final basis set = -766.8749487983

                    Orbital Energies (a.u.)
 --------------------------------------------------------------

 Alpha MOs
 -- Occupied --
-19.178 -19.173 -19.120 -19.116 -10.312 -10.308 -10.233 -10.227
-10.205 -10.203 -10.201 -10.200 -10.187 -10.185 -10.176 -10.168
 -1.121  -1.114  -1.032  -1.028  -0.885  -0.808  -0.792  -0.748
 -0.732  -0.726  -0.674  -0.648  -0.620  -0.576  -0.568  -0.531
 -0.519  -0.513  -0.489  -0.488  -0.480  -0.477  -0.469  -0.441
 -0.436  -0.428  -0.423  -0.415  -0.412  -0.406  -0.396  -0.387
 -0.381  -0.372  -0.360  -0.358  -0.357  -0.320  -0.312  -0.298
 -0.287  -0.265  -0.253

          Ground-State Mulliken Net Atomic Charges

     Atom                 Charge (a.u.)
  ----------------------------------------
      1 C                     0.446398
      2 C                     0.553492
      3 C                    -0.919902
      4 C                    -0.449761
      5 O                     0.042574
      6 O                    -0.127761
      7 O                    -0.008069
      8 O                    -0.195843
      9 C                    -0.223911
     10 C                    -0.212755
     11 C                     0.615746
     12 C                    -0.548986
     13 C                    -0.663565
     14 C                     0.512363
     15 H                     0.195169
     16 H                     0.184975
     17 H                     0.125346
     18 H                     0.174866
     19 H                     0.150338
     20 H                     0.158774
     21 H                     0.158211
     22 H                     0.131862
     23 C                    -0.563396
     24 C                    -0.574153
     25 H                     0.176067
     26 H                     0.151436
     27 H                     0.192482
     28 H                     0.203805
     29 H                     0.174623
     30 H                     0.139574
  ----------------------------------------
  Sum of atomic charges =     0.000000

                    Cartesian Multipole Moments
 -----------------------------------------------------------------
    Charge (ESU x 10^10)
                 0.0000
    Dipole Moment (Debye)
         X       1.5324      Y      -1.4815      Z       2.4764
       Tot       3.2674
    Quadrupole Moments (Debye-Ang)
        XX     -82.3024     XY       5.4065     YY     -84.5407
        XZ       0.3128     YZ       5.7188     ZZ    -102.0924

 Frequency:        20.98                  52.94                  68.86
 Force Cnst:      0.0014                 0.0067                 0.0112
 Red. Mass:       5.3993                 4.0811                 4.0262
 IR Intens:        0.383                  0.068                  3.398
 Frequency:        79.04                 110.51                 117.26
 Force Cnst:      0.0106                 0.0105                 0.0191
 Red. Mass:       2.8782                 1.4641                 2.3529
 IR Intens:        3.233                  0.499                  0.704
 Frequency:       126.59                 136.14                 138.90
 Force Cnst:      0.0247                 0.0143                 0.0125
 Red. Mass:       2.6205                 1.3121                 1.0964
 IR Intens:        5.034                  0.333                  0.126
 Frequency:       145.18                 152.28                 218.94
 Force Cnst:      0.0193                 0.0194                 0.1447
 Red. Mass:       1.5528                 1.4217                 5.1222
 IR Intens:        0.130                  0.652                  0.248
 Frequency:       240.48                 249.79                 291.32
 Force Cnst:      0.2013                 0.1666                 0.1560
 Red. Mass:       5.9085                 4.5331                 3.1194
 IR Intens:        0.761                  3.762                  1.087
 Frequency:       303.80                 313.94                 322.81
 Force Cnst:      0.2607                 0.2294                 0.2268
 Red. Mass:       4.7941                 3.9508                 3.6936
 IR Intens:        4.750                 10.541                  8.093
 Frequency:       368.38                 400.88                 423.76
 Force Cnst:      0.4594                 0.3679                 0.5301
 Red. Mass:       5.7463                 3.8854                 5.0101
 IR Intens:        5.197                  6.647                  1.118
 Frequency:       486.61                 494.52                 555.37
 Force Cnst:      0.5991                 0.5373                 0.7854
 Red. Mass:       4.2943                 3.7293                 4.3220
 IR Intens:        1.279                  9.969                  1.963
 Frequency:       616.43                 712.45                 725.74
 Force Cnst:      1.0634                 1.8457                 1.9474
 Red. Mass:       4.7499                 6.1717                 6.2755
 IR Intens:        7.172                  1.223                  0.393
 Frequency:       735.79                 798.85                 805.79
 Force Cnst:      1.9946                 2.1472                 2.3464
 Red. Mass:       6.2531                 5.7106                 6.1336
 IR Intens:       23.616                  6.788                 10.319
 Frequency:       814.36                 830.65                 890.12
 Force Cnst:      2.6198                 0.5281                 2.6319
 Red. Mass:       6.7048                 1.2991                 5.6379
 IR Intens:       10.140                 18.638                  4.978
 Frequency:       921.93                 968.95                 988.42
 Force Cnst:      2.1783                 0.7382                 1.5087
 Red. Mass:       4.3498                 1.3345                 2.6210
 IR Intens:        9.746                  0.146                  5.595
 Frequency:       997.17                1046.75                1055.57
 Force Cnst:      2.8144                 1.0015                 1.4916
 Red. Mass:       4.8039                 1.5514                 2.2722
 IR Intens:       12.213                  3.893                 56.405
 Frequency:      1059.27                1062.82                1133.86
 Force Cnst:      1.0890                 1.0157                 4.0292
 Red. Mass:       1.6473                 1.5261                 5.3192
 IR Intens:        8.405                  3.838                 88.139
 Frequency:      1169.67                1170.57                1184.21
 Force Cnst:      1.0360                 1.0392                 1.2757
 Red. Mass:       1.2852                 1.2873                 1.5439
 IR Intens:        0.371                  2.044                 94.625
 Frequency:      1202.33                1210.56                1222.46
 Force Cnst:      1.5457                 1.3696                 2.8163
 Red. Mass:       1.8148                 1.5863                 3.1986
 IR Intens:       19.852                 12.618                292.789
 Frequency:      1275.08                1287.23                1292.92
 Force Cnst:      1.8337                 5.9618                 4.0670
 Red. Mass:       1.9143                 6.1068                 4.1294
 IR Intens:       14.342                174.904                212.654
 Frequency:      1315.65                1418.55                1420.46
 Force Cnst:      6.4797                 1.4691                 1.4778
 Red. Mass:       6.3537                 1.2391                 1.2431
 IR Intens:       47.484                  1.289                  4.954
 Frequency:      1432.39                1465.24                1468.53
 Force Cnst:      3.5082                 1.5181                 1.5959
 Red. Mass:       2.9021                 1.2001                 1.2560
 IR Intens:       52.398                 10.955                 47.308
 Frequency:      1481.20                1482.22                1483.60
 Force Cnst:      1.4312                 1.3806                 1.3610
 Red. Mass:       1.1072                 1.0666                 1.0495
 IR Intens:        3.821                  1.946                 19.158
 Frequency:      1486.45                1490.85                1495.83
 Force Cnst:      1.4165                 1.4393                 1.3900
 Red. Mass:       1.0881                 1.0991                 1.0544
 IR Intens:        0.139                 10.299                 15.294
 Frequency:      1496.91                1501.48                1503.28
 Force Cnst:      1.3934                 1.6647                 2.6515
 Red. Mass:       1.0554                 1.2533                 1.9914
 IR Intens:        3.284                  6.495                 19.995
 Frequency:      1608.59                1633.04                1772.23
 Force Cnst:      8.1798                11.1214                21.8584
 Red. Mass:       5.3654                 7.0780                11.8121
 IR Intens:       13.058                  2.363                112.195
 Frequency:      1778.55                3035.66                3040.93
 Force Cnst:     21.8112                 5.6244                 5.6424
 Red. Mass:      11.7031                 1.0359                 1.0356
 IR Intens:      405.723                 24.628                 23.010
 Frequency:      3050.38                3050.69                3091.57
 Force Cnst:      5.6429                 5.6450                 6.1964
 Red. Mass:       1.0293                 1.0295                 1.1004
 IR Intens:       15.423                 52.748                 10.962
 Frequency:      3099.26                3108.10                3111.63
 Force Cnst:      6.2261                 6.2737                 6.2914
 Red. Mass:       1.1001                 1.1023                 1.1029
 IR Intens:       11.987                 17.344                 13.544
 Frequency:      3122.80                3125.87                3156.39
 Force Cnst:      6.3593                 6.3744                 6.4947
 Red. Mass:       1.1068                 1.1073                 1.1064
 IR Intens:       17.955                 13.645                 13.120
 Frequency:      3158.25                3160.64                3177.70
 Force Cnst:      6.5018                 6.3987                 6.5123
 Red. Mass:       1.1064                 1.0872                 1.0946
 IR Intens:       12.639                  8.221                 20.428

 STANDARD THERMODYNAMIC QUANTITIES AT   298.15 K  AND     1.00 ATM

   This Molecule has  0 Imaginary Frequencies
   Zero point vibrational energy:      150.425 kcal/mol

   Atom    1 Element C  Has Mass   12.00000
   Atom    2 Element C  Has Mass   12.00000
   Atom    3 Element C  Has Mass   12.00000
   Atom    4 Element C  Has Mass   12.00000
   Atom    5 Element O  Has Mass   15.99491
   Atom    6 Element O  Has Mass   15.99491
   Atom    7 Element O  Has Mass   15.99491
   Atom    8 Element O  Has Mass   15.99491
   Atom    9 Element C  Has Mass   12.00000
   Atom   10 Element C  Has Mass   12.00000
   Atom   11 Element C  Has Mass   12.00000
   Atom   12 Element C  Has Mass   12.00000
   Atom   13 Element C  Has Mass   12.00000
   Atom   14 Element C  Has Mass   12.00000
   Atom   15 Element H  Has Mass    1.00783
   Atom   16 Element H  Has Mass    1.00783
   Atom   17 Element H  Has Mass    1.00783
   Atom   18 Element H  Has Mass    1.00783
   Atom   19 Element H  Has Mass    1.00783
   Atom   20 Element H  Has Mass    1.00783
   Atom   21 Element H  Has Mass    1.00783
   Atom   22 Element H  Has Mass    1.00783
   Atom   23 Element C  Has Mass   12.00000
   Atom   24 Element C  Has Mass   12.00000
   Atom   25 Element H  Has Mass    1.00783
   Atom   26 Element H  Has Mass    1.00783
   Atom   27 Element H  Has Mass    1.00783
   Atom   28 Element H  Has Mass    1.00783
   Atom   29 Element H  Has Mass    1.00783
   Atom   30 Element H  Has Mass    1.00783
   Molecular Mass:   222.089260 amu
   Principal axes and moments of inertia in amu*Bohr^2:
                             1           2           3
    Eigenvalues --     2856.22303  3195.70500  5564.63454
          X               0.99994     0.01114     0.00087
          Y              -0.01115     0.99990     0.00816
          Z              -0.00078    -0.00817     0.99997
   Rotational Symmetry Number is   1
   The Molecule is an Asymmetric Top
   Translational Enthalpy:        0.889 kcal/mol
   Rotational Enthalpy:           0.889 kcal/mol
   Vibrational Enthalpy:        159.290 kcal/mol
   gas constant (RT):             0.592 kcal/mol
   Translational Entropy:        42.096  cal/mol.K
   Rotational Entropy:           32.296  cal/mol.K
   Vibrational Entropy:          59.169  cal/mol.K

   Total Enthalpy:              161.660 kcal/mol
   Total Entropy:               133.561  cal/mol.K

 Total job time:  8330.39s(wall), 48147.66s(cpu)
        *  Thank you very much for using Q-Chem.  Have a nice day.  *
