 Q-Chem 4.4, Q-Chem, Inc., Pleasanton, CA (2016)
 Q-Chem 4.3.0 for Intel X86 EM64T Linux

User input:
--------------------------------------------------------------
$molecule
0  1
C    0.579  -1.978   0.499
C   -0.345  -1.987   1.740
C    0.941  -0.610  -0.048
C   -0.562  -0.630   2.386
O    2.215  -0.645  -0.542
O    0.210   0.366  -0.087
O    0.648  -0.161   2.826
O   -1.631  -0.088   2.617
C    0.572   1.116   3.461
C    2.652   0.593  -1.106
C   -0.242  -2.782  -0.524
C   -0.292  -4.259  -0.098
C   -1.265  -4.223   1.081
C   -1.594  -2.718   1.188
O   -1.591  -2.362  -0.216
H    1.516  -2.494   0.747
H    0.090  -2.606   2.538
H   -0.024   1.052   4.377
H    2.622   1.389  -0.356
H   -0.708  -4.895  -0.888
H    0.690  -4.657   0.174
H   -2.154  -4.811   0.825
H   -0.840  -4.639   1.999
H    1.587   1.422   3.729
H    0.156   1.863   2.777
H    2.039   0.852  -1.975
H    3.687   0.467  -1.436
C   -2.945  -2.478   1.828
H   -3.699  -3.155   1.411
H   -2.911  -2.635   2.910
H   -3.320  -1.473   1.614
C    0.085  -2.603  -1.994
H   -0.579  -3.214  -2.616
H   -0.074  -1.570  -2.320
H    1.119  -2.890  -2.210
$end

$opt
CONSTRAINT
tors    2    1    3    5    147.3
tors    1    2    4    7    -64.6
ENDCONSTRAINT
$end

$rem
JOBTYPE                   OPT
METHOD                    B3LYP
DFT_D                     EMPIRICAL_GRIMME3
BASIS                     6-31G*
GEOM_OPT_MAX_CYCLES       500
GEOM_OPT_TOL_GRADIENT     5
GEOM_OPT_TOL_DISPLACEMENT 5
GEOM_OPT_TOL_ENERGY       5
SYMMETRY                  False
THRESH                    12
SCF_CONVERGENCE           8
MAX_SUB_FILE_NUM          128
MEM_STATIC                400
MEM_TOTAL                 4000
$end

--------------------------------------------------------------

   15    -844.2778353097      4.60E-09 Convergence criterion met
 Total energy in the final basis set = -844.2778353097
   13    -844.2838521272      2.52E-09 Convergence criterion met
 Total energy in the final basis set = -844.2838521272
   12    -844.2847156125      3.15E-09 Convergence criterion met
 Total energy in the final basis set = -844.2847156125
   11    -844.2849606425      7.96E-09 Convergence criterion met
 Total energy in the final basis set = -844.2849606425
   10    -844.2850570008      5.69E-09 Convergence criterion met
 Total energy in the final basis set = -844.2850570008
   11    -844.2851238884      4.45E-09 Convergence criterion met
 Total energy in the final basis set = -844.2851238884
   11    -844.2851739306      3.75E-09 Convergence criterion met
 Total energy in the final basis set = -844.2851739306
   11    -844.2852301099      4.82E-09 Convergence criterion met
 **  OPTIMIZATION CONVERGED  **
 Total job time:  399.41s(wall), 7316.49s(cpu)
        *  Thank you very much for using Q-Chem.  Have a nice day.  *

User input: 2 of 2

                  Welcome to Q-Chem
     A Quantum Leap Into The Future Of Chemistry

 Q-Chem 4.4, Q-Chem, Inc., Pleasanton, CA (2016)

 Y. Shao,  Z. Gan,  E. Epifanovsky,  A. T. B. Gilbert,  M. Wormit,
 J. Kussmann,  A. W. Lange,  A. Behn,  J. Deng,  X. Feng,  D. Ghosh,
 M. Goldey,  P. R. Horn,  L. D. Jacobson,  I. Kaliman,  R. Z. Khaliullin,
 T. Kus,  A. Landau,  J. Liu,  E. I. Proynov,  Y. M. Rhee,  R. M. Richard,
 M. A. Rohrdanz,  R. P. Steele,  E. J. Sundstrom,  H. L. Woodcock III,
 P. M. Zimmerman,  D. Zuev,  B. Albrecht,  E. Alguire,  B. Austin,
 S. A. Baeppler,  G. J. O. Beran,  Y. A. Bernard,  E. Berquist,
 K. Brandhorst,  K. B. Bravaya,  S. T. Brown,  D. Casanova,  C.-M. Chang,
 Y. Chen,  S. H. Chien,  K. D. Closser,  M. P. Coons,  D. L. Crittenden,
 S. Dasgupta,  M. Diedenhofen,  R. A. DiStasio Jr.,  H. Do,  A. D. Dutoi,
 R. G. Edgar,  P.-T. Fang,  S. Fatehi,  Q. Feng,  L. Fusti-Molnar,
 A. Ghysels,  A. Golubeva-Zadorozhnaya,  J. Gomes,  A. Gunina,
 M. W. D. Hanson-Heine,  P. H. P. Harbach,  A. W. Hauser,  E. G. Hohenstein,
 Z. C. Holden,  K. Hui,  T.-C. Jagau,  H. Ji,  B. Kaduk,  K. Khistyaev,
 Jaehoon Kim,  Jihan Kim,  R. A. King,  P. Klunzinger,  D. Kosenkov,
 T. Kowalczyk,  C. M. Krauter,  A. Kunitsa,  K. U. Lao,  A. Laurent,
 K. V. Lawler,  D. Lefrancois,  S. Lehtola,  S. V. Levchenko,  C. Y. Lin,
 Y.-S. Lin,  F. Liu,  E. Livshits,  R. C. Lochan,  A. Luenser,  P. Manohar,
 S. F. Manzer,  S.-P. Mao,  Y. Mao,  N. Mardirossian,  A. V. Marenich,
 L. A. Martinez-Martinez,  S. A. Maurer,  N. J. Mayhall,  J.-M. Mewes,
 A. F. Morrison,  K. Nanda,  C. M. Oana,  R. Olivares-Amaya,  D. P. O'Neill,
 J. A. Parkhill,  T. M. Perrine,  R. Peverati,  P. A. Pieniazek,  F. Plasser,
 A. Prociuk,  D. R. Rehn,  E. Rosta,  N. J. Russ,  N. Sergueev,
 S. M. Sharada,  S. Sharma,  D. W. Small,  A. Sodt,  T. Stauch,  T. Stein,
 D. Stuck,  Y.-C. Su,  A. J. W. Thom,  T. Tsuchimochi,  L. Vogt,  O. Vydrov,
 T. Wang,  M. A. Watson,  J. Wenzel,  A. White,  C. F. Williams,
 V. Vanovschi,  S. Yeganeh,  S. R. Yost,  Z.-Q. You,  I. Y. Zhang,  X. Zhang,
 Y. Zhao,  B. R. Brooks,  G. K. L. Chan,  D. M. Chipman,  C. J. Cramer,
 W. A. Goddard III,  M. S. Gordon,  W. J. Hehre,  A. Klamt,
 H. F. Schaefer III,  M. W. Schmidt,  C. D. Sherrill,  D. G. Truhlar,
 A. Warshel,  X. Xu,  A. Aspuru-Guzik,  R. Baer,  A. T. Bell,  N. A. Besley,
 J.-D. Chai,  A. Dreuw,  B. D. Dunietz,  T. R. Furlani,  S. R. Gwaltney,
 C.-P. Hsu,  Y. Jung,  J. Kong,  D. S. Lambrecht,  W. Liang,  C. Ochsenfeld,
 V. A. Rassolov,  L. V. Slipchenko,  J. E. Subotnik,  T. Van Voorhis,
 J. M. Herbert,  A. I. Krylov,  P. M. W. Gill,  M. Head-Gordon

 Contributors to earlier versions of Q-Chem not listed above:
 R. D. Adamson,  J. Baker,  E. F. C. Byrd,  A. K. Chakraborty,  C.-L. Cheng,
 H. Dachsel,  R. J. Doerksen,  G. Hawkins,  A. Heyden,  S. Hirata,
 G. Kedziora,  F. J. Keil,  C. Kelley,  P. P. Korambath,  W. Kurlancheek,
 A. M. Lee,  M. S. Lee,  D. Liotard,  I. Lotan,  P. E. Maslen,  N. Nair,
 D. Neuhauser,  R. Olson,  B. Peters,  J. Ritchie,  N. E. Schultz,
 N. Shenvi,  A. C. Simmonett,  K. S. Thanthiriwatte,  Q. Wu,  W. Zhang

 Please cite Q-Chem as follows:
 Y. Shao et al., Mol. Phys. 113, 184-215 (2015)
 DOI: 10.1080/00268976.2014.952696

 Q-Chem 4.3.0 for Intel X86 EM64T Linux

 Parts of Q-Chem use Armadillo 5.200.1 (Boston Tea Smuggler).
 http://arma.sourceforge.net/

 Q-Chem begins on Mon Oct  2 22:42:34 2017

Host: nid00366
0

     Scratch files written to /global/cscratch1/sd/junteng/scratch/15/opt_1111.save//

Checking the input file for inconsistencies... 	...done.

--------------------------------------------------------------
User input:
--------------------------------------------------------------

$molecule
   read
$end

$rem
JOBTYPE                   OPT
METHOD                    B3LYP
DFT_D                     EMPIRICAL_GRIMME3
BASIS                     6-31G*
GEOM_OPT_MAX_CYCLES       500
GEOM_OPT_TOL_GRADIENT     5
GEOM_OPT_TOL_DISPLACEMENT 5
GEOM_OPT_TOL_ENERGY       5
SYMMETRY                  False
THRESH                    12
SCF_CONVERGENCE           8
MAX_SUB_FILE_NUM          128
MEM_STATIC                400
MEM_TOTAL                 4000
$end
--------------------------------------------------------------

    9    -844.2854735279      9.70E-09 Convergence criterion met
 Total energy in the final basis set = -844.2854735279
   11    -844.2854760248      2.82E-09 Convergence criterion met
 Total energy in the final basis set = -844.2854760248
    9    -844.2854775608      9.48E-09 Convergence criterion met
 Total energy in the final basis set = -844.2854775608
    8    -844.2854775759      8.06E-09 Convergence criterion met
 Total energy in the final basis set = -844.2854775759
    7    -844.2854777103      7.17E-09 Convergence criterion met
 Total energy in the final basis set = -844.2854777103
    7    -844.2854778023      7.34E-09 Convergence criterion met
 Total energy in the final basis set = -844.2854778023

             Standard Nuclear Orientation (Angstroms)
    I     Atom           X                Y                Z
 ----------------------------------------------------------------
    1      C       0.0193895156     0.6584711731     0.6719917923
    2      C       0.5459195509    -0.8178649381     0.6723146045
    3      C      -1.2732544215     0.8757833291    -0.0832445718
    4      C      -0.4595794855    -1.8174994776     0.1142282601
    5      O      -2.0082763985     1.8445227266     0.5100041867
    6      O      -1.6019138308     0.3301403118    -1.1146701986
    7      O      -1.5795891156    -1.7733496607     0.8813217827
    8      O      -0.3208352137    -2.5858065634    -0.8072412723
    9      C      -2.6841576692    -2.5455003499     0.3830602347
   10      C      -3.2241278891     2.1905112574    -0.1747192105
   11      C       1.1999652018     1.3957075779    -0.0691085707
   12      C       2.3858778719     1.4834153794     0.9258855263
   13      C       2.8929237769     0.0178788300     0.9261692434
   14      C       1.9133540782    -0.6658074436    -0.0724594183
   15      O       1.6403577690     0.4030638288    -0.9988913762
   16      H      -0.1121101489     1.0483811998     1.6825409109
   17      H       0.7071653206    -1.1336532409     1.7087698971
   18      H      -2.4177262319    -3.6032213375     0.3068947053
   19      H      -3.8723397455     1.3148570218    -0.2702289839
   20      H       3.1440824141     2.1673299247     0.5324549053
   21      H       2.0843202447     1.8488464677     1.9121781258
   22      H       3.9125725884    -0.0483772201     0.5358137075
   23      H       2.8846543835    -0.4517495879     1.9149391215
   24      H      -3.4903401355    -2.4033309749     1.1042304049
   25      H      -2.9776093880    -2.1749884648    -0.6033029903
   26      H      -3.0057383732     2.5769909685    -1.1745190535
   27      H      -3.6991153223     2.9567267637     0.4388921990
   28      C       2.4922780671    -1.8617389232    -0.8008174732
   29      H       3.4740531843    -1.5962414572    -1.2062137865
   30      H       2.6146969677    -2.7052714813    -0.1131594021
   31      H       1.8356558050    -2.1765825231    -1.6099843380
   32      C       0.8437542057     2.6784933206    -0.7913391553
   33      H       1.7367587526     3.0977409826    -1.2645065258
   34      H       0.1016721472     2.4820310850    -1.5705457677
   35      H       0.4350181449     3.4152639366    -0.0923955517
 ----------------------------------------------------------------

    5    -844.2854778236      8.75E-09 Convergence criterion met
 Total energy in the final basis set = -844.2854778236
 Final energy is   -844.285477823624
 **  OPTIMIZATION CONVERGED  **

                    Orbital Energies (a.u.)
 --------------------------------------------------------------

 Alpha MOs
 -- Occupied --
-19.196 -19.184 -19.141 -19.136 -19.130 -10.314 -10.309 -10.248
-10.243 -10.242 -10.232 -10.209 -10.209 -10.187 -10.185 -10.180
-10.165  -1.104  -1.093  -1.048  -1.014  -1.007  -0.820  -0.793
 -0.773  -0.739  -0.716  -0.711  -0.661  -0.634  -0.591  -0.572
 -0.552  -0.542  -0.515  -0.497  -0.490  -0.480  -0.477  -0.470
 -0.460  -0.459  -0.446  -0.430  -0.424  -0.411  -0.409  -0.403
 -0.396  -0.386  -0.379  -0.362  -0.359  -0.355  -0.347  -0.344
 -0.342  -0.336  -0.320  -0.313  -0.305  -0.294  -0.274  -0.260
 -0.255

          Ground-State Mulliken Net Atomic Charges

     Atom                 Charge (a.u.)
  ----------------------------------------
      1 C                    -0.191173
      2 C                    -0.194110
      3 C                     0.641094
      4 C                     0.641363
      5 O                    -0.459878
      6 O                    -0.488191
      7 O                    -0.466670
      8 O                    -0.478856
      9 C                    -0.220898
     10 C                    -0.220305
     11 C                     0.309589
     12 C                    -0.286810
     13 C                    -0.294314
     14 C                     0.318304
     15 O                    -0.500962
     16 H                     0.157498
     17 H                     0.162975
     18 H                     0.168914
     19 H                     0.170604
     20 H                     0.147766
     21 H                     0.136809
     22 H                     0.148173
     23 H                     0.135355
     24 H                     0.156526
     25 H                     0.181682
     26 H                     0.171484
     27 H                     0.164743
     28 C                    -0.482852
     29 H                     0.141183
     30 H                     0.140067
     31 H                     0.201348
     32 C                    -0.497099
     33 H                     0.158512
     34 H                     0.174509
     35 H                     0.153622
  ----------------------------------------
  Sum of atomic charges =    -0.000000

                    Cartesian Multipole Moments
 -----------------------------------------------------------------
    Charge (ESU x 10^10)
                -0.0000
    Dipole Moment (Debye)
         X      -0.9105      Y       2.0331      Z       3.1699
       Tot       3.8744
    Quadrupole Moments (Debye-Ang)
        XX     -87.0474     XY      -0.8143     YY     -96.1288
        XZ       1.5487     YZ      -4.6063     ZZ    -104.6220

 Total job time:  272.05s(wall), 6034.89s(cpu)
        *  Thank you very much for using Q-Chem.  Have a nice day.  *
