 Q-Chem 5.0, Q-Chem, Inc., Pleasanton, CA (2017)
 Q-Chem 5.0.0 for Intel X86 EM64T Linux

User input:
--------------------------------------------------------------
$molecule
0  1
C    0.355  -2.424   0.293
C   -0.264  -2.685   1.524
C    0.749  -1.045  -0.086
C   -0.385  -1.681   2.598
O    1.805  -1.090  -0.938
O    0.175  -0.038   0.291
O    0.833  -1.128   2.820
O   -1.397  -1.517   3.259
C    0.836  -0.152   3.862
C    2.258   0.195  -1.365
C    0.489  -3.469  -0.639
C    0.011  -4.748  -0.345
C   -0.620  -4.996   0.872
C   -0.760  -3.969   1.804
H    0.142   0.662   3.629
H    1.480   0.699  -1.947
H   -1.003  -5.990   1.096
H    0.581  -0.616   4.820
H    1.845   0.263   3.935
H    3.132   0.050  -2.006
H    2.557   0.804  -0.506
H    0.116  -5.548  -1.075
H   -1.248  -4.169   2.757
H    0.945  -3.290  -1.611
$end

$opt
CONSTRAINT
tors    2    1    3    5    160.0
tors    1    2    4    7    -50.0
ENDCONSTRAINT
$end

$rem
JOBTYPE                   OPT
METHOD                    B3LYP
DFT_D                     D3_OP
BASIS                     STO-3G
GEOM_OPT_MAX_CYCLES       500
SYMMETRY                  False
THRESH                    12
SCF_CONVERGENCE           8
MAX_SUB_FILE_NUM          128
MEM_STATIC                400
MEM_TOTAL                 4000
$end

--------------------------------------------------------------

   15    -679.0688361291      6.94E-09 Convergence criterion met
 Total energy in the final basis set = -679.0688361291
   14    -679.0943044320      6.03E-09 Convergence criterion met
 Total energy in the final basis set = -679.0943044320
   14    -679.0966348081      2.35E-09 Convergence criterion met
 Total energy in the final basis set = -679.0966348081
   12    -679.0969193394      9.39E-09 Convergence criterion met
 Total energy in the final basis set = -679.0969193394
   11    -679.0969597266      9.16E-09 Convergence criterion met
 Total energy in the final basis set = -679.0969597266
   11    -679.0969716216      5.25E-09 Convergence criterion met
 Total energy in the final basis set = -679.0969716216
   11    -679.0969784213      1.86E-09 Convergence criterion met
 Total energy in the final basis set = -679.0969784213
   11    -679.0969831977      1.23E-09 Convergence criterion met
 **  OPTIMIZATION CONVERGED  **
 Total job time:  29.88s(wall), 697.73s(cpu)
        *  Thank you very much for using Q-Chem.  Have a nice day.  *

User input: 2 of 3

nid04361 10.128.17
Q-Chem Developer Version! Running on 10.128.17.*
                  Welcome to Q-Chem
     A Quantum Leap Into The Future Of Chemistry

 Q-Chem 5.0, Q-Chem, Inc., Pleasanton, CA (2017)

 Yihan Shao,  Zhengting Gan,  E. Epifanovsky,  A. T. B. Gilbert,  M. Wormit,
 J. Kussmann,  A. W. Lange,  A. Behn,  Jia Deng,  Xintian Feng,  D. Ghosh,
 M. Goldey,  P. R. Horn,  L. D. Jacobson,  I. Kaliman,  T. Kus,  A. Landau,
 Jie Liu,  E. I. Proynov,  R. M. Richard,  R. P. Steele,  E. J. Sundstrom,
 H. L. Woodcock III,  P. M. Zimmerman,  D. Zuev,  B. Albrecht,  E. Alguire,
 S. A. Baeppler,  Z. Benda,  Y. A. Bernard,  E. J. Berquist,  K. B. Bravaya,
 D. Casanova,  Chun-Min Chang,  Yunqing Chen,  A. Chien,  K. D. Closser,
 M. P. Coons,  S. Dasgupta,  M. Diedenhofen,  Hainam Do,  R. G. Edgar,
 Po-Tung Fang,  S. Fatehi,  Qingguo Feng,  Qinghui Ge,  A. Ghysels,
 J. Gomes,  J. Gonthier,  A. Gunina,  M. W. D. Hanson-Heine,
 P. H. P. Harbach,  A. W. Hauser,  J. E. Herr,  E. G. Hohenstein,
 Z. C. Holden,  Kerwin Hui,  T.-C. Jagau,  Hyunjun Ji,  B. Kaduk,
 K. Khistyaev,  Jaehoon Kim,  P. Klunzinger,  K. Koh,  D. Kosenkov,
 T. Kowalczyk,  C. M. Krauter,  A. Kunitsa,  Ka Un Lao,  A. Laurent,
 K. V. Lawler,  Joonho Lee,  D. Lefrancois,  S. Lehtola,  D. S. Levine,
 Yi-Pei Li,  You-Sheng Lin,  Fenglai Liu,  E. Livshits,  A. Luenser,
 P. Manohar,  E. Mansoor,  S. F. Manzer,  Shan-Ping Mao,  Yuezhi Mao,
 N. Mardirossian,  A. V. Marenich,  L. A. Martinez-Martinez,  S. A. Maurer,
 N. J. Mayhall,  S. C. McKenzie,  J.-M. Mewes,  A. F. Morrison,  K. Nanda,
 T. S. Nguyen-Beck,  R. Olivares-Amaya,  J. A. Parkhill,  T. M. Perrine,
 F. Plasser,  S. Prager,  A. Prociuk,  D. R. Rehn,  F. Rob,  M. Schneider,
 N. Sergueev,  S. M. Sharada,  S. Sharma,  D. W. Small,  T. Stauch,
 T. Stein,  Yu-Chuan Su,  A. J. W. Thom,  T. Tsuchimochi,  L. Vogt,
 O. Vydrov,  M. A. Watson,  J. Wenzel,  M. de Wergifosse,  T. A. Wesolowski,
 A. White,  J. Witte,  A. Yamada,  Jun Yang,  K. Yao,  S. Yeganeh,
 S. R. Yost,  Zhi-Qiang You,  A. Zech,  Igor Ying Zhang,  Xing Zhang,
 Yan Zhao,  Ying Zhu,  B. R. Brooks,  G. K. L. Chan,  C. J. Cramer,
 M. S. Gordon,  W. J. Hehre,  A. Klamt,  M. W. Schmidt,  C. D. Sherrill,
 D. G. Truhlar,  A. Aspuru-Guzik,  R. Baer,  A. T. Bell,  N. A. Besley,
 Jeng-Da Chai,  A. Dreuw,  B. D. Dunietz,  T. R. Furlani,  Chao-Ping Hsu,
 Yousung Jung,  Jing Kong,  D. S. Lambrecht,  WanZhen Liang,  C. Ochsenfeld,
 V. A. Rassolov,  L. V. Slipchenko,  J. E. Subotnik,  T. Van Voorhis,
 J. M. Herbert,  A. I. Krylov,  P. M. W. Gill,  M. Head-Gordon

 Contributors to earlier versions of Q-Chem not listed above:
 R. D. Adamson,  B. Austin,  J. Baker,  G. J. O. Beran,  K. Brandhorst,
 S. T. Brown,  E. F. C. Byrd,  A. K. Chakraborty,  C.-L. Cheng,
 Siu Hung Chien,  D. M. Chipman,  D. L. Crittenden,  H. Dachsel,
 R. A. DiStasio Jr.,  R. J. Doerksen,  A. D. Dutoi,  L. Fusti-Molnar,
 W. A. Goddard III,  A. Golubeva-Zadorozhnaya,  S. R. Gwaltney,  G. Hawkins,
 A. Heyden,  S. Hirata,  G. Kedziora,  F. J. Keil,  C. Kelley,  Jihan Kim,
 R. A. King,  R. Z. Khaliullin,  P. P. Korambath,  W. Kurlancheek,
 A. M. Lee,  M. S. Lee,  S. V. Levchenko,  Ching Yeh Lin,  D. Liotard,
 R. C. Lochan,  I. Lotan,  P. E. Maslen,  N. Nair,  D. P. O'Neill,
 D. Neuhauser,  E. Neuscamman,  C. M. Oana,  R. Olson,  B. Peters,
 R. Peverati,  P. A. Pieniazek,  Y. M. Rhee,  J. Ritchie,  M. A. Rohrdanz,
 E. Rosta,  N. J. Russ,  H. F. Schaefer III,  N. E. Schultz,  N. Shenvi,
 A. C. Simmonett,  A. Sodt,  D. Stuck,  K. S. Thanthiriwatte,  V. Vanovschi,
 Tao Wang,  A. Warshel,  C. F. Williams,  Q. Wu,  X. Xu,  W. Zhang

 Please cite Q-Chem as follows:
 Y. Shao et al., Mol. Phys. 113, 184-215 (2015)
 DOI: 10.1080/00268976.2014.952696

 Q-Chem 5.0.0 for Intel X86 EM64T Linux

 Parts of Q-Chem use Armadillo 5.200.1 (Boston Tea Smuggler).
 http://arma.sourceforge.net/

 Q-Chem begins on Wed Oct  4 18:03:12 2017

Host: nid04361
0

     Scratch files written to /global/cscratch1/sd/junteng/scratch/16/opt_10n01+o.save//
The previous job contains 0 fragments, simply inherited here

Checking the input file for inconsistencies... 	...done.

--------------------------------------------------------------
User input:
--------------------------------------------------------------

$molecule
   read
$end

$rem
JOBTYPE                   OPT
METHOD                    B3LYP
DFT_D                     D3_OP
BASIS                     6-311++G(d,p)
GEOM_OPT_MAX_CYCLES       500
GEOM_OPT_TOL_GRADIENT     1
GEOM_OPT_TOL_DISPLACEMENT 1
GEOM_OPT_TOL_ENERGY       1
SYMMETRY                  False
THRESH                    12
SCF_CONVERGENCE           8
MAX_SUB_FILE_NUM          128
MEM_STATIC                400
MEM_TOTAL                 4000
$end

--------------------------------------------------------------

   10    -688.2160828456      5.39E-09 Convergence criterion met
 Total energy in the final basis set = -688.2160828456
    8    -688.2160832758      6.76E-09 Convergence criterion met
 Total energy in the final basis set = -688.2160832758
    8    -688.2160833286      3.88E-09 Convergence criterion met
 Total energy in the final basis set = -688.2160833286
    7    -688.2160833555      5.99E-09 Convergence criterion met
 Total energy in the final basis set = -688.2160833555
    7    -688.2160833237      2.30E-09 Convergence criterion met
 Total energy in the final basis set = -688.2160833237
    6    -688.2160833270      7.77E-09 Convergence criterion met
 Total energy in the final basis set = -688.2160833270
 Final energy is   -688.216083327028
        *  Thank you very much for using Q-Chem.  Have a nice day.  *
 Q-Chem 5.0, Q-Chem, Inc., Pleasanton, CA (2017)
 Q-Chem 5.0.0 for Intel X86 EM64T Linux

             Standard Nuclear Orientation (Angstroms)
    I     Atom           X                Y                Z
 ----------------------------------------------------------------
    1      C      -0.1907205814    -0.8644678815    -0.0339632558
    2      C      -1.1024495489     0.2055089136    -0.0694476278
    3      C       1.2648209341    -0.6355943843    -0.2817952023
    4      C      -0.6753756462     1.6386459380    -0.1670255387
    5      O       2.0249516357    -1.5893306294     0.2958024408
    6      O       1.7183286259     0.2624833590    -0.9507377391
    7      O       0.2278926301     1.9439242239     0.7803812891
    8      O      -1.1354038666     2.4298852816    -0.9531090887
    9      C       0.8182871897     3.2533786842     0.6866387125
   10      C       3.4400124318    -1.5048048379     0.0473285851
   11      C      -0.6725986685    -2.1696071563     0.1131102218
   12      C      -2.0392866330    -2.4155630777     0.2089547292
   13      C      -2.9410595823    -1.3554351767     0.1512497411
   14      C      -2.4715707542    -0.0519032504     0.0090382541
   15      H       1.3925236121     3.3290097725    -0.2382115229
   16      H       3.6437382160    -1.5752874648    -1.0223000312
   17      H      -4.0070569991    -1.5406800663     0.2175777665
   18      H       0.0483239295     4.0254680958     0.7053786438
   19      H       1.4718717273     3.3386635329     1.5517337465
   20      H       3.8764715957    -2.3476133452     0.5786215815
   21      H       3.8376133288    -0.5630542145     0.4279154408
   22      H      -2.3978704345    -3.4327004376     0.3180331059
   23      H      -3.1635797778     0.7802744547    -0.0356639542
   24      H       0.0314577547    -2.9907248339     0.1336882914
 ----------------------------------------------------------------

   15    -688.2160038065      7.13E-09 Convergence criterion met
 Total energy in the final basis set = -688.2160038065

                    Orbital Energies (a.u.)
 --------------------------------------------------------------

 Alpha MOs
 -- Occupied --
-19.180 -19.170 -19.121 -19.115 -10.314 -10.308 -10.234 -10.224
-10.212 -10.211 -10.199 -10.198 -10.197 -10.197  -1.121  -1.113
 -1.034  -1.026  -0.887  -0.796  -0.787  -0.741  -0.729  -0.655
 -0.639  -0.594  -0.573  -0.553  -0.523  -0.503  -0.493  -0.489
 -0.486  -0.480  -0.463  -0.457  -0.435  -0.431  -0.418  -0.402
 -0.390  -0.382  -0.375  -0.372  -0.361  -0.323  -0.309  -0.298
 -0.293  -0.277  -0.270

          Ground-State Mulliken Net Atomic Charges

     Atom                 Charge (a.u.)
  ----------------------------------------
      1 C                     0.731220
      2 C                     0.352010
      3 C                    -0.389336
      4 C                    -0.635478
      5 O                    -0.062583
      6 O                    -0.213302
      7 O                    -0.005914
      8 O                    -0.215425
      9 C                    -0.244479
     10 C                    -0.236200
     11 C                    -0.098286
     12 C                    -0.208703
     13 C                    -0.201548
     14 C                    -0.306782
     15 H                     0.187550
     16 H                     0.188728
     17 H                     0.172406
     18 H                     0.168523
     19 H                     0.154257
     20 H                     0.159120
     21 H                     0.172597
     22 H                     0.173903
     23 H                     0.175503
     24 H                     0.182221
  ----------------------------------------
  Sum of atomic charges =     0.000000

                    Cartesian Multipole Moments
 -----------------------------------------------------------------
    Charge (ESU x 10^10)
                 0.0000
    Dipole Moment (Debye)
         X       0.8864      Y      -2.4868      Z       2.1936
       Tot       3.4325
    Quadrupole Moments (Debye-Ang)
        XX     -67.4022     XY       3.2023     YY     -73.7573
        XZ      -0.4180     YZ       6.4863     ZZ     -87.5649

 Frequency:        21.63                  72.62                  77.39
 Force Cnst:      0.0016                 0.0105                 0.0127
 Red. Mass:       5.9118                 3.3791                 3.6081
 IR Intens:        0.493                  0.364                  4.911
 Frequency:        91.95                 108.28                 123.45
 Force Cnst:      0.0153                 0.0093                 0.0109
 Red. Mass:       3.0767                 1.3532                 1.2176
 IR Intens:        3.120                  0.347                  0.430
 Frequency:       136.89                 153.70                 215.14
 Force Cnst:      0.0353                 0.0485                 0.1442
 Red. Mass:       3.1955                 3.4852                 5.2890
 IR Intens:        2.132                  1.649                  1.034
 Frequency:       251.73                 282.66                 307.26
 Force Cnst:      0.2172                 0.2061                 0.2842
 Red. Mass:       5.8163                 4.3785                 5.1100
 IR Intens:        1.633                  8.387                  5.458
 Frequency:       331.53                 367.35                 396.97
 Force Cnst:      0.3400                 0.5257                 0.5064
 Red. Mass:       5.2499                 6.6125                 5.4540
 IR Intens:       14.007                 10.118                  1.199
 Frequency:       422.05                 536.35                 558.91
 Force Cnst:      0.4124                 0.8630                 0.8390
 Red. Mass:       3.9290                 5.0917                 4.5586
 IR Intens:        0.959                  2.180                  4.884
 Frequency:       664.10                 702.64                 715.15
 Force Cnst:      1.6335                 1.7721                 1.6398
 Red. Mass:       6.2863                 6.0924                 5.4416
 IR Intens:        4.466                  6.356                  7.576
 Frequency:       749.87                 799.18                 812.67
 Force Cnst:      0.6675                 1.0873                 1.5049
 Red. Mass:       2.0149                 2.8894                 3.8674
 IR Intens:       79.843                 18.436                  6.109
 Frequency:       827.93                 847.56                 903.27
 Force Cnst:      2.0288                 2.1383                 0.7154
 Red. Mass:       5.0233                 5.0522                 1.4881
 IR Intens:       10.945                  1.235                  0.626
 Frequency:       974.42                 983.93                 985.64
 Force Cnst:      1.3533                 3.9588                 1.3259
 Red. Mass:       2.4190                 6.9404                 2.3165
 IR Intens:       14.807                  1.245                  7.050
 Frequency:      1003.53                1062.73                1096.81
 Force Cnst:      0.7812                 1.6488                 3.4855
 Red. Mass:       1.3166                 2.4778                 4.9177
 IR Intens:        0.550                 16.721                 92.229
 Frequency:      1143.88                1155.30                1169.73
 Force Cnst:      2.2636                 1.4686                 1.0458
 Red. Mass:       2.9362                 1.8675                 1.2972
 IR Intens:      163.634                 51.762                  1.262
 Frequency:      1170.41                1189.87                1210.91
 Force Cnst:      1.0351                 0.9334                 1.3590
 Red. Mass:       1.2825                 1.1190                 1.5731
 IR Intens:        0.667                  1.880                 35.171
 Frequency:      1214.84                1275.15                1287.74
 Force Cnst:      1.4071                 3.1094                 3.0045
 Red. Mass:       1.6182                 3.2457                 3.0751
 IR Intens:       43.681                182.792                385.809
 Frequency:      1311.08                1334.02                1465.73
 Force Cnst:      2.2182                 7.8059                 1.5959
 Red. Mass:       2.1902                 7.4448                 1.2608
 IR Intens:      177.813                 21.655                 13.037
 Frequency:      1468.04                1475.85                1481.70
 Force Cnst:      1.5220                 2.5488                 1.3521
 Red. Mass:       1.1987                 1.9861                 1.0453
 IR Intens:       19.195                  7.958                  6.316
 Frequency:      1482.74                1495.59                1496.27
 Force Cnst:      1.3563                 1.3806                 1.3811
 Red. Mass:       1.0471                 1.0476                 1.0470
 IR Intens:       12.601                 17.235                  3.079
 Frequency:      1514.45                1611.99                1636.27
 Force Cnst:      3.5860                 9.6609                 9.0696
 Red. Mass:       2.6537                 6.3102                 5.7494
 IR Intens:       12.321                 11.646                  6.920
 Frequency:      1773.19                1781.82                3050.05
 Force Cnst:     21.8527                22.1956                 5.6434
 Red. Mass:      11.7963                11.8656                 1.0296
 IR Intens:      247.463                306.566                 31.441
 Frequency:      3050.73                3123.69                3126.49
 Force Cnst:      5.6447                 6.3645                 6.3774
 Red. Mass:       1.0294                 1.1071                 1.1073
 IR Intens:       37.693                 17.400                 14.403
 Frequency:      3157.82                3158.43                3172.85
 Force Cnst:      6.4995                 6.5019                 6.4460
 Red. Mass:       1.1063                 1.1062                 1.0868
 IR Intens:       13.612                 13.016                  1.651
 Frequency:      3186.72                3198.73                3211.71
 Force Cnst:      6.5308                 6.6014                 6.6453
 Red. Mass:       1.0915                 1.0950                 1.0934
 IR Intens:        8.854                  7.150                  3.531

 STANDARD THERMODYNAMIC QUANTITIES AT   298.15 K  AND     1.00 ATM

   This Molecule has  0 Imaginary Frequencies
   Zero point vibrational energy:      116.037 kcal/mol

   Atom    1 Element C  Has Mass   12.00000
   Atom    2 Element C  Has Mass   12.00000
   Atom    3 Element C  Has Mass   12.00000
   Atom    4 Element C  Has Mass   12.00000
   Atom    5 Element O  Has Mass   15.99491
   Atom    6 Element O  Has Mass   15.99491
   Atom    7 Element O  Has Mass   15.99491
   Atom    8 Element O  Has Mass   15.99491
   Atom    9 Element C  Has Mass   12.00000
   Atom   10 Element C  Has Mass   12.00000
   Atom   11 Element C  Has Mass   12.00000
   Atom   12 Element C  Has Mass   12.00000
   Atom   13 Element C  Has Mass   12.00000
   Atom   14 Element C  Has Mass   12.00000
   Atom   15 Element H  Has Mass    1.00783
   Atom   16 Element H  Has Mass    1.00783
   Atom   17 Element H  Has Mass    1.00783
   Atom   18 Element H  Has Mass    1.00783
   Atom   19 Element H  Has Mass    1.00783
   Atom   20 Element H  Has Mass    1.00783
   Atom   21 Element H  Has Mass    1.00783
   Atom   22 Element H  Has Mass    1.00783
   Atom   23 Element H  Has Mass    1.00783
   Atom   24 Element H  Has Mass    1.00783
   Molecular Mass:   194.057940 amu
   Principal axes and moments of inertia in amu*Bohr^2:
                             1           2           3
    Eigenvalues --     2387.32264  2462.82258  4473.26615
          X               0.97600     0.21778     0.00125
          Y              -0.21778     0.97595     0.00945
          Z               0.00083    -0.00949     0.99995
   Rotational Symmetry Number is   1
   The Molecule is an Asymmetric Top
   Translational Enthalpy:        0.889 kcal/mol
   Rotational Enthalpy:           0.889 kcal/mol
   Vibrational Enthalpy:        122.767 kcal/mol
   gas constant (RT):             0.592 kcal/mol
   Translational Entropy:        41.694  cal/mol.K
   Rotational Entropy:           31.642  cal/mol.K
   Vibrational Entropy:          45.039  cal/mol.K

   Total Enthalpy:              125.137 kcal/mol
   Total Entropy:               118.375  cal/mol.K

 Total job time:  4182.10s(wall), 20410.86s(cpu)
        *  Thank you very much for using Q-Chem.  Have a nice day.  *
