 Q-Chem 5.0, Q-Chem, Inc., Pleasanton, CA (2017)
 Q-Chem 5.0.0 for Intel X86 EM64T Linux

User input:
--------------------------------------------------------------
$molecule
0  1
C    0.656  -1.997   0.550
C   -0.379  -2.055   1.685
C    1.075  -0.633   0.035
C   -0.743  -0.756   2.367
O    2.254  -0.766  -0.643
O    0.466   0.414   0.178
O    0.380  -0.211   2.923
O   -1.879  -0.339   2.537
C    0.159   1.039   3.578
C    2.798   0.433  -1.203
C   -0.074  -2.721  -0.584
C   -0.239  -4.209  -0.268
C   -1.341  -4.194   0.796
C   -1.585  -2.694   0.978
O   -1.425  -2.250  -0.391
H    1.566  -2.528   0.855
H   -0.041  -2.721   2.491
H   -0.505   1.690   2.999
H    2.061   1.233  -1.326
H    0.286  -2.514  -1.595
H   -0.592  -4.755  -1.150
H    0.687  -4.677   0.078
H   -2.237  -4.682   0.398
H   -1.053  -4.703   1.720
H   -2.574  -2.451   1.372
H   -0.249   0.863   4.578
H    1.124   1.543   3.677
H    3.204   0.190  -2.189
H    3.617   0.777  -0.565
$end

$opt
CONSTRAINT
tors    2    1    3    5    167.3
tors    1    2    4    7    -61.6
ENDCONSTRAINT
$end

$rem
JOBTYPE                   OPT
METHOD                    B3LYP
DFT_D                     D3_OP
BASIS                     STO-3G
GEOM_OPT_MAX_CYCLES       500
SYMMETRY                  False
THRESH                    12
SCF_CONVERGENCE           8
MAX_SUB_FILE_NUM          128
MEM_STATIC                400
MEM_TOTAL                 4000
$end

--------------------------------------------------------------

   14    -755.6953363584      6.30E-09 Convergence criterion met
 Total energy in the final basis set = -755.6953363584
   13    -755.7258105376      3.31E-09 Convergence criterion met
 Total energy in the final basis set = -755.7258105376
   13    -755.7318881433      3.96E-09 Convergence criterion met
 Total energy in the final basis set = -755.7318881433
   12    -755.7324070826      4.22E-09 Convergence criterion met
 Total energy in the final basis set = -755.7324070826
   11    -755.7325459204      7.29E-09 Convergence criterion met
 Total energy in the final basis set = -755.7325459204
   11    -755.7326016008      4.64E-09 Convergence criterion met
 Total energy in the final basis set = -755.7326016008
   11    -755.7326530093      4.68E-09 Convergence criterion met
 Total energy in the final basis set = -755.7326530093
   11    -755.7327299210      3.48E-09 Convergence criterion met
 **  OPTIMIZATION CONVERGED  **
 Total job time:  76.51s(wall), 1787.30s(cpu)
        *  Thank you very much for using Q-Chem.  Have a nice day.  *

User input: 2 of 3

nid04580 10.128.18
Q-Chem Developer Version! Running on 10.128.18.*
                  Welcome to Q-Chem
     A Quantum Leap Into The Future Of Chemistry

 Q-Chem 5.0, Q-Chem, Inc., Pleasanton, CA (2017)

 Yihan Shao,  Zhengting Gan,  E. Epifanovsky,  A. T. B. Gilbert,  M. Wormit,
 J. Kussmann,  A. W. Lange,  A. Behn,  Jia Deng,  Xintian Feng,  D. Ghosh,
 M. Goldey,  P. R. Horn,  L. D. Jacobson,  I. Kaliman,  T. Kus,  A. Landau,
 Jie Liu,  E. I. Proynov,  R. M. Richard,  R. P. Steele,  E. J. Sundstrom,
 H. L. Woodcock III,  P. M. Zimmerman,  D. Zuev,  B. Albrecht,  E. Alguire,
 S. A. Baeppler,  Z. Benda,  Y. A. Bernard,  E. J. Berquist,  K. B. Bravaya,
 D. Casanova,  Chun-Min Chang,  Yunqing Chen,  A. Chien,  K. D. Closser,
 M. P. Coons,  S. Dasgupta,  M. Diedenhofen,  Hainam Do,  R. G. Edgar,
 Po-Tung Fang,  S. Fatehi,  Qingguo Feng,  Qinghui Ge,  A. Ghysels,
 J. Gomes,  J. Gonthier,  A. Gunina,  M. W. D. Hanson-Heine,
 P. H. P. Harbach,  A. W. Hauser,  J. E. Herr,  E. G. Hohenstein,
 Z. C. Holden,  Kerwin Hui,  T.-C. Jagau,  Hyunjun Ji,  B. Kaduk,
 K. Khistyaev,  Jaehoon Kim,  P. Klunzinger,  K. Koh,  D. Kosenkov,
 T. Kowalczyk,  C. M. Krauter,  A. Kunitsa,  Ka Un Lao,  A. Laurent,
 K. V. Lawler,  Joonho Lee,  D. Lefrancois,  S. Lehtola,  D. S. Levine,
 Yi-Pei Li,  You-Sheng Lin,  Fenglai Liu,  E. Livshits,  A. Luenser,
 P. Manohar,  E. Mansoor,  S. F. Manzer,  Shan-Ping Mao,  Yuezhi Mao,
 N. Mardirossian,  A. V. Marenich,  L. A. Martinez-Martinez,  S. A. Maurer,
 N. J. Mayhall,  S. C. McKenzie,  J.-M. Mewes,  A. F. Morrison,  K. Nanda,
 T. S. Nguyen-Beck,  R. Olivares-Amaya,  J. A. Parkhill,  T. M. Perrine,
 F. Plasser,  S. Prager,  A. Prociuk,  D. R. Rehn,  F. Rob,  M. Schneider,
 N. Sergueev,  S. M. Sharada,  S. Sharma,  D. W. Small,  T. Stauch,
 T. Stein,  Yu-Chuan Su,  A. J. W. Thom,  T. Tsuchimochi,  L. Vogt,
 O. Vydrov,  M. A. Watson,  J. Wenzel,  M. de Wergifosse,  T. A. Wesolowski,
 A. White,  J. Witte,  A. Yamada,  Jun Yang,  K. Yao,  S. Yeganeh,
 S. R. Yost,  Zhi-Qiang You,  A. Zech,  Igor Ying Zhang,  Xing Zhang,
 Yan Zhao,  Ying Zhu,  B. R. Brooks,  G. K. L. Chan,  C. J. Cramer,
 M. S. Gordon,  W. J. Hehre,  A. Klamt,  M. W. Schmidt,  C. D. Sherrill,
 D. G. Truhlar,  A. Aspuru-Guzik,  R. Baer,  A. T. Bell,  N. A. Besley,
 Jeng-Da Chai,  A. Dreuw,  B. D. Dunietz,  T. R. Furlani,  Chao-Ping Hsu,
 Yousung Jung,  Jing Kong,  D. S. Lambrecht,  WanZhen Liang,  C. Ochsenfeld,
 V. A. Rassolov,  L. V. Slipchenko,  J. E. Subotnik,  T. Van Voorhis,
 J. M. Herbert,  A. I. Krylov,  P. M. W. Gill,  M. Head-Gordon

 Contributors to earlier versions of Q-Chem not listed above:
 R. D. Adamson,  B. Austin,  J. Baker,  G. J. O. Beran,  K. Brandhorst,
 S. T. Brown,  E. F. C. Byrd,  A. K. Chakraborty,  C.-L. Cheng,
 Siu Hung Chien,  D. M. Chipman,  D. L. Crittenden,  H. Dachsel,
 R. A. DiStasio Jr.,  R. J. Doerksen,  A. D. Dutoi,  L. Fusti-Molnar,
 W. A. Goddard III,  A. Golubeva-Zadorozhnaya,  S. R. Gwaltney,  G. Hawkins,
 A. Heyden,  S. Hirata,  G. Kedziora,  F. J. Keil,  C. Kelley,  Jihan Kim,
 R. A. King,  R. Z. Khaliullin,  P. P. Korambath,  W. Kurlancheek,
 A. M. Lee,  M. S. Lee,  S. V. Levchenko,  Ching Yeh Lin,  D. Liotard,
 R. C. Lochan,  I. Lotan,  P. E. Maslen,  N. Nair,  D. P. O'Neill,
 D. Neuhauser,  E. Neuscamman,  C. M. Oana,  R. Olson,  B. Peters,
 R. Peverati,  P. A. Pieniazek,  Y. M. Rhee,  J. Ritchie,  M. A. Rohrdanz,
 E. Rosta,  N. J. Russ,  H. F. Schaefer III,  N. E. Schultz,  N. Shenvi,
 A. C. Simmonett,  A. Sodt,  D. Stuck,  K. S. Thanthiriwatte,  V. Vanovschi,
 Tao Wang,  A. Warshel,  C. F. Williams,  Q. Wu,  X. Xu,  W. Zhang

 Please cite Q-Chem as follows:
 Y. Shao et al., Mol. Phys. 113, 184-215 (2015)
 DOI: 10.1080/00268976.2014.952696

 Q-Chem 5.0.0 for Intel X86 EM64T Linux

 Parts of Q-Chem use Armadillo 5.200.1 (Boston Tea Smuggler).
 http://arma.sourceforge.net/

 Q-Chem begins on Wed Oct  4 17:31:11 2017

Host: nid04580
0

     Scratch files written to /global/cscratch1/sd/junteng/scratch/13/opt_1001+o.save//
The previous job contains 0 fragments, simply inherited here

Checking the input file for inconsistencies... 	...done.

--------------------------------------------------------------
User input:
--------------------------------------------------------------

$molecule
   read
$end

$rem
JOBTYPE                   OPT
METHOD                    B3LYP
DFT_D                     D3_OP
BASIS                     6-311++G(d,p)
GEOM_OPT_MAX_CYCLES       500
GEOM_OPT_TOL_GRADIENT     1
GEOM_OPT_TOL_DISPLACEMENT 1
GEOM_OPT_TOL_ENERGY       1
SYMMETRY                  False
THRESH                    12
SCF_CONVERGENCE           8
MAX_SUB_FILE_NUM          128
MEM_STATIC                400
MEM_TOTAL                 4000
$end

--------------------------------------------------------------

    6    -765.8625313768      7.75E-09 Convergence criterion met
 Total energy in the final basis set = -765.8625313768
    6    -765.8625313784      5.76E-09 Convergence criterion met
 Total energy in the final basis set = -765.8625313784
    6    -765.8625313802      4.50E-09 Convergence criterion met
 Total energy in the final basis set = -765.8625313802
    6    -765.8625313812      3.36E-09 Convergence criterion met
 Total energy in the final basis set = -765.8625313812
    5    -765.8625313822      8.59E-09 Convergence criterion met
 Total energy in the final basis set = -765.8625313822
    5    -765.8625313826      6.59E-09 Convergence criterion met
 Total energy in the final basis set = -765.8625313826
 Final energy is   -765.862531382573
        *  Thank you very much for using Q-Chem.  Have a nice day.  *
 Q-Chem 5.0, Q-Chem, Inc., Pleasanton, CA (2017)
 Q-Chem 5.0.0 for Intel X86 EM64T Linux

             Standard Nuclear Orientation (Angstroms)
    I     Atom           X                Y                Z
 ----------------------------------------------------------------
    1      C       0.3757224708    -0.6737794744    -0.5793347986
    2      C       0.6306533219     0.8683739337    -0.4987191968
    3      C      -0.8893274865    -1.1703087635     0.0879545289
    4      C      -0.5219466481     1.7235334686    -0.0004847673
    5      O      -1.2771607016    -2.3398935133    -0.4713932264
    6      O      -1.4601666297    -0.6573410130     1.0163890972
    7      O      -1.5850562454     1.5900003580    -0.8229994288
    8      O      -0.4842204684     2.4802904138     0.9343004795
    9      C      -2.7782633718     2.2879590060    -0.4228733716
   10      C      -2.4324243354    -2.9654762513     0.1186719066
   11      C       1.6182432809    -1.1920185875     0.2173696675
   12      C       2.8981166890    -0.9779604078    -0.6246873195
   13      C       3.1252898756     0.5545864918    -0.4398364416
   14      C       1.8895859513     0.9317544390     0.4020428286
   15      O       1.7395432967    -0.2180465507     1.2536865129
   16      H       0.3842671461    -1.0386569464    -1.6051862165
   17      H       0.8523462043     1.2382434515    -1.5038158387
   18      H      -3.1206835719     1.9105908319     0.5417916944
   19      H      -3.2955242540    -2.3008813539     0.0592273006
   20      H       1.4983633410    -2.1840823014     0.6480764510
   21      H       3.7235120769    -1.5579842786    -0.2097143676
   22      H       2.7661263252    -1.2745783772    -1.6672801052
   23      H       4.0390255237     0.7552378713     0.1212563087
   24      H       3.1772529984     1.1015114082    -1.3833343767
   25      H       1.9613045230     1.8303975122     1.0071031051
   26      H      -2.5889002690     3.3597570434    -0.3490434016
   27      H      -3.5109720879     2.0803454754    -1.1998200902
   28      H      -2.2409680748    -3.2117989173     1.1641770225
   29      H      -2.6025623794    -3.8681621052    -0.4639231786
 ----------------------------------------------------------------

   15    -765.8625185296      3.44E-09 Convergence criterion met
 Total energy in the final basis set = -765.8625185296

                    Orbital Energies (a.u.)
 --------------------------------------------------------------

 Alpha MOs
 -- Occupied --
-19.178 -19.168 -19.131 -19.119 -19.111 -10.308 -10.302 -10.240
-10.232 -10.229 -10.223 -10.207 -10.203 -10.183 -10.180  -1.118
 -1.109  -1.064  -1.031  -1.023  -0.831  -0.784  -0.777  -0.738
 -0.725  -0.654  -0.605  -0.597  -0.577  -0.560  -0.546  -0.519
 -0.504  -0.492  -0.488  -0.485  -0.478  -0.471  -0.459  -0.430
 -0.421  -0.420  -0.413  -0.396  -0.386  -0.374  -0.368  -0.367
 -0.360  -0.358  -0.339  -0.333  -0.320  -0.307  -0.291  -0.281
 -0.272

          Ground-State Mulliken Net Atomic Charges

     Atom                 Charge (a.u.)
  ----------------------------------------
      1 C                     0.102733
      2 C                     0.095240
      3 C                    -0.677071
      4 C                    -0.420858
      5 O                    -0.023306
      6 O                    -0.200899
      7 O                    -0.044039
      8 O                    -0.218740
      9 C                    -0.188527
     10 C                    -0.236071
     11 C                     0.338541
     12 C                    -0.475782
     13 C                    -0.445211
     14 C                    -0.163936
     15 O                    -0.144936
     16 H                     0.286789
     17 H                     0.233599
     18 H                     0.190422
     19 H                     0.172103
     20 H                     0.265273
     21 H                     0.180522
     22 H                     0.122276
     23 H                     0.192266
     24 H                     0.125343
     25 H                     0.284969
     26 H                     0.166385
     27 H                     0.148837
     28 H                     0.182329
     29 H                     0.151751
  ----------------------------------------
  Sum of atomic charges =     0.000000

                    Cartesian Multipole Moments
 -----------------------------------------------------------------
    Charge (ESU x 10^10)
                 0.0000
    Dipole Moment (Debye)
         X      -0.1018      Y      -2.0852      Z      -3.7699
       Tot       4.3094
    Quadrupole Moments (Debye-Ang)
        XX     -76.4074     XY       1.9290     YY     -83.6474
        XZ      -1.0293     YZ      -5.1984     ZZ     -95.4150

 Frequency:        22.33                  61.69                  82.52
 Force Cnst:      0.0015                 0.0084                 0.0208
 Red. Mass:       4.9645                 3.7386                 5.1818
 IR Intens:        0.580                  0.790                  3.135
 Frequency:        88.56                 109.97                 138.66
 Force Cnst:      0.0137                 0.0104                 0.0215
 Red. Mass:       2.9576                 1.4529                 1.8957
 IR Intens:        1.100                  0.952                  0.340
 Frequency:       142.52                 146.96                 194.61
 Force Cnst:      0.0260                 0.0224                 0.0906
 Red. Mass:       2.1690                 1.7570                 4.0614
 IR Intens:        1.808                  1.243                  0.278
 Frequency:       217.38                 243.22                 273.85
 Force Cnst:      0.1449                 0.1182                 0.2229
 Red. Mass:       5.2049                 3.3900                 5.0455
 IR Intens:        2.121                  3.622                  7.515
 Frequency:       294.41                 329.13                 336.65
 Force Cnst:      0.1573                 0.2302                 0.2827
 Red. Mass:       3.0806                 3.6069                 4.2335
 IR Intens:        5.683                  4.127                 12.542
 Frequency:       372.66                 465.49                 563.62
 Force Cnst:      0.4662                 0.6392                 0.8113
 Red. Mass:       5.6972                 5.0070                 4.3345
 IR Intens:        9.931                 10.128                 22.143
 Frequency:       629.50                 657.63                 690.68
 Force Cnst:      1.4733                 1.1514                 1.6275
 Red. Mass:       6.3102                 4.5186                 5.7907
 IR Intens:       13.227                  1.171                  4.181
 Frequency:       740.82                 797.90                 816.51
 Force Cnst:      1.7787                 1.6740                 0.9370
 Red. Mass:       5.5009                 4.4627                 2.3853
 IR Intens:        7.447                  7.318                  6.455
 Frequency:       829.57                 836.92                 860.36
 Force Cnst:      1.2550                 2.0381                 1.5816
 Red. Mass:       3.0951                 4.9387                 3.6264
 IR Intens:       19.595                  2.663                  1.885
 Frequency:       898.43                 908.03                 916.04
 Force Cnst:      1.2620                 1.3444                 1.5324
 Red. Mass:       2.6537                 2.7675                 3.0995
 IR Intens:        3.114                 12.047                  3.932
 Frequency:       934.86                 958.39                 973.64
 Force Cnst:      1.6878                 3.0570                 1.3362
 Red. Mass:       3.2778                 5.6489                 2.3923
 IR Intens:       25.684                 33.804                 18.436
 Frequency:       984.65                1016.11                1027.23
 Force Cnst:      2.5065                 1.9873                 2.3295
 Red. Mass:       4.3879                 3.2669                 3.7470
 IR Intens:        4.014                 29.614                 20.031
 Frequency:      1066.65                1072.37                1073.33
 Force Cnst:      2.3385                 1.7036                 1.3315
 Red. Mass:       3.4885                 2.5143                 1.9616
 IR Intens:       33.897                 11.042                 20.894
 Frequency:      1163.16                1171.36                1174.08
 Force Cnst:      1.0047                 1.0921                 1.1411
 Red. Mass:       1.2604                 1.3509                 1.4050
 IR Intens:       52.356                 24.788                 47.149
 Frequency:      1177.11                1200.93                1207.83
 Force Cnst:      1.6116                 1.3026                 1.4836
 Red. Mass:       1.9741                 1.5329                 1.7261
 IR Intens:      179.325                  3.610                113.575
 Frequency:      1212.13                1216.83                1232.13
 Force Cnst:      1.3858                 1.6837                 1.0908
 Red. Mass:       1.6008                 1.9300                 1.2195
 IR Intens:       61.784                244.895                 19.303
 Frequency:      1242.12                1248.97                1282.55
 Force Cnst:      1.3477                 1.4413                 1.2145
 Red. Mass:       1.4826                 1.5682                 1.2531
 IR Intens:       20.533                 25.957                  2.875
 Frequency:      1287.15                1314.10                1319.44
 Force Cnst:      1.5188                 1.4358                 1.5006
 Red. Mass:       1.5560                 1.4112                 1.4630
 IR Intens:       19.995                  1.809                 41.608
 Frequency:      1352.28                1372.70                1388.50
 Force Cnst:      1.6864                 1.7925                 1.9699
 Red. Mass:       1.5652                 1.6146                 1.7342
 IR Intens:       28.987                 80.513                 36.953
 Frequency:      1469.73                1471.54                1482.62
 Force Cnst:      1.5229                 1.5309                 1.3532
 Red. Mass:       1.1966                 1.1999                 1.0449
 IR Intens:       17.665                 12.639                  8.926
 Frequency:      1484.85                1490.98                1497.44
 Force Cnst:      1.3549                 1.4170                 1.3849
 Red. Mass:       1.0430                 1.0819                 1.0483
 IR Intens:       10.240                  2.436                 11.014
 Frequency:      1499.44                1511.57                1794.98
 Force Cnst:      1.3853                 1.4819                21.7368
 Red. Mass:       1.0458                 1.1008                11.4505
 IR Intens:        7.854                  6.053                 67.078
 Frequency:      1804.34                3049.81                3050.35
 Force Cnst:     21.9697                 5.6425                 5.6427
 Red. Mass:      11.4535                 1.0296                 1.0293
 IR Intens:      388.821                 27.483                 42.778
 Frequency:      3056.77                3061.21                3067.75
 Force Cnst:      5.8633                 5.9354                 5.8941
 Red. Mass:       1.0650                 1.0750                 1.0630
 IR Intens:       14.737                 15.746                 36.137
 Frequency:      3096.28                3111.51                3117.81
 Force Cnst:      6.2524                 6.2500                 6.2827
 Red. Mass:       1.1069                 1.0957                 1.0970
 IR Intens:        0.731                 11.570                 33.048
 Frequency:      3122.96                3125.24                3130.26
 Force Cnst:      6.3615                 6.3721                 6.2922
 Red. Mass:       1.1071                 1.1073                 1.0899
 IR Intens:       18.257                 15.332                 22.393
 Frequency:      3154.16                3157.23                3163.02
 Force Cnst:      6.4859                 6.4973                 6.4287
 Red. Mass:       1.1065                 1.1063                 1.0906
 IR Intens:       13.956                 14.426                  5.769

 STANDARD THERMODYNAMIC QUANTITIES AT   298.15 K  AND     1.00 ATM

   This Molecule has  0 Imaginary Frequencies
   Zero point vibrational energy:      149.117 kcal/mol

   Atom    1 Element C  Has Mass   12.00000
   Atom    2 Element C  Has Mass   12.00000
   Atom    3 Element C  Has Mass   12.00000
   Atom    4 Element C  Has Mass   12.00000
   Atom    5 Element O  Has Mass   15.99491
   Atom    6 Element O  Has Mass   15.99491
   Atom    7 Element O  Has Mass   15.99491
   Atom    8 Element O  Has Mass   15.99491
   Atom    9 Element C  Has Mass   12.00000
   Atom   10 Element C  Has Mass   12.00000
   Atom   11 Element C  Has Mass   12.00000
   Atom   12 Element C  Has Mass   12.00000
   Atom   13 Element C  Has Mass   12.00000
   Atom   14 Element C  Has Mass   12.00000
   Atom   15 Element O  Has Mass   15.99491
   Atom   16 Element H  Has Mass    1.00783
   Atom   17 Element H  Has Mass    1.00783
   Atom   18 Element H  Has Mass    1.00783
   Atom   19 Element H  Has Mass    1.00783
   Atom   20 Element H  Has Mass    1.00783
   Atom   21 Element H  Has Mass    1.00783
   Atom   22 Element H  Has Mass    1.00783
   Atom   23 Element H  Has Mass    1.00783
   Atom   24 Element H  Has Mass    1.00783
   Atom   25 Element H  Has Mass    1.00783
   Atom   26 Element H  Has Mass    1.00783
   Atom   27 Element H  Has Mass    1.00783
   Atom   28 Element H  Has Mass    1.00783
   Atom   29 Element H  Has Mass    1.00783
   Molecular Mass:   214.084170 amu
   Principal axes and moments of inertia in amu*Bohr^2:
                             1           2           3
    Eigenvalues --     2434.94816  2993.19023  4690.24794
          X               0.99993     0.00646    -0.01012
          Y              -0.00654     0.99995    -0.00709
          Z               0.01007     0.00716     0.99992
   Rotational Symmetry Number is   1
   The Molecule is an Asymmetric Top
   Translational Enthalpy:        0.889 kcal/mol
   Rotational Enthalpy:           0.889 kcal/mol
   Vibrational Enthalpy:        156.361 kcal/mol
   gas constant (RT):             0.592 kcal/mol
   Translational Entropy:        41.987  cal/mol.K
   Rotational Entropy:           31.902  cal/mol.K
   Vibrational Entropy:          47.925  cal/mol.K

   Total Enthalpy:              158.731 kcal/mol
   Total Entropy:               121.814  cal/mol.K

 Total job time:  7296.85s(wall), 39525.96s(cpu)
        *  Thank you very much for using Q-Chem.  Have a nice day.  *
