 Q-Chem 5.0, Q-Chem, Inc., Pleasanton, CA (2017)
 Q-Chem 5.0.0 for Intel X86 EM64T Linux

User input:
--------------------------------------------------------------
$molecule
0  1
C    0.304  -2.425   0.241
C   -0.187  -2.670   1.539
C    0.664  -1.037  -0.131
C   -0.223  -1.586   2.547
O    1.892  -1.027  -0.706
O   -0.050  -0.071   0.073
O    1.036  -1.102   2.698
O   -1.208  -1.281   3.197
C    1.131  -0.051   3.659
C    2.346   0.277  -1.069
C    0.337  -3.468  -0.713
C   -0.078  -4.750  -0.324
C   -0.556  -4.992   0.965
C   -0.619  -3.961   1.912
H    0.496   0.792   3.371
H    1.683   0.717  -1.820
H   -0.885  -5.997   1.223
H    0.862  -0.417   4.655
H    2.169   0.291   3.685
H    3.345   0.180  -1.503
H    2.413   0.921  -0.186
H   -0.050  -5.576  -1.034
C   -1.153  -4.262   3.286
C    0.800  -3.263  -2.130
H    0.377  -2.346  -2.553
H    0.472  -4.085  -2.776
H    1.893  -3.221  -2.170
H   -2.134  -3.796   3.422
H   -0.464  -3.904   4.057
H   -1.273  -5.340   3.441
$end

$opt
CONSTRAINT
tors    2    1    3    5    130.2
tors    1    2    4    7    -62.3
ENDCONSTRAINT
$end

$rem
JOBTYPE                   OPT
METHOD                    B3LYP
DFT_D                     D3_OP
BASIS                     STO-3G
GEOM_OPT_MAX_CYCLES       500
SYMMETRY                  False
THRESH                    12
SCF_CONVERGENCE           8
MAX_SUB_FILE_NUM          128
MEM_STATIC                400
MEM_TOTAL                 4000
$end

--------------------------------------------------------------

   15    -756.7774928998      6.43E-09 Convergence criterion met
 Total energy in the final basis set = -756.7774928998
   14    -756.8042813053      4.47E-09 Convergence criterion met
 Total energy in the final basis set = -756.8042813053
   14    -756.8071723253      3.15E-09 Convergence criterion met
 Total energy in the final basis set = -756.8071723253
   13    -756.8075171467      3.92E-09 Convergence criterion met
 Total energy in the final basis set = -756.8075171467
   11    -756.8075500650      3.50E-09 Convergence criterion met
 Total energy in the final basis set = -756.8075500650
   11    -756.8075663696      2.80E-09 Convergence criterion met
 Total energy in the final basis set = -756.8075663696
   11    -756.8075847835      2.03E-09 Convergence criterion met
 Total energy in the final basis set = -756.8075847835
   11    -756.8076176101      2.80E-09 Convergence criterion met
 **  OPTIMIZATION CONVERGED  **
 Total job time:  123.35s(wall), 2857.22s(cpu)
        *  Thank you very much for using Q-Chem.  Have a nice day.  *

User input: 2 of 3

nid03058 10.128.12
Q-Chem Developer Version! Running on 10.128.12.*
                  Welcome to Q-Chem
     A Quantum Leap Into The Future Of Chemistry

 Q-Chem 5.0, Q-Chem, Inc., Pleasanton, CA (2017)

 Yihan Shao,  Zhengting Gan,  E. Epifanovsky,  A. T. B. Gilbert,  M. Wormit,
 J. Kussmann,  A. W. Lange,  A. Behn,  Jia Deng,  Xintian Feng,  D. Ghosh,
 M. Goldey,  P. R. Horn,  L. D. Jacobson,  I. Kaliman,  T. Kus,  A. Landau,
 Jie Liu,  E. I. Proynov,  R. M. Richard,  R. P. Steele,  E. J. Sundstrom,
 H. L. Woodcock III,  P. M. Zimmerman,  D. Zuev,  B. Albrecht,  E. Alguire,
 S. A. Baeppler,  Z. Benda,  Y. A. Bernard,  E. J. Berquist,  K. B. Bravaya,
 D. Casanova,  Chun-Min Chang,  Yunqing Chen,  A. Chien,  K. D. Closser,
 M. P. Coons,  S. Dasgupta,  M. Diedenhofen,  Hainam Do,  R. G. Edgar,
 Po-Tung Fang,  S. Fatehi,  Qingguo Feng,  Qinghui Ge,  A. Ghysels,
 J. Gomes,  J. Gonthier,  A. Gunina,  M. W. D. Hanson-Heine,
 P. H. P. Harbach,  A. W. Hauser,  J. E. Herr,  E. G. Hohenstein,
 Z. C. Holden,  Kerwin Hui,  T.-C. Jagau,  Hyunjun Ji,  B. Kaduk,
 K. Khistyaev,  Jaehoon Kim,  P. Klunzinger,  K. Koh,  D. Kosenkov,
 T. Kowalczyk,  C. M. Krauter,  A. Kunitsa,  Ka Un Lao,  A. Laurent,
 K. V. Lawler,  Joonho Lee,  D. Lefrancois,  S. Lehtola,  D. S. Levine,
 Yi-Pei Li,  You-Sheng Lin,  Fenglai Liu,  E. Livshits,  A. Luenser,
 P. Manohar,  E. Mansoor,  S. F. Manzer,  Shan-Ping Mao,  Yuezhi Mao,
 N. Mardirossian,  A. V. Marenich,  L. A. Martinez-Martinez,  S. A. Maurer,
 N. J. Mayhall,  S. C. McKenzie,  J.-M. Mewes,  A. F. Morrison,  K. Nanda,
 T. S. Nguyen-Beck,  R. Olivares-Amaya,  J. A. Parkhill,  T. M. Perrine,
 F. Plasser,  S. Prager,  A. Prociuk,  D. R. Rehn,  F. Rob,  M. Schneider,
 N. Sergueev,  S. M. Sharada,  S. Sharma,  D. W. Small,  T. Stauch,
 T. Stein,  Yu-Chuan Su,  A. J. W. Thom,  T. Tsuchimochi,  L. Vogt,
 O. Vydrov,  M. A. Watson,  J. Wenzel,  M. de Wergifosse,  T. A. Wesolowski,
 A. White,  J. Witte,  A. Yamada,  Jun Yang,  K. Yao,  S. Yeganeh,
 S. R. Yost,  Zhi-Qiang You,  A. Zech,  Igor Ying Zhang,  Xing Zhang,
 Yan Zhao,  Ying Zhu,  B. R. Brooks,  G. K. L. Chan,  C. J. Cramer,
 M. S. Gordon,  W. J. Hehre,  A. Klamt,  M. W. Schmidt,  C. D. Sherrill,
 D. G. Truhlar,  A. Aspuru-Guzik,  R. Baer,  A. T. Bell,  N. A. Besley,
 Jeng-Da Chai,  A. Dreuw,  B. D. Dunietz,  T. R. Furlani,  Chao-Ping Hsu,
 Yousung Jung,  Jing Kong,  D. S. Lambrecht,  WanZhen Liang,  C. Ochsenfeld,
 V. A. Rassolov,  L. V. Slipchenko,  J. E. Subotnik,  T. Van Voorhis,
 J. M. Herbert,  A. I. Krylov,  P. M. W. Gill,  M. Head-Gordon

 Contributors to earlier versions of Q-Chem not listed above:
 R. D. Adamson,  B. Austin,  J. Baker,  G. J. O. Beran,  K. Brandhorst,
 S. T. Brown,  E. F. C. Byrd,  A. K. Chakraborty,  C.-L. Cheng,
 Siu Hung Chien,  D. M. Chipman,  D. L. Crittenden,  H. Dachsel,
 R. A. DiStasio Jr.,  R. J. Doerksen,  A. D. Dutoi,  L. Fusti-Molnar,
 W. A. Goddard III,  A. Golubeva-Zadorozhnaya,  S. R. Gwaltney,  G. Hawkins,
 A. Heyden,  S. Hirata,  G. Kedziora,  F. J. Keil,  C. Kelley,  Jihan Kim,
 R. A. King,  R. Z. Khaliullin,  P. P. Korambath,  W. Kurlancheek,
 A. M. Lee,  M. S. Lee,  S. V. Levchenko,  Ching Yeh Lin,  D. Liotard,
 R. C. Lochan,  I. Lotan,  P. E. Maslen,  N. Nair,  D. P. O'Neill,
 D. Neuhauser,  E. Neuscamman,  C. M. Oana,  R. Olson,  B. Peters,
 R. Peverati,  P. A. Pieniazek,  Y. M. Rhee,  J. Ritchie,  M. A. Rohrdanz,
 E. Rosta,  N. J. Russ,  H. F. Schaefer III,  N. E. Schultz,  N. Shenvi,
 A. C. Simmonett,  A. Sodt,  D. Stuck,  K. S. Thanthiriwatte,  V. Vanovschi,
 Tao Wang,  A. Warshel,  C. F. Williams,  Q. Wu,  X. Xu,  W. Zhang

 Please cite Q-Chem as follows:
 Y. Shao et al., Mol. Phys. 113, 184-215 (2015)
 DOI: 10.1080/00268976.2014.952696

 Q-Chem 5.0.0 for Intel X86 EM64T Linux

 Parts of Q-Chem use Armadillo 5.200.1 (Boston Tea Smuggler).
 http://arma.sourceforge.net/

 Q-Chem begins on Wed Oct  4 18:28:29 2017

Host: nid03058
0

     Scratch files written to /global/cscratch1/sd/junteng/scratch/18/opt_11n11--.save//
The previous job contains 0 fragments, simply inherited here

Checking the input file for inconsistencies... 	...done.

--------------------------------------------------------------
User input:
--------------------------------------------------------------

$molecule
   read
$end

$rem
JOBTYPE                   OPT
METHOD                    B3LYP
DFT_D                     D3_OP
BASIS                     6-311++G(d,p)
GEOM_OPT_MAX_CYCLES       500
GEOM_OPT_TOL_GRADIENT     1
GEOM_OPT_TOL_DISPLACEMENT 1
GEOM_OPT_TOL_ENERGY       1
SYMMETRY                  False
THRESH                    12
SCF_CONVERGENCE           8
MAX_SUB_FILE_NUM          128
MEM_STATIC                400
MEM_TOTAL                 4000
$end

--------------------------------------------------------------

    8    -766.8750740138      2.89E-09 Convergence criterion met
 Total energy in the final basis set = -766.8750740138
    7    -766.8750742888      4.20E-09 Convergence criterion met
 Total energy in the final basis set = -766.8750742888
    5    -766.8750742693      9.27E-09 Convergence criterion met
 Total energy in the final basis set = -766.8750742693
    4    -766.8750742957      9.73E-09 Convergence criterion met
 Total energy in the final basis set = -766.8750742957
    4    -766.8750742854      9.23E-09 Convergence criterion met
 Total energy in the final basis set = -766.8750742854
    4    -766.8750742907      9.27E-09 Convergence criterion met
 Total energy in the final basis set = -766.8750742907
 Final energy is   -766.875074290714
        *  Thank you very much for using Q-Chem.  Have a nice day.  *
 Q-Chem 5.0, Q-Chem, Inc., Pleasanton, CA (2017)
 Q-Chem 5.0.0 for Intel X86 EM64T Linux

             Standard Nuclear Orientation (Angstroms)
    I     Atom           X                Y                Z
 ----------------------------------------------------------------
    1      C       0.1673311628    -0.7403016430    -0.0936659248
    2      C      -0.9823368976     0.0681392817    -0.0317298402
    3      C       1.4974980780    -0.1058395545    -0.3763099623
    4      C      -0.8620517446     1.5551613354    -0.1467161374
    5      O       2.3957291319    -0.3736920823     0.5887917598
    6      O       1.7468114083     0.5425711917    -1.3641507507
    7      O       0.1379056621     2.0303548329     0.6259336679
    8      O      -1.5736649654     2.2578742143    -0.8224162935
    9      C       0.4417016775     3.4282133436     0.4707112686
   10      C       3.7118043292     0.1743217060     0.3871645942
   11      C       0.0721024660    -2.1392017696    -0.0137741743
   12      C      -1.1989386754    -2.6924804057     0.1487961494
   13      C      -2.3334313699    -1.8950912670     0.2262640312
   14      C      -2.2580709419    -0.5047817176     0.1271141331
   15      H       0.7791336036     3.6228764524    -0.5485742094
   16      H       4.1516614936    -0.2164728576    -0.5317239779
   17      H      -3.3040089491    -2.3613391041     0.3589896424
   18      H      -0.4364227323     4.0379397073     0.6863623508
   19      H       1.2365201316     3.6322995443     1.1847133874
   20      H       4.2905954539    -0.1357456486     1.2541729324
   21      H       3.6616287784     1.2623102738     0.3262024684
   22      H      -1.3015620626    -3.7710108353     0.2083413226
   23      C      -3.5245604142     0.3146202692     0.2002179832
   24      C       1.2780255734    -3.0423821703    -0.1239981527
   25      H       1.9105568032    -2.7695318241    -0.9728489392
   26      H       0.9653694103    -4.0790987466    -0.2609726129
   27      H       1.8976747318    -2.9859909668     0.7741381353
   28      H      -3.7576950906     0.7632412918    -0.7675508656
   29      H      -3.4395811513     1.1367792877     0.9147385993
   30      H      -4.3625597761    -0.3153862765     0.5043008909
 ----------------------------------------------------------------

   15    -766.8749712399      8.84E-09 Convergence criterion met
 Total energy in the final basis set = -766.8749712399

                    Orbital Energies (a.u.)
 --------------------------------------------------------------

 Alpha MOs
 -- Occupied --
-19.178 -19.173 -19.120 -19.116 -10.312 -10.308 -10.233 -10.227
-10.205 -10.203 -10.201 -10.200 -10.187 -10.185 -10.176 -10.168
 -1.121  -1.114  -1.032  -1.028  -0.885  -0.808  -0.792  -0.748
 -0.732  -0.726  -0.674  -0.648  -0.620  -0.576  -0.568  -0.531
 -0.519  -0.513  -0.489  -0.488  -0.480  -0.477  -0.469  -0.441
 -0.436  -0.428  -0.423  -0.415  -0.412  -0.406  -0.396  -0.388
 -0.381  -0.372  -0.360  -0.358  -0.357  -0.320  -0.312  -0.298
 -0.287  -0.265  -0.253

          Ground-State Mulliken Net Atomic Charges

     Atom                 Charge (a.u.)
  ----------------------------------------
      1 C                     0.451904
      2 C                     0.547506
      3 C                    -0.910623
      4 C                    -0.456597
      5 O                     0.040205
      6 O                    -0.130291
      7 O                    -0.005869
      8 O                    -0.194902
      9 C                    -0.223685
     10 C                    -0.212759
     11 C                     0.614649
     12 C                    -0.552042
     13 C                    -0.659085
     14 C                     0.512707
     15 H                     0.194865
     16 H                     0.185330
     17 H                     0.125865
     18 H                     0.174554
     19 H                     0.150536
     20 H                     0.158677
     21 H                     0.158043
     22 H                     0.131490
     23 C                    -0.564028
     24 C                    -0.574483
     25 H                     0.175551
     26 H                     0.151310
     27 H                     0.192688
     28 H                     0.204044
     29 H                     0.174924
     30 H                     0.139514
  ----------------------------------------
  Sum of atomic charges =     0.000000

                    Cartesian Multipole Moments
 -----------------------------------------------------------------
    Charge (ESU x 10^10)
                 0.0000
    Dipole Moment (Debye)
         X       1.5419      Y      -1.4815      Z       2.4780
       Tot       3.2730
    Quadrupole Moments (Debye-Ang)
        XX     -82.3219     XY       5.3651     YY     -84.4937
        XZ       0.2256     YZ       5.7790     ZZ    -102.0833

 Frequency:        21.65                  53.41                  69.20
 Force Cnst:      0.0015                 0.0069                 0.0114
 Red. Mass:       5.3874                 4.0867                 4.0345
 IR Intens:        0.390                  0.058                  3.376
 Frequency:        79.20                 110.60                 117.68
 Force Cnst:      0.0106                 0.0105                 0.0196
 Red. Mass:       2.8779                 1.4539                 2.4000
 IR Intens:        3.281                  0.539                  0.681
 Frequency:       127.23                 136.96                 141.31
 Force Cnst:      0.0254                 0.0160                 0.0130
 Red. Mass:       2.6588                 1.4508                 1.1060
 IR Intens:        5.063                  0.307                  0.121
 Frequency:       147.16                 153.61                 219.59
 Force Cnst:      0.0180                 0.0192                 0.1447
 Red. Mass:       1.4099                 1.3793                 5.0914
 IR Intens:        0.105                  0.690                  0.255
 Frequency:       240.78                 250.20                 291.35
 Force Cnst:      0.2008                 0.1672                 0.1566
 Red. Mass:       5.8772                 4.5336                 3.1317
 IR Intens:        0.780                  3.750                  1.207
 Frequency:       303.83                 314.45                 322.76
 Force Cnst:      0.2614                 0.2307                 0.2253
 Red. Mass:       4.8052                 3.9605                 3.6705
 IR Intens:        4.694                 10.809                  7.768
 Frequency:       368.35                 401.14                 424.02
 Force Cnst:      0.4581                 0.3689                 0.5298
 Red. Mass:       5.7302                 3.8909                 5.0015
 IR Intens:        5.233                  6.636                  1.145
 Frequency:       486.65                 494.88                 555.71
 Force Cnst:      0.5980                 0.5390                 0.7877
 Red. Mass:       4.2857                 3.7354                 4.3290
 IR Intens:        1.302                  9.939                  1.892
 Frequency:       616.56                 712.58                 725.56
 Force Cnst:      1.0651                 1.8463                 1.9474
 Red. Mass:       4.7553                 6.1715                 6.2786
 IR Intens:        7.154                  1.262                  0.344
 Frequency:       735.84                 798.91                 805.85
 Force Cnst:      1.9906                 2.1440                 2.3452
 Red. Mass:       6.2396                 5.7013                 6.1294
 IR Intens:       23.611                  6.966                 10.244
 Frequency:       814.54                 830.93                 890.03
 Force Cnst:      2.6687                 0.5270                 2.6342
 Red. Mass:       6.8270                 1.2954                 5.6440
 IR Intens:        9.874                 18.846                  4.969
 Frequency:       922.14                 969.24                 988.64
 Force Cnst:      2.1839                 0.7385                 1.5109
 Red. Mass:       4.3591                 1.3343                 2.6237
 IR Intens:        9.764                  0.144                  5.626
 Frequency:       997.42                1047.03                1055.84
 Force Cnst:      2.8177                 1.0046                 1.4886
 Red. Mass:       4.8072                 1.5554                 2.2663
 IR Intens:       12.236                  4.226                 56.672
 Frequency:      1059.51                1062.94                1133.99
 Force Cnst:      1.0859                 1.0153                 4.0180
 Red. Mass:       1.6418                 1.5252                 5.3033
 IR Intens:        7.982                  3.788                 88.794
 Frequency:      1169.73                1170.87                1184.59
 Force Cnst:      1.0363                 1.0401                 1.2835
 Red. Mass:       1.2854                 1.2877                 1.5524
 IR Intens:        0.402                  2.068                 96.069
 Frequency:      1202.53                1210.57                1222.51
 Force Cnst:      1.5370                 1.3698                 2.8250
 Red. Mass:       1.8040                 1.5865                 3.2083
 IR Intens:       18.362                 12.576                292.293
 Frequency:      1275.21                1287.54                1293.01
 Force Cnst:      1.8464                 5.9553                 4.0082
 Red. Mass:       1.9272                 6.0972                 4.0690
 IR Intens:       15.810                175.128                210.374
 Frequency:      1315.81                1418.95                1420.97
 Force Cnst:      6.4581                 1.4704                 1.4792
 Red. Mass:       6.3310                 1.2395                 1.2434
 IR Intens:       47.330                  1.340                  4.880
 Frequency:      1432.72                1465.38                1468.51
 Force Cnst:      3.4854                 1.5192                 1.5967
 Red. Mass:       2.8819                 1.2008                 1.2567
 IR Intens:       52.162                 10.828                 47.560
 Frequency:      1481.21                1482.29                1484.02
 Force Cnst:      1.4193                 1.3998                 1.3597
 Red. Mass:       1.0979                 1.0813                 1.0479
 IR Intens:        3.679                  3.394                 17.690
 Frequency:      1486.78                1490.94                1495.83
 Force Cnst:      1.4113                 1.4403                 1.3896
 Red. Mass:       1.0836                 1.0997                 1.0541
 IR Intens:        0.136                 10.262                 15.629
 Frequency:      1496.93                1501.60                1503.43
 Force Cnst:      1.3926                 1.6652                 2.6542
 Red. Mass:       1.0548                 1.2534                 1.9930
 IR Intens:        3.106                  6.543                 20.082
 Frequency:      1608.74                1633.23                1771.97
 Force Cnst:      8.1753                11.1175                21.8586
 Red. Mass:       5.3614                 7.0740                11.8157
 IR Intens:       12.921                  2.395                120.261
 Frequency:      1778.81                3035.80                3041.04
 Force Cnst:     21.8146                 5.6255                 5.6424
 Red. Mass:      11.7015                 1.0360                 1.0355
 IR Intens:      397.707                 24.731                 22.954
 Frequency:      3050.36                3050.67                3091.72
 Force Cnst:      5.6430                 5.6447                 6.1962
 Red. Mass:       1.0293                 1.0294                 1.1002
 IR Intens:       15.531                 52.612                 11.212
 Frequency:      3099.46                3108.25                3111.21
 Force Cnst:      6.2269                 6.2743                 6.2902
 Red. Mass:       1.1002                 1.1023                 1.1030
 IR Intens:       11.385                 17.195                 14.206
 Frequency:      3122.77                3125.98                3156.44
 Force Cnst:      6.3594                 6.3748                 6.4950
 Red. Mass:       1.1068                 1.1072                 1.1065
 IR Intens:       17.883                 13.654                 13.147
 Frequency:      3158.23                3160.77                3177.83
 Force Cnst:      6.5017                 6.3991                 6.5127
 Red. Mass:       1.1063                 1.0871                 1.0946
 IR Intens:       12.613                  8.194                 20.379

 STANDARD THERMODYNAMIC QUANTITIES AT   298.15 K  AND     1.00 ATM

   This Molecule has  0 Imaginary Frequencies
   Zero point vibrational energy:      150.455 kcal/mol

   Atom    1 Element C  Has Mass   12.00000
   Atom    2 Element C  Has Mass   12.00000
   Atom    3 Element C  Has Mass   12.00000
   Atom    4 Element C  Has Mass   12.00000
   Atom    5 Element O  Has Mass   15.99491
   Atom    6 Element O  Has Mass   15.99491
   Atom    7 Element O  Has Mass   15.99491
   Atom    8 Element O  Has Mass   15.99491
   Atom    9 Element C  Has Mass   12.00000
   Atom   10 Element C  Has Mass   12.00000
   Atom   11 Element C  Has Mass   12.00000
   Atom   12 Element C  Has Mass   12.00000
   Atom   13 Element C  Has Mass   12.00000
   Atom   14 Element C  Has Mass   12.00000
   Atom   15 Element H  Has Mass    1.00783
   Atom   16 Element H  Has Mass    1.00783
   Atom   17 Element H  Has Mass    1.00783
   Atom   18 Element H  Has Mass    1.00783
   Atom   19 Element H  Has Mass    1.00783
   Atom   20 Element H  Has Mass    1.00783
   Atom   21 Element H  Has Mass    1.00783
   Atom   22 Element H  Has Mass    1.00783
   Atom   23 Element C  Has Mass   12.00000
   Atom   24 Element C  Has Mass   12.00000
   Atom   25 Element H  Has Mass    1.00783
   Atom   26 Element H  Has Mass    1.00783
   Atom   27 Element H  Has Mass    1.00783
   Atom   28 Element H  Has Mass    1.00783
   Atom   29 Element H  Has Mass    1.00783
   Atom   30 Element H  Has Mass    1.00783
   Molecular Mass:   222.089260 amu
   Principal axes and moments of inertia in amu*Bohr^2:
                             1           2           3
    Eigenvalues --     2857.71545  3195.21841  5565.52480
          X               0.99994     0.01115     0.00077
          Y              -0.01115     0.99990     0.00824
          Z              -0.00068    -0.00825     0.99997
   Rotational Symmetry Number is   1
   The Molecule is an Asymmetric Top
   Translational Enthalpy:        0.889 kcal/mol
   Rotational Enthalpy:           0.889 kcal/mol
   Vibrational Enthalpy:        159.306 kcal/mol
   gas constant (RT):             0.592 kcal/mol
   Translational Entropy:        42.096  cal/mol.K
   Rotational Entropy:           32.296  cal/mol.K
   Vibrational Entropy:          58.952  cal/mol.K

   Total Enthalpy:              161.676 kcal/mol
   Total Entropy:               133.345  cal/mol.K

 Total job time:  8330.48s(wall), 47113.79s(cpu)
        *  Thank you very much for using Q-Chem.  Have a nice day.  *
