 Q-Chem 5.0, Q-Chem, Inc., Pleasanton, CA (2017)
 Q-Chem 5.0.0 for Intel X86 EM64T Linux

User input:
--------------------------------------------------------------
$molecule
0  1
C    0.656  -1.997   0.550
C   -0.379  -2.055   1.685
C    1.075  -0.633   0.035
C   -0.743  -0.756   2.367
O    2.254  -0.766  -0.643
O    0.466   0.414   0.178
O    0.380  -0.211   2.923
O   -1.879  -0.339   2.537
C    0.159   1.039   3.578
C    2.798   0.433  -1.203
C   -0.074  -2.721  -0.584
C   -0.239  -4.209  -0.268
C   -1.341  -4.194   0.796
C   -1.585  -2.694   0.978
O   -1.425  -2.250  -0.391
H    1.566  -2.528   0.855
H   -0.041  -2.721   2.491
H   -0.505   1.690   2.999
H    2.061   1.233  -1.326
H    0.286  -2.514  -1.595
H   -0.592  -4.755  -1.150
H    0.687  -4.677   0.078
H   -2.237  -4.682   0.398
H   -1.053  -4.703   1.720
H   -2.574  -2.451   1.372
H   -0.249   0.863   4.578
H    1.124   1.543   3.677
H    3.204   0.190  -2.189
H    3.617   0.777  -0.565
$end

$opt
CONSTRAINT
tors    2    1    3    5    162.3
tors    1    2    4    7    -56.6
ENDCONSTRAINT
$end

$rem
JOBTYPE                   OPT
METHOD                    B3LYP
DFT_D                     D3_OP
BASIS                     STO-3G
GEOM_OPT_MAX_CYCLES       500
SYMMETRY                  False
THRESH                    12
SCF_CONVERGENCE           8
MAX_SUB_FILE_NUM          128
MEM_STATIC                400
MEM_TOTAL                 4000
$end

--------------------------------------------------------------

   14    -755.6953363584      6.30E-09 Convergence criterion met
 Total energy in the final basis set = -755.6953363584
   13    -755.7259801732      3.89E-09 Convergence criterion met
 Total energy in the final basis set = -755.7259801732
   13    -755.7313683839      3.42E-09 Convergence criterion met
 Total energy in the final basis set = -755.7313683839
   12    -755.7319027510      3.20E-09 Convergence criterion met
 Total energy in the final basis set = -755.7319027510
   11    -755.7320784426      8.73E-09 Convergence criterion met
 Total energy in the final basis set = -755.7320784426
   11    -755.7321655772      4.86E-09 Convergence criterion met
 Total energy in the final basis set = -755.7321655772
   10    -755.7322174815      8.43E-09 Convergence criterion met
 Total energy in the final basis set = -755.7322174815
   11    -755.7322837260      3.79E-09 Convergence criterion met
 **  OPTIMIZATION CONVERGED  **
 Total job time:  77.39s(wall), 1810.74s(cpu)
        *  Thank you very much for using Q-Chem.  Have a nice day.  *

User input: 2 of 3

nid04596 10.128.18
Q-Chem Developer Version! Running on 10.128.18.*
                  Welcome to Q-Chem
     A Quantum Leap Into The Future Of Chemistry

 Q-Chem 5.0, Q-Chem, Inc., Pleasanton, CA (2017)

 Yihan Shao,  Zhengting Gan,  E. Epifanovsky,  A. T. B. Gilbert,  M. Wormit,
 J. Kussmann,  A. W. Lange,  A. Behn,  Jia Deng,  Xintian Feng,  D. Ghosh,
 M. Goldey,  P. R. Horn,  L. D. Jacobson,  I. Kaliman,  T. Kus,  A. Landau,
 Jie Liu,  E. I. Proynov,  R. M. Richard,  R. P. Steele,  E. J. Sundstrom,
 H. L. Woodcock III,  P. M. Zimmerman,  D. Zuev,  B. Albrecht,  E. Alguire,
 S. A. Baeppler,  Z. Benda,  Y. A. Bernard,  E. J. Berquist,  K. B. Bravaya,
 D. Casanova,  Chun-Min Chang,  Yunqing Chen,  A. Chien,  K. D. Closser,
 M. P. Coons,  S. Dasgupta,  M. Diedenhofen,  Hainam Do,  R. G. Edgar,
 Po-Tung Fang,  S. Fatehi,  Qingguo Feng,  Qinghui Ge,  A. Ghysels,
 J. Gomes,  J. Gonthier,  A. Gunina,  M. W. D. Hanson-Heine,
 P. H. P. Harbach,  A. W. Hauser,  J. E. Herr,  E. G. Hohenstein,
 Z. C. Holden,  Kerwin Hui,  T.-C. Jagau,  Hyunjun Ji,  B. Kaduk,
 K. Khistyaev,  Jaehoon Kim,  P. Klunzinger,  K. Koh,  D. Kosenkov,
 T. Kowalczyk,  C. M. Krauter,  A. Kunitsa,  Ka Un Lao,  A. Laurent,
 K. V. Lawler,  Joonho Lee,  D. Lefrancois,  S. Lehtola,  D. S. Levine,
 Yi-Pei Li,  You-Sheng Lin,  Fenglai Liu,  E. Livshits,  A. Luenser,
 P. Manohar,  E. Mansoor,  S. F. Manzer,  Shan-Ping Mao,  Yuezhi Mao,
 N. Mardirossian,  A. V. Marenich,  L. A. Martinez-Martinez,  S. A. Maurer,
 N. J. Mayhall,  S. C. McKenzie,  J.-M. Mewes,  A. F. Morrison,  K. Nanda,
 T. S. Nguyen-Beck,  R. Olivares-Amaya,  J. A. Parkhill,  T. M. Perrine,
 F. Plasser,  S. Prager,  A. Prociuk,  D. R. Rehn,  F. Rob,  M. Schneider,
 N. Sergueev,  S. M. Sharada,  S. Sharma,  D. W. Small,  T. Stauch,
 T. Stein,  Yu-Chuan Su,  A. J. W. Thom,  T. Tsuchimochi,  L. Vogt,
 O. Vydrov,  M. A. Watson,  J. Wenzel,  M. de Wergifosse,  T. A. Wesolowski,
 A. White,  J. Witte,  A. Yamada,  Jun Yang,  K. Yao,  S. Yeganeh,
 S. R. Yost,  Zhi-Qiang You,  A. Zech,  Igor Ying Zhang,  Xing Zhang,
 Yan Zhao,  Ying Zhu,  B. R. Brooks,  G. K. L. Chan,  C. J. Cramer,
 M. S. Gordon,  W. J. Hehre,  A. Klamt,  M. W. Schmidt,  C. D. Sherrill,
 D. G. Truhlar,  A. Aspuru-Guzik,  R. Baer,  A. T. Bell,  N. A. Besley,
 Jeng-Da Chai,  A. Dreuw,  B. D. Dunietz,  T. R. Furlani,  Chao-Ping Hsu,
 Yousung Jung,  Jing Kong,  D. S. Lambrecht,  WanZhen Liang,  C. Ochsenfeld,
 V. A. Rassolov,  L. V. Slipchenko,  J. E. Subotnik,  T. Van Voorhis,
 J. M. Herbert,  A. I. Krylov,  P. M. W. Gill,  M. Head-Gordon

 Contributors to earlier versions of Q-Chem not listed above:
 R. D. Adamson,  B. Austin,  J. Baker,  G. J. O. Beran,  K. Brandhorst,
 S. T. Brown,  E. F. C. Byrd,  A. K. Chakraborty,  C.-L. Cheng,
 Siu Hung Chien,  D. M. Chipman,  D. L. Crittenden,  H. Dachsel,
 R. A. DiStasio Jr.,  R. J. Doerksen,  A. D. Dutoi,  L. Fusti-Molnar,
 W. A. Goddard III,  A. Golubeva-Zadorozhnaya,  S. R. Gwaltney,  G. Hawkins,
 A. Heyden,  S. Hirata,  G. Kedziora,  F. J. Keil,  C. Kelley,  Jihan Kim,
 R. A. King,  R. Z. Khaliullin,  P. P. Korambath,  W. Kurlancheek,
 A. M. Lee,  M. S. Lee,  S. V. Levchenko,  Ching Yeh Lin,  D. Liotard,
 R. C. Lochan,  I. Lotan,  P. E. Maslen,  N. Nair,  D. P. O'Neill,
 D. Neuhauser,  E. Neuscamman,  C. M. Oana,  R. Olson,  B. Peters,
 R. Peverati,  P. A. Pieniazek,  Y. M. Rhee,  J. Ritchie,  M. A. Rohrdanz,
 E. Rosta,  N. J. Russ,  H. F. Schaefer III,  N. E. Schultz,  N. Shenvi,
 A. C. Simmonett,  A. Sodt,  D. Stuck,  K. S. Thanthiriwatte,  V. Vanovschi,
 Tao Wang,  A. Warshel,  C. F. Williams,  Q. Wu,  X. Xu,  W. Zhang

 Please cite Q-Chem as follows:
 Y. Shao et al., Mol. Phys. 113, 184-215 (2015)
 DOI: 10.1080/00268976.2014.952696

 Q-Chem 5.0.0 for Intel X86 EM64T Linux

 Parts of Q-Chem use Armadillo 5.200.1 (Boston Tea Smuggler).
 http://arma.sourceforge.net/

 Q-Chem begins on Wed Oct  4 17:31:12 2017

Host: nid04596
0

     Scratch files written to /global/cscratch1/sd/junteng/scratch/13/opt_1001o+.save//
The previous job contains 0 fragments, simply inherited here

Checking the input file for inconsistencies... 	...done.

--------------------------------------------------------------
User input:
--------------------------------------------------------------

$molecule
   read
$end

$rem
JOBTYPE                   OPT
METHOD                    B3LYP
DFT_D                     D3_OP
BASIS                     6-311++G(d,p)
GEOM_OPT_MAX_CYCLES       500
GEOM_OPT_TOL_GRADIENT     1
GEOM_OPT_TOL_DISPLACEMENT 1
GEOM_OPT_TOL_ENERGY       1
SYMMETRY                  False
THRESH                    12
SCF_CONVERGENCE           8
MAX_SUB_FILE_NUM          128
MEM_STATIC                400
MEM_TOTAL                 4000
$end

--------------------------------------------------------------

    8    -765.8625589102      5.38E-09 Convergence criterion met
 Total energy in the final basis set = -765.8625589102
    8    -765.8625591797      5.91E-09 Convergence criterion met
 Total energy in the final basis set = -765.8625591797
    8    -765.8625593438      8.07E-09 Convergence criterion met
 Total energy in the final basis set = -765.8625593438
    7    -765.8625593816      8.92E-09 Convergence criterion met
 Total energy in the final basis set = -765.8625593816
    6    -765.8625594066      7.30E-09 Convergence criterion met
 Total energy in the final basis set = -765.8625594066
    6    -765.8625594067      3.57E-09 Convergence criterion met
 Total energy in the final basis set = -765.8625594067
 Final energy is   -765.862559406728
        *  Thank you very much for using Q-Chem.  Have a nice day.  *
 Q-Chem 5.0, Q-Chem, Inc., Pleasanton, CA (2017)
 Q-Chem 5.0.0 for Intel X86 EM64T Linux

             Standard Nuclear Orientation (Angstroms)
    I     Atom           X                Y                Z
 ----------------------------------------------------------------
    1      C       0.3742250487    -0.6556028062    -0.5934446297
    2      C       0.6271827788     0.8839933779    -0.4881342575
    3      C      -0.8822562445    -1.1669378540     0.0772451448
    4      C      -0.5344778563     1.7301104540     0.0029253077
    5      O      -1.2385477791    -2.3560881516    -0.4626448796
    6      O      -1.4706077824    -0.6525034219     0.9937486913
    7      O      -1.5900284904     1.5868566720    -0.8282709929
    8      O      -0.5108515514     2.4850940055     0.9394820836
    9      C      -2.8017594085     2.2521334175    -0.4283283592
   10      C      -2.3765426523    -3.0043831603     0.1363210391
   11      C       1.6187689048    -1.1853915003     0.1906525042
   12      C       2.8997661033    -0.9421643638    -0.6415461141
   13      C       3.1217037862     0.5850973420    -0.4116755276
   14      C       1.8763610927     0.9353397187     0.4275361376
   15      O       1.7280553103    -0.2355465365     1.2510015667
   16      H       0.3759318120    -1.0056693569    -1.6246246911
   17      H       0.8602832273     1.2668343108    -1.4858064482
   18      H      -3.1394315053     1.8576415312     0.5312543283
   19      H      -3.2617965800    -2.3722707193     0.0524837285
   20      H       1.5036057590    -2.1885273393     0.5961964397
   21      H       3.7266656456    -1.5314751809    -0.2432429219
   22      H       2.7697853926    -1.2077423171    -1.6926592007
   23      H       4.0290075598     0.7719054717     0.1644343017
   24      H       3.1813333702     1.1572584519    -1.3396115581
   25      H       1.9359006852     1.8200081318     1.0541880322
   26      H      -2.6409005770     3.3278686163    -0.3451430233
   27      H      -3.5256362357     2.0322702682    -1.2103069457
   28      H      -2.1853596994    -3.2158385003     1.1894763026
   29      H      -2.5113758275    -3.9279316619    -0.4224775697
 ----------------------------------------------------------------

   15    -765.8625355965      3.41E-09 Convergence criterion met
 Total energy in the final basis set = -765.8625355965

                    Orbital Energies (a.u.)
 --------------------------------------------------------------

 Alpha MOs
 -- Occupied --
-19.177 -19.167 -19.131 -19.119 -19.111 -10.308 -10.302 -10.240
-10.232 -10.229 -10.222 -10.207 -10.203 -10.183 -10.180  -1.118
 -1.108  -1.064  -1.031  -1.023  -0.832  -0.784  -0.777  -0.738
 -0.725  -0.654  -0.605  -0.597  -0.577  -0.560  -0.546  -0.520
 -0.504  -0.492  -0.487  -0.485  -0.478  -0.471  -0.459  -0.431
 -0.421  -0.420  -0.412  -0.396  -0.386  -0.374  -0.368  -0.366
 -0.360  -0.358  -0.339  -0.333  -0.320  -0.307  -0.291  -0.281
 -0.273

          Ground-State Mulliken Net Atomic Charges

     Atom                 Charge (a.u.)
  ----------------------------------------
      1 C                     0.056136
      2 C                     0.100519
      3 C                    -0.662632
      4 C                    -0.408217
      5 O                    -0.025345
      6 O                    -0.202270
      7 O                    -0.044559
      8 O                    -0.220176
      9 C                    -0.190761
     10 C                    -0.235686
     11 C                     0.351469
     12 C                    -0.470175
     13 C                    -0.459989
     14 C                    -0.151150
     15 O                    -0.142197
     16 H                     0.285434
     17 H                     0.233968
     18 H                     0.189974
     19 H                     0.172051
     20 H                     0.266459
     21 H                     0.180144
     22 H                     0.123468
     23 H                     0.192378
     24 H                     0.125228
     25 H                     0.286207
     26 H                     0.165982
     27 H                     0.148926
     28 H                     0.183315
     29 H                     0.151498
  ----------------------------------------
  Sum of atomic charges =     0.000000

                    Cartesian Multipole Moments
 -----------------------------------------------------------------
    Charge (ESU x 10^10)
                 0.0000
    Dipole Moment (Debye)
         X      -0.0429      Y      -2.1125      Z      -3.7400
       Tot       4.2956
    Quadrupole Moments (Debye-Ang)
        XX     -76.5657     XY       2.1573     YY     -83.7388
        XZ      -0.9488     YZ      -5.1501     ZZ     -95.2873

 Frequency:        16.27                  60.99                  78.71
 Force Cnst:      0.0006                 0.0062                 0.0064
 Red. Mass:       3.7019                 2.8269                 1.7497
 IR Intens:        0.530                  0.778                  0.755
 Frequency:        84.72                  93.52                 133.00
 Force Cnst:      0.0196                 0.0110                 0.0254
 Red. Mass:       4.6244                 2.1427                 2.4346
 IR Intens:        1.726                  2.682                  0.472
 Frequency:       139.23                 145.12                 196.45
 Force Cnst:      0.0176                 0.0387                 0.0958
 Red. Mass:       1.5393                 3.1174                 4.2127
 IR Intens:        0.892                  2.197                  0.277
 Frequency:       217.35                 243.06                 274.76
 Force Cnst:      0.1466                 0.1165                 0.2221
 Red. Mass:       5.2679                 3.3479                 4.9933
 IR Intens:        2.296                  3.408                  7.860
 Frequency:       294.08                 328.89                 335.63
 Force Cnst:      0.1591                 0.2291                 0.2818
 Red. Mass:       3.1222                 3.5954                 4.2462
 IR Intens:        5.673                  5.624                 11.018
 Frequency:       372.57                 468.73                 563.64
 Force Cnst:      0.4704                 0.6401                 0.8133
 Red. Mass:       5.7518                 4.9449                 4.3452
 IR Intens:        9.947                  9.792                 21.954
 Frequency:       627.29                 657.94                 687.67
 Force Cnst:      1.4651                 1.1639                 1.5802
 Red. Mass:       6.3194                 4.5636                 5.6714
 IR Intens:       13.775                  1.292                  4.103
 Frequency:       741.51                 796.99                 816.30
 Force Cnst:      1.7798                 1.6078                 0.9161
 Red. Mass:       5.4939                 4.2961                 2.3334
 IR Intens:        7.658                  7.001                  6.076
 Frequency:       828.56                 836.07                 860.81
 Force Cnst:      1.3410                 1.9250                 1.6080
 Red. Mass:       3.3154                 4.6739                 3.6831
 IR Intens:       19.976                  3.253                  2.049
 Frequency:       897.99                 908.93                 915.62
 Force Cnst:      1.2665                 1.3522                 1.5264
 Red. Mass:       2.6658                 2.7779                 3.0902
 IR Intens:        3.395                 11.622                  4.088
 Frequency:       934.77                 958.10                 974.66
 Force Cnst:      1.6892                 3.0917                 1.3264
 Red. Mass:       3.2811                 5.7164                 2.3699
 IR Intens:       25.933                 33.782                 17.211
 Frequency:       984.35                1015.47                1026.60
 Force Cnst:      2.5147                 2.0074                 2.3085
 Red. Mass:       4.4050                 3.3042                 3.7178
 IR Intens:        3.860                 30.213                 18.446
 Frequency:      1067.85                1073.01                1073.53
 Force Cnst:      2.3344                 1.3414                 1.6820
 Red. Mass:       3.4747                 1.9774                 2.4772
 IR Intens:       35.197                 22.604                 11.492
 Frequency:      1163.04                1171.48                1173.15
 Force Cnst:      1.0086                 1.0921                 1.0887
 Red. Mass:       1.2656                 1.3507                 1.3426
 IR Intens:       54.735                 24.733                 25.909
 Frequency:      1177.14                1200.62                1208.07
 Force Cnst:      1.7129                 1.2981                 1.4657
 Red. Mass:       2.0981                 1.5284                 1.7046
 IR Intens:      203.691                  3.260                 95.306
 Frequency:      1211.59                1216.09                1230.58
 Force Cnst:      1.3837                 1.7379                 1.0914
 Red. Mass:       1.5999                 1.9945                 1.2233
 IR Intens:       60.617                263.019                 21.444
 Frequency:      1242.17                1248.58                1282.26
 Force Cnst:      1.3663                 1.4365                 1.2175
 Red. Mass:       1.5029                 1.5639                 1.2568
 IR Intens:       23.124                 25.532                  3.640
 Frequency:      1287.30                1313.88                1319.91
 Force Cnst:      1.5169                 1.4325                 1.4958
 Red. Mass:       1.5536                 1.4085                 1.4573
 IR Intens:       17.884                  1.854                 38.081
 Frequency:      1352.95                1372.81                1389.11
 Force Cnst:      1.6827                 1.7988                 1.9575
 Red. Mass:       1.5603                 1.6200                 1.7218
 IR Intens:       25.321                 79.519                 36.909
 Frequency:      1470.06                1470.78                1481.91
 Force Cnst:      1.5196                 1.5323                 1.3517
 Red. Mass:       1.1935                 1.2023                 1.0447
 IR Intens:       19.432                 10.593                  8.969
 Frequency:      1484.45                1489.62                1497.13
 Force Cnst:      1.3545                 1.4144                 1.3848
 Red. Mass:       1.0433                 1.0818                 1.0486
 IR Intens:       10.110                  2.298                 11.199
 Frequency:      1499.04                1510.91                1795.87
 Force Cnst:      1.3841                 1.4805                21.8433
 Red. Mass:       1.0454                 1.1007                11.4952
 IR Intens:        7.548                  6.055                 68.908
 Frequency:      1805.03                3049.57                3049.85
 Force Cnst:     22.0327                 5.6406                 5.6417
 Red. Mass:      11.4776                 1.0294                 1.0294
 IR Intens:      391.802                 22.476                 48.131
 Frequency:      3056.94                3061.19                3067.77
 Force Cnst:      5.8669                 5.9335                 5.8918
 Red. Mass:       1.0656                 1.0747                 1.0626
 IR Intens:       13.916                 16.474                 36.038
 Frequency:      3096.89                3111.22                3117.63
 Force Cnst:      6.2548                 6.2374                 6.2936
 Red. Mass:       1.1069                 1.0937                 1.0990
 IR Intens:        0.876                  9.120                 34.966
 Frequency:      3122.54                3124.84                3130.86
 Force Cnst:      6.3595                 6.3710                 6.2946
 Red. Mass:       1.1070                 1.1074                 1.0899
 IR Intens:       18.541                 15.508                 22.146
 Frequency:      3153.12                3155.93                3162.58
 Force Cnst:      6.4813                 6.4916                 6.4270
 Red. Mass:       1.1065                 1.1062                 1.0906
 IR Intens:       14.016                 14.395                  5.669

 STANDARD THERMODYNAMIC QUANTITIES AT   298.15 K  AND     1.00 ATM

   This Molecule has  0 Imaginary Frequencies
   Zero point vibrational energy:      149.043 kcal/mol

   Atom    1 Element C  Has Mass   12.00000
   Atom    2 Element C  Has Mass   12.00000
   Atom    3 Element C  Has Mass   12.00000
   Atom    4 Element C  Has Mass   12.00000
   Atom    5 Element O  Has Mass   15.99491
   Atom    6 Element O  Has Mass   15.99491
   Atom    7 Element O  Has Mass   15.99491
   Atom    8 Element O  Has Mass   15.99491
   Atom    9 Element C  Has Mass   12.00000
   Atom   10 Element C  Has Mass   12.00000
   Atom   11 Element C  Has Mass   12.00000
   Atom   12 Element C  Has Mass   12.00000
   Atom   13 Element C  Has Mass   12.00000
   Atom   14 Element C  Has Mass   12.00000
   Atom   15 Element O  Has Mass   15.99491
   Atom   16 Element H  Has Mass    1.00783
   Atom   17 Element H  Has Mass    1.00783
   Atom   18 Element H  Has Mass    1.00783
   Atom   19 Element H  Has Mass    1.00783
   Atom   20 Element H  Has Mass    1.00783
   Atom   21 Element H  Has Mass    1.00783
   Atom   22 Element H  Has Mass    1.00783
   Atom   23 Element H  Has Mass    1.00783
   Atom   24 Element H  Has Mass    1.00783
   Atom   25 Element H  Has Mass    1.00783
   Atom   26 Element H  Has Mass    1.00783
   Atom   27 Element H  Has Mass    1.00783
   Atom   28 Element H  Has Mass    1.00783
   Atom   29 Element H  Has Mass    1.00783
   Molecular Mass:   214.084170 amu
   Principal axes and moments of inertia in amu*Bohr^2:
                             1           2           3
    Eigenvalues --     2441.19727  2977.69696  4683.47974
          X               0.99990     0.00967    -0.01006
          Y              -0.00974     0.99993    -0.00725
          Z               0.00999     0.00735     0.99992
   Rotational Symmetry Number is   1
   The Molecule is an Asymmetric Top
   Translational Enthalpy:        0.889 kcal/mol
   Rotational Enthalpy:           0.889 kcal/mol
   Vibrational Enthalpy:        156.336 kcal/mol
   gas constant (RT):             0.592 kcal/mol
   Translational Entropy:        41.987  cal/mol.K
   Rotational Entropy:           31.898  cal/mol.K
   Vibrational Entropy:          49.205  cal/mol.K

   Total Enthalpy:              158.706 kcal/mol
   Total Entropy:               123.091  cal/mol.K

 Total job time:  7299.47s(wall), 40178.03s(cpu)
        *  Thank you very much for using Q-Chem.  Have a nice day.  *
