 Q-Chem 5.0, Q-Chem, Inc., Pleasanton, CA (2017)
 Q-Chem 5.0.0 for Intel X86 EM64T Linux

User input:
--------------------------------------------------------------
$molecule
0  1
C    0.579  -1.978   0.499
C   -0.345  -1.987   1.740
C    0.941  -0.610  -0.048
C   -0.562  -0.630   2.386
O    2.215  -0.645  -0.542
O    0.210   0.366  -0.087
O    0.648  -0.161   2.826
O   -1.631  -0.088   2.617
C    0.572   1.116   3.461
C    2.652   0.593  -1.106
C   -0.242  -2.782  -0.524
C   -0.292  -4.259  -0.098
C   -1.265  -4.223   1.081
C   -1.594  -2.718   1.188
O   -1.591  -2.362  -0.216
H    1.516  -2.494   0.747
H    0.090  -2.606   2.538
H   -0.024   1.052   4.377
H    2.622   1.389  -0.356
H   -0.708  -4.895  -0.888
H    0.690  -4.657   0.174
H   -2.154  -4.811   0.825
H   -0.840  -4.639   1.999
H    1.587   1.422   3.729
H    0.156   1.863   2.777
H    2.039   0.852  -1.975
H    3.687   0.467  -1.436
C   -2.945  -2.478   1.828
H   -3.699  -3.155   1.411
H   -2.911  -2.635   2.910
H   -3.320  -1.473   1.614
C    0.085  -2.603  -1.994
H   -0.579  -3.214  -2.616
H   -0.074  -1.570  -2.320
H    1.119  -2.890  -2.210
$end

$opt
CONSTRAINT
tors    2    1    3    5    152.3
tors    1    2    4    7    -59.6
ENDCONSTRAINT
$end

$rem
JOBTYPE                   OPT
METHOD                    B3LYP
DFT_D                     D3_OP
BASIS                     STO-3G
GEOM_OPT_MAX_CYCLES       500
SYMMETRY                  False
THRESH                    12
SCF_CONVERGENCE           8
MAX_SUB_FILE_NUM          128
MEM_STATIC                400
MEM_TOTAL                 4000
$end

--------------------------------------------------------------

   14    -833.4099632771      3.41E-09 Convergence criterion met
 Total energy in the final basis set = -833.4099632771
   13    -833.4403370794      3.66E-09 Convergence criterion met
 Total energy in the final basis set = -833.4403370794
   13    -833.4468979850      3.93E-09 Convergence criterion met
 Total energy in the final basis set = -833.4468979850
   12    -833.4474151934      4.19E-09 Convergence criterion met
 Total energy in the final basis set = -833.4474151934
   11    -833.4475522040      6.36E-09 Convergence criterion met
 Total energy in the final basis set = -833.4475522040
   11    -833.4476538282      3.46E-09 Convergence criterion met
 Total energy in the final basis set = -833.4476538282
   11    -833.4478055419      5.83E-09 Convergence criterion met
 Total energy in the final basis set = -833.4478055419
   12    -833.4480464278      2.41E-09 Convergence criterion met
 **  OPTIMIZATION CONVERGED  **
 Total job time:  132.24s(wall), 2671.51s(cpu)
        *  Thank you very much for using Q-Chem.  Have a nice day.  *

User input: 2 of 3

nid04270 10.128.16
Q-Chem Developer Version! Running on 10.128.16.*
                  Welcome to Q-Chem
     A Quantum Leap Into The Future Of Chemistry

 Q-Chem 5.0, Q-Chem, Inc., Pleasanton, CA (2017)

 Yihan Shao,  Zhengting Gan,  E. Epifanovsky,  A. T. B. Gilbert,  M. Wormit,
 J. Kussmann,  A. W. Lange,  A. Behn,  Jia Deng,  Xintian Feng,  D. Ghosh,
 M. Goldey,  P. R. Horn,  L. D. Jacobson,  I. Kaliman,  T. Kus,  A. Landau,
 Jie Liu,  E. I. Proynov,  R. M. Richard,  R. P. Steele,  E. J. Sundstrom,
 H. L. Woodcock III,  P. M. Zimmerman,  D. Zuev,  B. Albrecht,  E. Alguire,
 S. A. Baeppler,  Z. Benda,  Y. A. Bernard,  E. J. Berquist,  K. B. Bravaya,
 D. Casanova,  Chun-Min Chang,  Yunqing Chen,  A. Chien,  K. D. Closser,
 M. P. Coons,  S. Dasgupta,  M. Diedenhofen,  Hainam Do,  R. G. Edgar,
 Po-Tung Fang,  S. Fatehi,  Qingguo Feng,  Qinghui Ge,  A. Ghysels,
 J. Gomes,  J. Gonthier,  A. Gunina,  M. W. D. Hanson-Heine,
 P. H. P. Harbach,  A. W. Hauser,  J. E. Herr,  E. G. Hohenstein,
 Z. C. Holden,  Kerwin Hui,  T.-C. Jagau,  Hyunjun Ji,  B. Kaduk,
 K. Khistyaev,  Jaehoon Kim,  P. Klunzinger,  K. Koh,  D. Kosenkov,
 T. Kowalczyk,  C. M. Krauter,  A. Kunitsa,  Ka Un Lao,  A. Laurent,
 K. V. Lawler,  Joonho Lee,  D. Lefrancois,  S. Lehtola,  D. S. Levine,
 Yi-Pei Li,  You-Sheng Lin,  Fenglai Liu,  E. Livshits,  A. Luenser,
 P. Manohar,  E. Mansoor,  S. F. Manzer,  Shan-Ping Mao,  Yuezhi Mao,
 N. Mardirossian,  A. V. Marenich,  L. A. Martinez-Martinez,  S. A. Maurer,
 N. J. Mayhall,  S. C. McKenzie,  J.-M. Mewes,  A. F. Morrison,  K. Nanda,
 T. S. Nguyen-Beck,  R. Olivares-Amaya,  J. A. Parkhill,  T. M. Perrine,
 F. Plasser,  S. Prager,  A. Prociuk,  D. R. Rehn,  F. Rob,  M. Schneider,
 N. Sergueev,  S. M. Sharada,  S. Sharma,  D. W. Small,  T. Stauch,
 T. Stein,  Yu-Chuan Su,  A. J. W. Thom,  T. Tsuchimochi,  L. Vogt,
 O. Vydrov,  M. A. Watson,  J. Wenzel,  M. de Wergifosse,  T. A. Wesolowski,
 A. White,  J. Witte,  A. Yamada,  Jun Yang,  K. Yao,  S. Yeganeh,
 S. R. Yost,  Zhi-Qiang You,  A. Zech,  Igor Ying Zhang,  Xing Zhang,
 Yan Zhao,  Ying Zhu,  B. R. Brooks,  G. K. L. Chan,  C. J. Cramer,
 M. S. Gordon,  W. J. Hehre,  A. Klamt,  M. W. Schmidt,  C. D. Sherrill,
 D. G. Truhlar,  A. Aspuru-Guzik,  R. Baer,  A. T. Bell,  N. A. Besley,
 Jeng-Da Chai,  A. Dreuw,  B. D. Dunietz,  T. R. Furlani,  Chao-Ping Hsu,
 Yousung Jung,  Jing Kong,  D. S. Lambrecht,  WanZhen Liang,  C. Ochsenfeld,
 V. A. Rassolov,  L. V. Slipchenko,  J. E. Subotnik,  T. Van Voorhis,
 J. M. Herbert,  A. I. Krylov,  P. M. W. Gill,  M. Head-Gordon

 Contributors to earlier versions of Q-Chem not listed above:
 R. D. Adamson,  B. Austin,  J. Baker,  G. J. O. Beran,  K. Brandhorst,
 S. T. Brown,  E. F. C. Byrd,  A. K. Chakraborty,  C.-L. Cheng,
 Siu Hung Chien,  D. M. Chipman,  D. L. Crittenden,  H. Dachsel,
 R. A. DiStasio Jr.,  R. J. Doerksen,  A. D. Dutoi,  L. Fusti-Molnar,
 W. A. Goddard III,  A. Golubeva-Zadorozhnaya,  S. R. Gwaltney,  G. Hawkins,
 A. Heyden,  S. Hirata,  G. Kedziora,  F. J. Keil,  C. Kelley,  Jihan Kim,
 R. A. King,  R. Z. Khaliullin,  P. P. Korambath,  W. Kurlancheek,
 A. M. Lee,  M. S. Lee,  S. V. Levchenko,  Ching Yeh Lin,  D. Liotard,
 R. C. Lochan,  I. Lotan,  P. E. Maslen,  N. Nair,  D. P. O'Neill,
 D. Neuhauser,  E. Neuscamman,  C. M. Oana,  R. Olson,  B. Peters,
 R. Peverati,  P. A. Pieniazek,  Y. M. Rhee,  J. Ritchie,  M. A. Rohrdanz,
 E. Rosta,  N. J. Russ,  H. F. Schaefer III,  N. E. Schultz,  N. Shenvi,
 A. C. Simmonett,  A. Sodt,  D. Stuck,  K. S. Thanthiriwatte,  V. Vanovschi,
 Tao Wang,  A. Warshel,  C. F. Williams,  Q. Wu,  X. Xu,  W. Zhang

 Please cite Q-Chem as follows:
 Y. Shao et al., Mol. Phys. 113, 184-215 (2015)
 DOI: 10.1080/00268976.2014.952696

 Q-Chem 5.0.0 for Intel X86 EM64T Linux

 Parts of Q-Chem use Armadillo 5.200.1 (Boston Tea Smuggler).
 http://arma.sourceforge.net/

 Q-Chem begins on Wed Oct  4 18:01:43 2017

Host: nid04270
0

     Scratch files written to /global/cscratch1/sd/junteng/scratch/15/opt_1111++.save//
The previous job contains 0 fragments, simply inherited here

Checking the input file for inconsistencies... 	...done.

--------------------------------------------------------------
User input:
--------------------------------------------------------------

$molecule
   read
$end

$rem
JOBTYPE                   OPT
METHOD                    B3LYP
DFT_D                     D3_OP
BASIS                     6-311++G(d,p)
GEOM_OPT_MAX_CYCLES       500
GEOM_OPT_TOL_GRADIENT     1
GEOM_OPT_TOL_DISPLACEMENT 1
GEOM_OPT_TOL_ENERGY       1
SYMMETRY                  False
THRESH                    12
SCF_CONVERGENCE           8
MAX_SUB_FILE_NUM          128
MEM_STATIC                400
MEM_TOTAL                 4000
$end

--------------------------------------------------------------

    9    -844.5291653345      2.93E-09 Convergence criterion met
 Total energy in the final basis set = -844.5291653345
    7    -844.5291651252      7.39E-09 Convergence criterion met
 Total energy in the final basis set = -844.5291651252
    6    -844.5291650864      9.25E-09 Convergence criterion met
 Total energy in the final basis set = -844.5291650864
    7    -844.5291650556      4.81E-09 Convergence criterion met
 Total energy in the final basis set = -844.5291650556
    6    -844.5291650669      2.92E-09 Convergence criterion met
 Total energy in the final basis set = -844.5291650669
    6    -844.5291650585      4.13E-09 Convergence criterion met
 Total energy in the final basis set = -844.5291650585
 Final energy is   -844.529165058538
        *  Thank you very much for using Q-Chem.  Have a nice day.  *
 Q-Chem 5.0, Q-Chem, Inc., Pleasanton, CA (2017)
 Q-Chem 5.0.0 for Intel X86 EM64T Linux

             Standard Nuclear Orientation (Angstroms)
    I     Atom           X                Y                Z
 ----------------------------------------------------------------
    1      C       0.0197121676     0.6614396511     0.6416521410
    2      C       0.5140868969    -0.8259833604     0.6426883502
    3      C      -1.2832001926     0.9209112366    -0.0819714583
    4      C      -0.4866161728    -1.8101744759     0.0520348557
    5      O      -1.9866285167     1.8827709775     0.5587117671
    6      O      -1.6483545252     0.4084503891    -1.1103392360
    7      O      -1.6019712239    -1.8059747427     0.8239279451
    8      O      -0.3460989253    -2.5345331828    -0.8966177085
    9      C      -2.6975428184    -2.6039896686     0.3408376668
   10      C      -3.2157577200     2.2876885941    -0.0710679290
   11      C       1.2226174965     1.3783556718    -0.0892188418
   12      C       2.3856636536     1.4585171876     0.9309383228
   13      C       2.8577417902    -0.0166207393     0.9740461081
   14      C       1.9078459381    -0.6975807086    -0.0540061034
   15      O       1.6751614857     0.3683826024    -0.9968797861
   16      H      -0.0900798155     1.0447860164     1.6544210247
   17      H       0.6409241476    -1.1494239018     1.6788138778
   18      H      -2.4117336193    -3.6553063119     0.2818839293
   19      H      -3.8845875194     1.4335312736    -0.1851013343
   20      H       3.1666210565     2.1156825535     0.5428234211
   21      H       2.0684820581     1.8504571637     1.8992043724
   22      H       3.8895793155    -0.1117638517     0.6322274036
   23      H       2.7917382916    -0.4691966198     1.9655506548
   24      H      -3.4984966099    -2.4659463771     1.0641565651
   25      H      -3.0034449865    -2.2550382395    -0.6466174363
   26      H      -3.0165195502     2.7202213819    -1.0529332979
   27      H      -3.6512482813     3.0305926181     0.5934693467
   28      C       2.5021759028    -1.9070164768    -0.7428918693
   29      H       3.4946788884    -1.6527291186    -1.1225007215
   30      H       2.6064154135    -2.7332465888    -0.0339992925
   31      H       1.8726478213    -2.2406796784    -1.5633531767
   32      C       0.9052265604     2.6605309592    -0.8263285296
   33      H       1.8096959137     3.0414833890    -1.3048573530
   34      H       0.1550300028     2.4884439430    -1.6001639559
   35      H       0.5317101030     3.4188967760    -0.1337241595
 ----------------------------------------------------------------

   15    -844.5292098475      3.74E-09 Convergence criterion met
 Total energy in the final basis set = -844.5292098475

                    Orbital Energies (a.u.)
 --------------------------------------------------------------

 Alpha MOs
 -- Occupied --
-19.177 -19.166 -19.125 -19.117 -19.111 -10.307 -10.302 -10.243
-10.236 -10.232 -10.222 -10.203 -10.202 -10.177 -10.175 -10.168
-10.154  -1.117  -1.108  -1.059  -1.030  -1.023  -0.830  -0.803
 -0.782  -0.749  -0.725  -0.720  -0.670  -0.642  -0.601  -0.581
 -0.563  -0.553  -0.526  -0.507  -0.501  -0.491  -0.488  -0.481
 -0.472  -0.470  -0.456  -0.438  -0.433  -0.422  -0.419  -0.411
 -0.405  -0.396  -0.392  -0.373  -0.368  -0.366  -0.358  -0.355
 -0.352  -0.346  -0.331  -0.323  -0.318  -0.308  -0.289  -0.274
 -0.270

          Ground-State Mulliken Net Atomic Charges

     Atom                 Charge (a.u.)
  ----------------------------------------
      1 C                     0.695195
      2 C                     0.417382
      3 C                    -1.479176
      4 C                    -0.565373
      5 O                     0.037664
      6 O                    -0.156572
      7 O                    -0.018638
      8 O                    -0.170408
      9 C                    -0.176307
     10 C                    -0.190083
     11 C                    -0.198570
     12 C                    -0.308052
     13 C                    -0.427737
     14 C                    -0.732455
     15 O                     0.036872
     16 H                     0.296208
     17 H                     0.262668
     18 H                     0.168211
     19 H                     0.163540
     20 H                     0.170367
     21 H                     0.140840
     22 H                     0.174708
     23 H                     0.139464
     24 H                     0.148903
     25 H                     0.191021
     26 H                     0.178785
     27 H                     0.154325
     28 C                    -0.015888
     29 H                     0.142910
     30 H                     0.157172
     31 H                     0.207722
     32 C                    -0.006339
     33 H                     0.179148
     34 H                     0.218125
     35 H                     0.164367
  ----------------------------------------
  Sum of atomic charges =     0.000000

                    Cartesian Multipole Moments
 -----------------------------------------------------------------
    Charge (ESU x 10^10)
                 0.0000
    Dipole Moment (Debye)
         X      -0.8069      Y       2.0036      Z       3.5218
       Tot       4.1314
    Quadrupole Moments (Debye-Ang)
        XX     -89.4220     XY      -0.9512     YY     -97.3497
        XZ       1.5272     YZ      -4.8155     ZZ    -107.9418

 Frequency:        23.88                  36.26                  79.54
 Force Cnst:      0.0013                 0.0036                 0.0174
 Red. Mass:       3.9496                 4.6934                 4.6691
 IR Intens:        0.023                  0.837                  3.122
 Frequency:        99.23                 116.34                 141.71
 Force Cnst:      0.0182                 0.0126                 0.0143
 Red. Mass:       3.1291                 1.5860                 1.2086
 IR Intens:        1.652                  0.288                  0.216
 Frequency:       146.42                 147.60                 183.91
 Force Cnst:      0.0255                 0.0375                 0.0580
 Red. Mass:       2.0226                 2.9215                 2.9094
 IR Intens:        1.068                  1.633                  0.473
 Frequency:       208.21                 219.66                 222.48
 Force Cnst:      0.0325                 0.1020                 0.0569
 Red. Mass:       1.2732                 3.5886                 1.9521
 IR Intens:        0.192                  1.235                  4.411
 Frequency:       235.34                 246.94                 260.58
 Force Cnst:      0.0523                 0.0733                 0.1833
 Red. Mass:       1.6034                 2.0414                 4.5813
 IR Intens:        2.222                  1.720                  4.230
 Frequency:       279.25                 318.02                 324.09
 Force Cnst:      0.1695                 0.2245                 0.1758
 Red. Mass:       3.6887                 3.7682                 2.8402
 IR Intens:        1.224                 11.303                  2.248
 Frequency:       339.08                 366.47                 371.62
 Force Cnst:      0.2392                 0.3371                 0.3046
 Red. Mass:       3.5316                 4.2595                 3.7430
 IR Intens:        4.930                  4.251                  8.728
 Frequency:       422.14                 486.93                 573.44
 Force Cnst:      0.3035                 0.4652                 0.7443
 Red. Mass:       2.8907                 3.3303                 3.8416
 IR Intens:        3.851                 12.467                 11.966
 Frequency:       597.23                 613.53                 648.24
 Force Cnst:      0.9758                 0.9028                 1.1025
 Red. Mass:       4.6433                 4.0709                 4.4532
 IR Intens:        7.832                  3.984                  1.776
 Frequency:       676.13                 717.46                 754.58
 Force Cnst:      1.3387                 1.7797                 1.5350
 Red. Mass:       4.9700                 5.8683                 4.5756
 IR Intens:        1.301                  7.614                  2.817
 Frequency:       809.43                 824.53                 858.25
 Force Cnst:      1.1567                 1.0861                 1.2658
 Red. Mass:       2.9964                 2.7114                 2.9166
 IR Intens:        1.512                  9.306                  4.210
 Frequency:       861.84                 871.62                 887.21
 Force Cnst:      2.2043                 2.0622                 1.1684
 Red. Mass:       5.0369                 4.6070                 2.5194
 IR Intens:        8.126                 22.634                 19.657
 Frequency:       891.42                 913.71                 927.71
 Force Cnst:      1.1239                 1.0902                 1.2898
 Red. Mass:       2.4006                 2.2164                 2.5436
 IR Intens:        9.573                 11.689                 28.812
 Frequency:       968.79                 971.68                 985.99
 Force Cnst:      1.8350                 2.4820                 1.9070
 Red. Mass:       3.3184                 4.4618                 3.3293
 IR Intens:        8.717                  3.019                  5.160
 Frequency:      1010.40                1056.19                1065.15
 Force Cnst:      0.9604                 2.4193                 1.9928
 Red. Mass:       1.5967                 3.6809                 2.9812
 IR Intens:        2.320                 56.998                 56.695
 Frequency:      1109.60                1129.38                1138.52
 Force Cnst:      1.0897                 1.3488                 1.8036
 Red. Mass:       1.5021                 1.7948                 2.3616
 IR Intens:        7.152                 26.110                 23.390
 Frequency:      1164.50                1170.96                1172.41
 Force Cnst:      1.8143                 1.0606                 1.0778
 Red. Mass:       2.2708                 1.3129                 1.3308
 IR Intens:      121.724                 10.700                  7.778
 Frequency:      1180.62                1194.23                1204.97
 Force Cnst:      1.8843                 2.3879                 1.6194
 Red. Mass:       2.2944                 2.8418                 1.8931
 IR Intens:       59.659                363.399                  8.664
 Frequency:      1210.22                1212.74                1221.55
 Force Cnst:      1.3579                 1.6229                 1.6197
 Red. Mass:       1.5736                 1.8729                 1.8423
 IR Intens:       21.772                156.585                 18.645
 Frequency:      1245.87                1256.14                1263.79
 Force Cnst:      2.0353                 1.2529                 1.4278
 Red. Mass:       2.2255                 1.3476                 1.5173
 IR Intens:       34.512                  2.230                 27.299
 Frequency:      1287.78                1330.07                1344.50
 Force Cnst:      1.6496                 1.6280                 2.4281
 Red. Mass:       1.6883                 1.5619                 2.2798
 IR Intens:        8.541                  1.374                  6.215
 Frequency:      1371.24                1396.69                1420.27
 Force Cnst:      1.7459                 1.8304                 1.6006
 Red. Mass:       1.5760                 1.5925                 1.3468
 IR Intens:      104.341                 38.570                 25.072
 Frequency:      1426.34                1466.59                1468.68
 Force Cnst:      1.6170                 1.5039                 1.5286
 Red. Mass:       1.3490                 1.1867                 1.2028
 IR Intens:       10.421                 14.042                 14.882
 Frequency:      1482.93                1483.12                1483.71
 Force Cnst:      1.3675                 1.3632                 1.3601
 Red. Mass:       1.0554                 1.0519                 1.0486
 IR Intens:        5.792                  3.935                 11.550
 Frequency:      1487.84                1493.42                1495.75
 Force Cnst:      1.3794                 1.3920                 1.3814
 Red. Mass:       1.0576                 1.0593                 1.0480
 IR Intens:        6.005                  1.074                  8.234
 Frequency:      1498.84                1500.69                1509.12
 Force Cnst:      1.3837                 1.3972                 1.4430
 Red. Mass:       1.0454                 1.0530                 1.0754
 IR Intens:       15.299                  6.167                 10.277
 Frequency:      1512.69                1791.51                1811.16
 Force Cnst:      1.4449                20.8691                21.9572
 Red. Mass:       1.0718                11.0361                11.3609
 IR Intens:        8.111                 87.405                321.517
 Frequency:      3041.11                3041.60                3049.08
 Force Cnst:      5.6690                 5.6451                 5.6389
 Red. Mass:       1.0404                 1.0357                 1.0295
 IR Intens:       23.330                  8.044                 19.962
 Frequency:      3049.40                3053.87                3062.43
 Force Cnst:      5.6411                 5.8260                 5.8986
 Red. Mass:       1.0296                 1.0603                 1.0675
 IR Intens:       50.529                 31.712                 24.714
 Frequency:      3068.90                3090.46                3097.56
 Force Cnst:      5.9645                 6.2278                 6.2293
 Red. Mass:       1.0749                 1.1067                 1.1019
 IR Intens:       25.301                  0.673                 13.747
 Frequency:      3108.34                3110.71                3117.33
 Force Cnst:      6.2764                 6.2743                 6.2973
 Red. Mass:       1.1026                 1.1005                 1.0999
 IR Intens:       16.912                 23.376                 24.144
 Frequency:      3117.88                3122.41                3123.32
 Force Cnst:      6.2609                 6.3585                 6.3625
 Red. Mass:       1.0931                 1.1069                 1.1070
 IR Intens:       24.361                 20.641                 13.406
 Frequency:      3153.04                3156.56                3164.30
 Force Cnst:      6.4813                 6.4934                 6.4687
 Red. Mass:       1.1065                 1.1061                 1.0965
 IR Intens:       14.151                 14.312                  1.917

 STANDARD THERMODYNAMIC QUANTITIES AT   298.15 K  AND     1.00 ATM

   This Molecule has  0 Imaginary Frequencies
   Zero point vibrational energy:      183.595 kcal/mol

   Atom    1 Element C  Has Mass   12.00000
   Atom    2 Element C  Has Mass   12.00000
   Atom    3 Element C  Has Mass   12.00000
   Atom    4 Element C  Has Mass   12.00000
   Atom    5 Element O  Has Mass   15.99491
   Atom    6 Element O  Has Mass   15.99491
   Atom    7 Element O  Has Mass   15.99491
   Atom    8 Element O  Has Mass   15.99491
   Atom    9 Element C  Has Mass   12.00000
   Atom   10 Element C  Has Mass   12.00000
   Atom   11 Element C  Has Mass   12.00000
   Atom   12 Element C  Has Mass   12.00000
   Atom   13 Element C  Has Mass   12.00000
   Atom   14 Element C  Has Mass   12.00000
   Atom   15 Element O  Has Mass   15.99491
   Atom   16 Element H  Has Mass    1.00783
   Atom   17 Element H  Has Mass    1.00783
   Atom   18 Element H  Has Mass    1.00783
   Atom   19 Element H  Has Mass    1.00783
   Atom   20 Element H  Has Mass    1.00783
   Atom   21 Element H  Has Mass    1.00783
   Atom   22 Element H  Has Mass    1.00783
   Atom   23 Element H  Has Mass    1.00783
   Atom   24 Element H  Has Mass    1.00783
   Atom   25 Element H  Has Mass    1.00783
   Atom   26 Element H  Has Mass    1.00783
   Atom   27 Element H  Has Mass    1.00783
   Atom   28 Element C  Has Mass   12.00000
   Atom   29 Element H  Has Mass    1.00783
   Atom   30 Element H  Has Mass    1.00783
   Atom   31 Element H  Has Mass    1.00783
   Atom   32 Element C  Has Mass   12.00000
   Atom   33 Element H  Has Mass    1.00783
   Atom   34 Element H  Has Mass    1.00783
   Atom   35 Element H  Has Mass    1.00783
   Molecular Mass:   242.115490 amu
   Principal axes and moments of inertia in amu*Bohr^2:
                             1           2           3
    Eigenvalues --     3001.56680  3611.50634  5631.17427
          X               0.99992    -0.01148     0.00567
          Y               0.01151     0.99992    -0.00522
          Z              -0.00561     0.00528     0.99997
   Rotational Symmetry Number is   1
   The Molecule is an Asymmetric Top
   Translational Enthalpy:        0.889 kcal/mol
   Rotational Enthalpy:           0.889 kcal/mol
   Vibrational Enthalpy:        192.690 kcal/mol
   gas constant (RT):             0.592 kcal/mol
   Translational Entropy:        42.354  cal/mol.K
   Rotational Entropy:           32.479  cal/mol.K
   Vibrational Entropy:          58.614  cal/mol.K

   Total Enthalpy:              195.060 kcal/mol
   Total Entropy:               133.447  cal/mol.K

 Total job time:  14013.50s(wall), 84466.38s(cpu)
        *  Thank you very much for using Q-Chem.  Have a nice day.  *
