 Q-Chem 5.0, Q-Chem, Inc., Pleasanton, CA (2017)
 Q-Chem 5.0.0 for Intel X86 EM64T Linux

User input:
--------------------------------------------------------------
$molecule
0  1
C    0.355  -2.424   0.293
C   -0.264  -2.685   1.524
C    0.749  -1.045  -0.086
C   -0.385  -1.681   2.598
O    1.805  -1.090  -0.938
O    0.175  -0.038   0.291
O    0.833  -1.128   2.820
O   -1.397  -1.517   3.259
C    0.836  -0.152   3.862
C    2.258   0.195  -1.365
C    0.489  -3.469  -0.639
C    0.011  -4.748  -0.345
C   -0.620  -4.996   0.872
C   -0.760  -3.969   1.804
H    0.142   0.662   3.629
H    1.480   0.699  -1.947
H   -1.003  -5.990   1.096
H    0.581  -0.616   4.820
H    1.845   0.263   3.935
H    3.132   0.050  -2.006
H    2.557   0.804  -0.506
H    0.116  -5.548  -1.075
H   -1.248  -4.169   2.757
H    0.945  -3.290  -1.611
$end

$opt
CONSTRAINT
tors    2    1    3    5    150.0
tors    1    2    4    7    -55.0
ENDCONSTRAINT
$end

$rem
JOBTYPE                   OPT
METHOD                    B3LYP
DFT_D                     D3_OP
BASIS                     STO-3G
GEOM_OPT_MAX_CYCLES       500
SYMMETRY                  False
THRESH                    12
SCF_CONVERGENCE           8
MAX_SUB_FILE_NUM          128
MEM_STATIC                400
MEM_TOTAL                 4000
$end

--------------------------------------------------------------

   15    -679.0688361291      6.94E-09 Convergence criterion met
 Total energy in the final basis set = -679.0688361291
   14    -679.0942203256      4.91E-09 Convergence criterion met
 Total energy in the final basis set = -679.0942203256
   14    -679.0965157218      2.24E-09 Convergence criterion met
 Total energy in the final basis set = -679.0965157218
   12    -679.0967876047      6.45E-09 Convergence criterion met
 Total energy in the final basis set = -679.0967876047
   11    -679.0968095623      4.58E-09 Convergence criterion met
 Total energy in the final basis set = -679.0968095623
   11    -679.0968201769      3.28E-09 Convergence criterion met
 Total energy in the final basis set = -679.0968201769
   10    -679.0968249875      8.51E-09 Convergence criterion met
 Total energy in the final basis set = -679.0968249875
   11    -679.0968344887      1.49E-09 Convergence criterion met
 **  OPTIMIZATION CONVERGED  **
 Total job time:  29.61s(wall), 690.39s(cpu)
        *  Thank you very much for using Q-Chem.  Have a nice day.  *

User input: 2 of 3

nid04368 10.128.17
Q-Chem Developer Version! Running on 10.128.17.*
                  Welcome to Q-Chem
     A Quantum Leap Into The Future Of Chemistry

 Q-Chem 5.0, Q-Chem, Inc., Pleasanton, CA (2017)

 Yihan Shao,  Zhengting Gan,  E. Epifanovsky,  A. T. B. Gilbert,  M. Wormit,
 J. Kussmann,  A. W. Lange,  A. Behn,  Jia Deng,  Xintian Feng,  D. Ghosh,
 M. Goldey,  P. R. Horn,  L. D. Jacobson,  I. Kaliman,  T. Kus,  A. Landau,
 Jie Liu,  E. I. Proynov,  R. M. Richard,  R. P. Steele,  E. J. Sundstrom,
 H. L. Woodcock III,  P. M. Zimmerman,  D. Zuev,  B. Albrecht,  E. Alguire,
 S. A. Baeppler,  Z. Benda,  Y. A. Bernard,  E. J. Berquist,  K. B. Bravaya,
 D. Casanova,  Chun-Min Chang,  Yunqing Chen,  A. Chien,  K. D. Closser,
 M. P. Coons,  S. Dasgupta,  M. Diedenhofen,  Hainam Do,  R. G. Edgar,
 Po-Tung Fang,  S. Fatehi,  Qingguo Feng,  Qinghui Ge,  A. Ghysels,
 J. Gomes,  J. Gonthier,  A. Gunina,  M. W. D. Hanson-Heine,
 P. H. P. Harbach,  A. W. Hauser,  J. E. Herr,  E. G. Hohenstein,
 Z. C. Holden,  Kerwin Hui,  T.-C. Jagau,  Hyunjun Ji,  B. Kaduk,
 K. Khistyaev,  Jaehoon Kim,  P. Klunzinger,  K. Koh,  D. Kosenkov,
 T. Kowalczyk,  C. M. Krauter,  A. Kunitsa,  Ka Un Lao,  A. Laurent,
 K. V. Lawler,  Joonho Lee,  D. Lefrancois,  S. Lehtola,  D. S. Levine,
 Yi-Pei Li,  You-Sheng Lin,  Fenglai Liu,  E. Livshits,  A. Luenser,
 P. Manohar,  E. Mansoor,  S. F. Manzer,  Shan-Ping Mao,  Yuezhi Mao,
 N. Mardirossian,  A. V. Marenich,  L. A. Martinez-Martinez,  S. A. Maurer,
 N. J. Mayhall,  S. C. McKenzie,  J.-M. Mewes,  A. F. Morrison,  K. Nanda,
 T. S. Nguyen-Beck,  R. Olivares-Amaya,  J. A. Parkhill,  T. M. Perrine,
 F. Plasser,  S. Prager,  A. Prociuk,  D. R. Rehn,  F. Rob,  M. Schneider,
 N. Sergueev,  S. M. Sharada,  S. Sharma,  D. W. Small,  T. Stauch,
 T. Stein,  Yu-Chuan Su,  A. J. W. Thom,  T. Tsuchimochi,  L. Vogt,
 O. Vydrov,  M. A. Watson,  J. Wenzel,  M. de Wergifosse,  T. A. Wesolowski,
 A. White,  J. Witte,  A. Yamada,  Jun Yang,  K. Yao,  S. Yeganeh,
 S. R. Yost,  Zhi-Qiang You,  A. Zech,  Igor Ying Zhang,  Xing Zhang,
 Yan Zhao,  Ying Zhu,  B. R. Brooks,  G. K. L. Chan,  C. J. Cramer,
 M. S. Gordon,  W. J. Hehre,  A. Klamt,  M. W. Schmidt,  C. D. Sherrill,
 D. G. Truhlar,  A. Aspuru-Guzik,  R. Baer,  A. T. Bell,  N. A. Besley,
 Jeng-Da Chai,  A. Dreuw,  B. D. Dunietz,  T. R. Furlani,  Chao-Ping Hsu,
 Yousung Jung,  Jing Kong,  D. S. Lambrecht,  WanZhen Liang,  C. Ochsenfeld,
 V. A. Rassolov,  L. V. Slipchenko,  J. E. Subotnik,  T. Van Voorhis,
 J. M. Herbert,  A. I. Krylov,  P. M. W. Gill,  M. Head-Gordon

 Contributors to earlier versions of Q-Chem not listed above:
 R. D. Adamson,  B. Austin,  J. Baker,  G. J. O. Beran,  K. Brandhorst,
 S. T. Brown,  E. F. C. Byrd,  A. K. Chakraborty,  C.-L. Cheng,
 Siu Hung Chien,  D. M. Chipman,  D. L. Crittenden,  H. Dachsel,
 R. A. DiStasio Jr.,  R. J. Doerksen,  A. D. Dutoi,  L. Fusti-Molnar,
 W. A. Goddard III,  A. Golubeva-Zadorozhnaya,  S. R. Gwaltney,  G. Hawkins,
 A. Heyden,  S. Hirata,  G. Kedziora,  F. J. Keil,  C. Kelley,  Jihan Kim,
 R. A. King,  R. Z. Khaliullin,  P. P. Korambath,  W. Kurlancheek,
 A. M. Lee,  M. S. Lee,  S. V. Levchenko,  Ching Yeh Lin,  D. Liotard,
 R. C. Lochan,  I. Lotan,  P. E. Maslen,  N. Nair,  D. P. O'Neill,
 D. Neuhauser,  E. Neuscamman,  C. M. Oana,  R. Olson,  B. Peters,
 R. Peverati,  P. A. Pieniazek,  Y. M. Rhee,  J. Ritchie,  M. A. Rohrdanz,
 E. Rosta,  N. J. Russ,  H. F. Schaefer III,  N. E. Schultz,  N. Shenvi,
 A. C. Simmonett,  A. Sodt,  D. Stuck,  K. S. Thanthiriwatte,  V. Vanovschi,
 Tao Wang,  A. Warshel,  C. F. Williams,  Q. Wu,  X. Xu,  W. Zhang

 Please cite Q-Chem as follows:
 Y. Shao et al., Mol. Phys. 113, 184-215 (2015)
 DOI: 10.1080/00268976.2014.952696

 Q-Chem 5.0.0 for Intel X86 EM64T Linux

 Parts of Q-Chem use Armadillo 5.200.1 (Boston Tea Smuggler).
 http://arma.sourceforge.net/

 Q-Chem begins on Wed Oct  4 18:03:12 2017

Host: nid04368
0

     Scratch files written to /global/cscratch1/sd/junteng/scratch/16/opt_10n01--.save//
The previous job contains 0 fragments, simply inherited here

Checking the input file for inconsistencies... 	...done.

--------------------------------------------------------------
User input:
--------------------------------------------------------------

$molecule
   read
$end

$rem
JOBTYPE                   OPT
METHOD                    B3LYP
DFT_D                     D3_OP
BASIS                     6-311++G(d,p)
GEOM_OPT_MAX_CYCLES       500
GEOM_OPT_TOL_GRADIENT     1
GEOM_OPT_TOL_DISPLACEMENT 1
GEOM_OPT_TOL_ENERGY       1
SYMMETRY                  False
THRESH                    12
SCF_CONVERGENCE           8
MAX_SUB_FILE_NUM          128
MEM_STATIC                400
MEM_TOTAL                 4000
$end

--------------------------------------------------------------

    6    -688.2161071432      4.92E-09 Convergence criterion met
 Total energy in the final basis set = -688.2161071432
    5    -688.2161071182      8.63E-09 Convergence criterion met
 Total energy in the final basis set = -688.2161071182
    5    -688.2161071348      5.94E-09 Convergence criterion met
 Total energy in the final basis set = -688.2161071348
    5    -688.2161071199      3.52E-09 Convergence criterion met
 Total energy in the final basis set = -688.2161071199
    4    -688.2161071311      8.41E-09 Convergence criterion met
 Total energy in the final basis set = -688.2161071311
    5    -688.2161071230      3.70E-09 Convergence criterion met
 Total energy in the final basis set = -688.2161071230
 Final energy is   -688.216107122979
        *  Thank you very much for using Q-Chem.  Have a nice day.  *
 Q-Chem 5.0, Q-Chem, Inc., Pleasanton, CA (2017)
 Q-Chem 5.0.0 for Intel X86 EM64T Linux

             Standard Nuclear Orientation (Angstroms)
    I     Atom           X                Y                Z
 ----------------------------------------------------------------
    1      C      -0.0505362346    -0.8854180532    -0.0251117274
    2      C      -1.1136466199     0.0329410988    -0.0750290471
    3      C       1.3529229987    -0.4348245426    -0.2650925328
    4      C      -0.9103909174     1.5140830349    -0.1849641437
    5      O       2.2523723244    -1.2819553191     0.2784282232
    6      O       1.6636284216     0.5438779451    -0.9021599038
    7      O      -0.1103694759     1.9707344351     0.7938701453
    8      O      -1.4551264426     2.2122890903    -1.0041219363
    9      C       0.2602560206     3.3584671578     0.7062070813
   10      C       3.6359047607    -0.9743235010     0.0285083097
   11      C      -0.3283248381    -2.2483734605     0.1284462140
   12      C      -1.6419497684    -2.6996436618     0.2172131193
   13      C      -2.6937310036    -1.7893689584     0.1451710253
   14      C      -2.4277431198    -0.4302571206    -0.0037353033
   15      H       0.8530502808     3.5222359894    -0.1952815698
   16      H       3.8405687963    -0.9866596332    -1.0432065847
   17      H      -3.7197419754    -2.1341723389     0.2046165488
   18      H      -0.6265357135     3.9929021554     0.6830077713
   19      H       0.8536495933     3.5561525697     1.5960182948
   20      H       4.2007967246    -1.7524481447     0.5369327654
   21      H       3.8858979940     0.0082754179     0.4307564589
   22      H      -1.8422151652    -3.7588992455     0.3301701753
   23      H      -3.2398303564     0.2845426219    -0.0600400986
   24      H       0.4937535329    -2.9511905628     0.1592160395
 ----------------------------------------------------------------

   15    -688.2161316860      7.20E-09 Convergence criterion met
 Total energy in the final basis set = -688.2161316860

                    Orbital Energies (a.u.)
 --------------------------------------------------------------

 Alpha MOs
 -- Occupied --
-19.180 -19.170 -19.121 -19.115 -10.314 -10.308 -10.234 -10.224
-10.212 -10.211 -10.199 -10.199 -10.197 -10.197  -1.121  -1.112
 -1.033  -1.026  -0.887  -0.796  -0.787  -0.740  -0.729  -0.655
 -0.639  -0.594  -0.573  -0.553  -0.523  -0.503  -0.493  -0.489
 -0.486  -0.480  -0.463  -0.457  -0.435  -0.431  -0.419  -0.401
 -0.390  -0.382  -0.375  -0.372  -0.361  -0.323  -0.309  -0.298
 -0.293  -0.277  -0.270

          Ground-State Mulliken Net Atomic Charges

     Atom                 Charge (a.u.)
  ----------------------------------------
      1 C                     0.734069
      2 C                     0.314346
      3 C                    -0.365431
      4 C                    -0.664222
      5 O                    -0.066427
      6 O                    -0.213337
      7 O                    -0.002699
      8 O                    -0.210714
      9 C                    -0.245642
     10 C                    -0.236933
     11 C                    -0.081107
     12 C                    -0.200250
     13 C                    -0.194193
     14 C                    -0.303336
     15 H                     0.187709
     16 H                     0.188991
     17 H                     0.172290
     18 H                     0.167996
     19 H                     0.154355
     20 H                     0.158525
     21 H                     0.173753
     22 H                     0.174278
     23 H                     0.174643
     24 H                     0.183338
  ----------------------------------------
  Sum of atomic charges =     0.000000

                    Cartesian Multipole Moments
 -----------------------------------------------------------------
    Charge (ESU x 10^10)
                -0.0000
    Dipole Moment (Debye)
         X       1.1832      Y      -2.3179      Z       2.1942
       Tot       3.4040
    Quadrupole Moments (Debye-Ang)
        XX     -68.3490     XY       3.6507     YY     -72.5855
        XZ      -1.5041     YZ       6.4379     ZZ     -87.5821

 Frequency:        30.94                  77.97                  82.32
 Force Cnst:      0.0037                 0.0126                 0.0180
 Red. Mass:       6.5635                 3.5253                 4.5124
 IR Intens:        0.570                  0.357                  4.526
 Frequency:        94.54                 121.57                 140.70
 Force Cnst:      0.0188                 0.0167                 0.0282
 Red. Mass:       3.5717                 1.9171                 2.4171
 IR Intens:        3.465                  0.880                  2.570
 Frequency:       153.06                 164.29                 215.02
 Force Cnst:      0.0159                 0.0338                 0.1363
 Red. Mass:       1.1502                 2.1267                 5.0026
 IR Intens:        0.076                  0.850                  1.049
 Frequency:       253.19                 286.23                 307.92
 Force Cnst:      0.2162                 0.2113                 0.2918
 Red. Mass:       5.7248                 4.3766                 5.2233
 IR Intens:        1.619                  8.793                  4.272
 Frequency:       334.99                 369.36                 396.22
 Force Cnst:      0.3500                 0.5197                 0.5102
 Red. Mass:       5.2930                 6.4654                 5.5161
 IR Intens:       14.661                 10.840                  1.235
 Frequency:       424.94                 534.33                 561.11
 Force Cnst:      0.4161                 0.8875                 0.8291
 Red. Mass:       3.9108                 5.2760                 4.4697
 IR Intens:        0.818                  2.502                  4.587
 Frequency:       665.15                 703.28                 716.32
 Force Cnst:      1.6382                 1.7725                 1.6236
 Red. Mass:       6.2847                 6.0825                 5.3705
 IR Intens:        4.641                  6.525                  7.877
 Frequency:       751.08                 798.69                 814.33
 Force Cnst:      0.6757                 1.0975                 1.4926
 Red. Mass:       2.0330                 2.9202                 3.8203
 IR Intens:       79.278                 19.467                  5.714
 Frequency:       829.01                 848.09                 904.56
 Force Cnst:      2.0331                 2.1562                 0.7131
 Red. Mass:       5.0209                 5.0881                 1.4792
 IR Intens:       10.801                  1.054                  0.704
 Frequency:       975.77                 984.78                 986.85
 Force Cnst:      1.4365                 3.7926                 1.2776
 Red. Mass:       2.5607                 6.6376                 2.2266
 IR Intens:       15.257                  1.669                  6.121
 Frequency:      1004.55                1063.38                1097.16
 Force Cnst:      0.7823                 1.6558                 3.5023
 Red. Mass:       1.3157                 2.4853                 4.9381
 IR Intens:        0.441                 16.859                 95.910
 Frequency:      1144.25                1156.67                1170.61
 Force Cnst:      2.2676                 1.4855                 1.0424
 Red. Mass:       2.9395                 1.8846                 1.2911
 IR Intens:      160.019                 54.026                  1.848
 Frequency:      1170.84                1190.26                1211.52
 Force Cnst:      1.0434                 0.9331                 1.3562
 Red. Mass:       1.2918                 1.1179                 1.5683
 IR Intens:        0.457                  2.040                 40.065
 Frequency:      1216.31                1275.88                1286.91
 Force Cnst:      1.3943                 3.0765                 3.0505
 Red. Mass:       1.5996                 3.2076                 3.1263
 IR Intens:       38.856                188.661                383.932
 Frequency:      1314.06                1335.07                1467.50
 Force Cnst:      2.2180                 7.7198                 1.6415
 Red. Mass:       2.1801                 7.3510                 1.2937
 IR Intens:      175.041                 22.669                 11.683
 Frequency:      1469.16                1476.28                1483.90
 Force Cnst:      1.5239                 2.4613                 1.3556
 Red. Mass:       1.1983                 1.9168                 1.0449
 IR Intens:       19.978                  8.566                  7.680
 Frequency:      1485.61                1497.04                1497.64
 Force Cnst:      1.3599                 1.3817                 1.3845
 Red. Mass:       1.0458                 1.0464                 1.0476
 IR Intens:       11.211                 16.475                  3.628
 Frequency:      1515.89                1612.87                1636.69
 Force Cnst:      3.5841                 9.7163                 9.0449
 Red. Mass:       2.6473                 6.3395                 5.7309
 IR Intens:       12.973                 12.492                  6.455
 Frequency:      1772.24                1783.43                3050.26
 Force Cnst:     21.8502                22.2854                 5.6435
 Red. Mass:      11.8076                11.8921                 1.0295
 IR Intens:      251.723                300.927                 25.736
 Frequency:      3050.51                3123.21                3126.04
 Force Cnst:      5.6442                 6.3624                 6.3747
 Red. Mass:       1.0295                 1.1071                 1.1072
 IR Intens:       43.768                 17.309                 14.481
 Frequency:      3157.75                3157.77                3172.99
 Force Cnst:      6.4993                 6.4993                 6.4464
 Red. Mass:       1.1063                 1.1063                 1.0867
 IR Intens:       13.779                 12.988                  1.598
 Frequency:      3186.70                3198.22                3211.43
 Force Cnst:      6.5300                 6.5996                 6.6442
 Red. Mass:       1.0914                 1.0951                 1.0934
 IR Intens:        8.561                  7.582                  3.490

 STANDARD THERMODYNAMIC QUANTITIES AT   298.15 K  AND     1.00 ATM

   This Molecule has  0 Imaginary Frequencies
   Zero point vibrational energy:      116.220 kcal/mol

   Atom    1 Element C  Has Mass   12.00000
   Atom    2 Element C  Has Mass   12.00000
   Atom    3 Element C  Has Mass   12.00000
   Atom    4 Element C  Has Mass   12.00000
   Atom    5 Element O  Has Mass   15.99491
   Atom    6 Element O  Has Mass   15.99491
   Atom    7 Element O  Has Mass   15.99491
   Atom    8 Element O  Has Mass   15.99491
   Atom    9 Element C  Has Mass   12.00000
   Atom   10 Element C  Has Mass   12.00000
   Atom   11 Element C  Has Mass   12.00000
   Atom   12 Element C  Has Mass   12.00000
   Atom   13 Element C  Has Mass   12.00000
   Atom   14 Element C  Has Mass   12.00000
   Atom   15 Element H  Has Mass    1.00783
   Atom   16 Element H  Has Mass    1.00783
   Atom   17 Element H  Has Mass    1.00783
   Atom   18 Element H  Has Mass    1.00783
   Atom   19 Element H  Has Mass    1.00783
   Atom   20 Element H  Has Mass    1.00783
   Atom   21 Element H  Has Mass    1.00783
   Atom   22 Element H  Has Mass    1.00783
   Atom   23 Element H  Has Mass    1.00783
   Atom   24 Element H  Has Mass    1.00783
   Molecular Mass:   194.057940 amu
   Principal axes and moments of inertia in amu*Bohr^2:
                             1           2           3
    Eigenvalues --     2397.76819  2463.75062  4479.07888
          X               0.96230     0.27200    -0.00050
          Y              -0.27199     0.96225     0.00987
          Z               0.00316    -0.00937     0.99995
   Rotational Symmetry Number is   1
   The Molecule is an Asymmetric Top
   Translational Enthalpy:        0.889 kcal/mol
   Rotational Enthalpy:           0.889 kcal/mol
   Vibrational Enthalpy:        122.845 kcal/mol
   gas constant (RT):             0.592 kcal/mol
   Translational Entropy:        41.694  cal/mol.K
   Rotational Entropy:           31.648  cal/mol.K
   Vibrational Entropy:          43.121  cal/mol.K

   Total Enthalpy:              125.215 kcal/mol
   Total Entropy:               116.463  cal/mol.K

 Total job time:  4094.72s(wall), 20269.37s(cpu)
        *  Thank you very much for using Q-Chem.  Have a nice day.  *
