 Q-Chem 5.0, Q-Chem, Inc., Pleasanton, CA (2017)
 Q-Chem 5.0.0 for Intel X86 EM64T Linux

User input:
--------------------------------------------------------------
$molecule
0  1
C    0.711  -1.958   0.589
C   -0.299  -1.995   1.756
C    1.089  -0.603   0.022
C   -0.528  -0.668   2.454
O    2.255  -0.726  -0.682
O    0.458   0.435   0.138
O    0.672  -0.221   2.944
O   -1.603  -0.140   2.687
C    0.580   1.027   3.634
C    2.698   0.490  -1.286
C   -0.031  -2.720  -0.508
C   -0.144  -4.202  -0.153
C   -1.210  -4.188   0.944
C   -1.515  -2.680   1.086
O   -1.391  -2.278  -0.299
H    1.639  -2.461   0.888
H    0.068  -2.659   2.552
H   -0.050   0.928   4.523
H    1.951   0.864  -1.993
H   -0.511  -4.776  -1.011
H    0.804  -4.638   0.173
H   -2.087  -4.746   0.595
H   -0.869  -4.649   1.876
H    1.587   1.311   3.953
H    0.196   1.807   2.969
H    3.619   0.278  -1.837
H    2.918   1.240  -0.519
H    0.300  -2.531  -1.532
C   -2.908  -2.427   1.624
H   -3.642  -3.061   1.114
H   -2.968  -2.632   2.696
H   -3.235  -1.402   1.426
$end

$opt
CONSTRAINT
tors    2    1    3    5    157.3
tors    1    2    4    7    -60.0
ENDCONSTRAINT
$end

$rem
JOBTYPE                   OPT
METHOD                    B3LYP
DFT_D                     D3_OP
BASIS                     STO-3G
GEOM_OPT_MAX_CYCLES       500
SYMMETRY                  False
THRESH                    12
SCF_CONVERGENCE           8
MAX_SUB_FILE_NUM          128
MEM_STATIC                400
MEM_TOTAL                 4000
$end

--------------------------------------------------------------

   14    -794.5514909720      6.56E-09 Convergence criterion met
 Total energy in the final basis set = -794.5514909720
   13    -794.5820610052      4.45E-09 Convergence criterion met
 Total energy in the final basis set = -794.5820610052
   13    -794.5885633053      4.28E-09 Convergence criterion met
 Total energy in the final basis set = -794.5885633053
   12    -794.5893174758      4.89E-09 Convergence criterion met
 Total energy in the final basis set = -794.5893174758
   11    -794.5895750632      9.52E-09 Convergence criterion met
 Total energy in the final basis set = -794.5895750632
   11    -794.5897330323      4.94E-09 Convergence criterion met
 Total energy in the final basis set = -794.5897330323
   11    -794.5898731517      4.90E-09 Convergence criterion met
 Total energy in the final basis set = -794.5898731517
   11    -794.5900663870      5.33E-09 Convergence criterion met
 **  OPTIMIZATION CONVERGED  **
 Total job time:  52.61s(wall), 1238.31s(cpu)
        *  Thank you very much for using Q-Chem.  Have a nice day.  *

User input: 2 of 3

nid00666 10.128.2
Q-Chem Developer Version! Running on 10.128.2.*
                  Welcome to Q-Chem
     A Quantum Leap Into The Future Of Chemistry

 Q-Chem 5.0, Q-Chem, Inc., Pleasanton, CA (2017)

 Yihan Shao,  Zhengting Gan,  E. Epifanovsky,  A. T. B. Gilbert,  M. Wormit,
 J. Kussmann,  A. W. Lange,  A. Behn,  Jia Deng,  Xintian Feng,  D. Ghosh,
 M. Goldey,  P. R. Horn,  L. D. Jacobson,  I. Kaliman,  T. Kus,  A. Landau,
 Jie Liu,  E. I. Proynov,  R. M. Richard,  R. P. Steele,  E. J. Sundstrom,
 H. L. Woodcock III,  P. M. Zimmerman,  D. Zuev,  B. Albrecht,  E. Alguire,
 S. A. Baeppler,  Z. Benda,  Y. A. Bernard,  E. J. Berquist,  K. B. Bravaya,
 D. Casanova,  Chun-Min Chang,  Yunqing Chen,  A. Chien,  K. D. Closser,
 M. P. Coons,  S. Dasgupta,  M. Diedenhofen,  Hainam Do,  R. G. Edgar,
 Po-Tung Fang,  S. Fatehi,  Qingguo Feng,  Qinghui Ge,  A. Ghysels,
 J. Gomes,  J. Gonthier,  A. Gunina,  M. W. D. Hanson-Heine,
 P. H. P. Harbach,  A. W. Hauser,  J. E. Herr,  E. G. Hohenstein,
 Z. C. Holden,  Kerwin Hui,  T.-C. Jagau,  Hyunjun Ji,  B. Kaduk,
 K. Khistyaev,  Jaehoon Kim,  P. Klunzinger,  K. Koh,  D. Kosenkov,
 T. Kowalczyk,  C. M. Krauter,  A. Kunitsa,  Ka Un Lao,  A. Laurent,
 K. V. Lawler,  Joonho Lee,  D. Lefrancois,  S. Lehtola,  D. S. Levine,
 Yi-Pei Li,  You-Sheng Lin,  Fenglai Liu,  E. Livshits,  A. Luenser,
 P. Manohar,  E. Mansoor,  S. F. Manzer,  Shan-Ping Mao,  Yuezhi Mao,
 N. Mardirossian,  A. V. Marenich,  L. A. Martinez-Martinez,  S. A. Maurer,
 N. J. Mayhall,  S. C. McKenzie,  J.-M. Mewes,  A. F. Morrison,  K. Nanda,
 T. S. Nguyen-Beck,  R. Olivares-Amaya,  J. A. Parkhill,  T. M. Perrine,
 F. Plasser,  S. Prager,  A. Prociuk,  D. R. Rehn,  F. Rob,  M. Schneider,
 N. Sergueev,  S. M. Sharada,  S. Sharma,  D. W. Small,  T. Stauch,
 T. Stein,  Yu-Chuan Su,  A. J. W. Thom,  T. Tsuchimochi,  L. Vogt,
 O. Vydrov,  M. A. Watson,  J. Wenzel,  M. de Wergifosse,  T. A. Wesolowski,
 A. White,  J. Witte,  A. Yamada,  Jun Yang,  K. Yao,  S. Yeganeh,
 S. R. Yost,  Zhi-Qiang You,  A. Zech,  Igor Ying Zhang,  Xing Zhang,
 Yan Zhao,  Ying Zhu,  B. R. Brooks,  G. K. L. Chan,  C. J. Cramer,
 M. S. Gordon,  W. J. Hehre,  A. Klamt,  M. W. Schmidt,  C. D. Sherrill,
 D. G. Truhlar,  A. Aspuru-Guzik,  R. Baer,  A. T. Bell,  N. A. Besley,
 Jeng-Da Chai,  A. Dreuw,  B. D. Dunietz,  T. R. Furlani,  Chao-Ping Hsu,
 Yousung Jung,  Jing Kong,  D. S. Lambrecht,  WanZhen Liang,  C. Ochsenfeld,
 V. A. Rassolov,  L. V. Slipchenko,  J. E. Subotnik,  T. Van Voorhis,
 J. M. Herbert,  A. I. Krylov,  P. M. W. Gill,  M. Head-Gordon

 Contributors to earlier versions of Q-Chem not listed above:
 R. D. Adamson,  B. Austin,  J. Baker,  G. J. O. Beran,  K. Brandhorst,
 S. T. Brown,  E. F. C. Byrd,  A. K. Chakraborty,  C.-L. Cheng,
 Siu Hung Chien,  D. M. Chipman,  D. L. Crittenden,  H. Dachsel,
 R. A. DiStasio Jr.,  R. J. Doerksen,  A. D. Dutoi,  L. Fusti-Molnar,
 W. A. Goddard III,  A. Golubeva-Zadorozhnaya,  S. R. Gwaltney,  G. Hawkins,
 A. Heyden,  S. Hirata,  G. Kedziora,  F. J. Keil,  C. Kelley,  Jihan Kim,
 R. A. King,  R. Z. Khaliullin,  P. P. Korambath,  W. Kurlancheek,
 A. M. Lee,  M. S. Lee,  S. V. Levchenko,  Ching Yeh Lin,  D. Liotard,
 R. C. Lochan,  I. Lotan,  P. E. Maslen,  N. Nair,  D. P. O'Neill,
 D. Neuhauser,  E. Neuscamman,  C. M. Oana,  R. Olson,  B. Peters,
 R. Peverati,  P. A. Pieniazek,  Y. M. Rhee,  J. Ritchie,  M. A. Rohrdanz,
 E. Rosta,  N. J. Russ,  H. F. Schaefer III,  N. E. Schultz,  N. Shenvi,
 A. C. Simmonett,  A. Sodt,  D. Stuck,  K. S. Thanthiriwatte,  V. Vanovschi,
 Tao Wang,  A. Warshel,  C. F. Williams,  Q. Wu,  X. Xu,  W. Zhang

 Please cite Q-Chem as follows:
 Y. Shao et al., Mol. Phys. 113, 184-215 (2015)
 DOI: 10.1080/00268976.2014.952696

 Q-Chem 5.0.0 for Intel X86 EM64T Linux

 Parts of Q-Chem use Armadillo 5.200.1 (Boston Tea Smuggler).
 http://arma.sourceforge.net/

 Q-Chem begins on Wed Oct  4 17:38:08 2017

Host: nid00666
0

     Scratch files written to /global/cscratch1/sd/junteng/scratch/14/opt_1101-o.save//
The previous job contains 0 fragments, simply inherited here

Checking the input file for inconsistencies... 	...done.

--------------------------------------------------------------
User input:
--------------------------------------------------------------

$molecule
   read
$end

$rem
JOBTYPE                   OPT
METHOD                    B3LYP
DFT_D                     D3_OP
BASIS                     6-311++G(d,p)
GEOM_OPT_MAX_CYCLES       500
GEOM_OPT_TOL_GRADIENT     1
GEOM_OPT_TOL_DISPLACEMENT 1
GEOM_OPT_TOL_ENERGY       1
SYMMETRY                  False
THRESH                    12
SCF_CONVERGENCE           8
MAX_SUB_FILE_NUM          128
MEM_STATIC                400
MEM_TOTAL                 4000
$end

--------------------------------------------------------------

   10    -805.1940617804      7.21E-09 Convergence criterion met
 Total energy in the final basis set = -805.1940617804
    9    -805.1940617696      9.67E-09 Convergence criterion met
 Total energy in the final basis set = -805.1940617696
    8    -805.1940617209      6.30E-09 Convergence criterion met
 Total energy in the final basis set = -805.1940617209
    7    -805.1940616421      8.42E-09 Convergence criterion met
 Total energy in the final basis set = -805.1940616421
    6    -805.1940616513      6.42E-09 Convergence criterion met
 Total energy in the final basis set = -805.1940616513
    5    -805.1940616457      7.08E-09 Convergence criterion met
 Total energy in the final basis set = -805.1940616457
 Final energy is   -805.194061645662
        *  Thank you very much for using Q-Chem.  Have a nice day.  *
 Q-Chem 5.0, Q-Chem, Inc., Pleasanton, CA (2017)
 Q-Chem 5.0.0 for Intel X86 EM64T Linux

             Standard Nuclear Orientation (Angstroms)
    I     Atom           X                Y                Z
 ----------------------------------------------------------------
    1      C      -0.0488119964     0.8276605591     0.6264766342
    2      C       0.6580990694    -0.5675019230     0.5963314168
    3      C      -1.3324509732     0.9274943279    -0.1686691367
    4      C      -0.2328575284    -1.7147504549     0.1438449162
    5      O      -2.0725828140     1.9686471554     0.2778773653
    6      O      -1.6563332045     0.2380755460    -1.1023314965
    7      O      -1.3060139759    -1.7799297075     0.9708654294
    8      O      -0.0307872533    -2.5075128886    -0.7367286504
    9      C      -2.3086005210    -2.7494953680     0.6169473085
   10      C      -3.2925090205     2.2256077018    -0.4433733548
   11      C       1.0381280188     1.7065535288    -0.0666247640
   12      C       2.2401690426     1.8797029993     0.8866461441
   13      C       2.9191381036     0.4878266103     0.7537770824
   14      C       1.9602214163    -0.2519708306    -0.2226532401
   15      O       1.5333938039     0.8341494988    -1.0774304530
   16      H      -0.2506895219     1.1708977845     1.6400261647
   17      H       0.9296703478    -0.8311635366     1.6223741247
   18      H      -1.8926257569    -3.7579655226     0.6341548836
   19      H      -3.0777765771     2.4543258905    -1.4883233255
   20      H       2.8926457751     2.6780321015     0.5300691293
   21      H       1.9330506004     2.1227893643     1.9057832680
   22      H       3.9056420066     0.5721952873     0.2954263889
   23      H       3.0323974501    -0.0347846398     1.7056148033
   24      H      -3.0905528161    -2.6454283871     1.3663448372
   25      H      -2.6970213860    -2.5325163850    -0.3792043129
   26      H      -3.7476404291     3.0806138359     0.0516455880
   27      H      -3.9521654216     1.3579175801    -0.3951244012
   28      H       0.6563588751     2.6215424874    -0.5153156431
   29      C       2.6114467628    -1.3439684010    -1.0415013060
   30      H       3.5119019950    -0.9448520110    -1.5145697122
   31      H       2.8987456292    -2.1812278963    -0.4003478178
   32      H       1.9348125359    -1.7207652847    -1.8037817374
 ----------------------------------------------------------------

   15    -805.1940737663      3.66E-09 Convergence criterion met
 Total energy in the final basis set = -805.1940737663

                    Orbital Energies (a.u.)
 --------------------------------------------------------------

 Alpha MOs
 -- Occupied --
-19.177 -19.166 -19.128 -19.118 -19.111 -10.308 -10.303 -10.238
-10.238 -10.232 -10.222 -10.205 -10.203 -10.181 -10.177 -10.154
 -1.118  -1.107  -1.062  -1.030  -1.022  -0.831  -0.793  -0.780
 -0.748  -0.724  -0.686  -0.650  -0.603  -0.594  -0.569  -0.553
 -0.532  -0.510  -0.504  -0.491  -0.489  -0.482  -0.477  -0.471
 -0.458  -0.436  -0.425  -0.420  -0.417  -0.407  -0.394  -0.377
 -0.373  -0.369  -0.365  -0.359  -0.359  -0.349  -0.335  -0.328
 -0.319  -0.307  -0.290  -0.275  -0.271

          Ground-State Mulliken Net Atomic Charges

     Atom                 Charge (a.u.)
  ----------------------------------------
      1 C                     0.039356
      2 C                     0.302844
      3 C                    -0.920289
      4 C                    -0.433729
      5 O                    -0.011326
      6 O                    -0.187499
      7 O                    -0.018944
      8 O                    -0.188565
      9 C                    -0.180794
     10 C                    -0.230787
     11 C                     0.467518
     12 C                    -0.454486
     13 C                    -0.461526
     14 C                    -0.290817
     15 O                    -0.051733
     16 H                     0.289573
     17 H                     0.249790
     18 H                     0.165947
     19 H                     0.184069
     20 H                     0.184067
     21 H                     0.121362
     22 H                     0.173688
     23 H                     0.142949
     24 H                     0.148978
     25 H                     0.189854
     26 H                     0.150948
     27 H                     0.170175
     28 H                     0.277457
     29 C                    -0.338017
     30 H                     0.143105
     31 H                     0.158078
     32 H                     0.208756
  ----------------------------------------
  Sum of atomic charges =     0.000000

                    Cartesian Multipole Moments
 -----------------------------------------------------------------
    Charge (ESU x 10^10)
                 0.0000
    Dipole Moment (Debye)
         X      -0.8220      Y       1.9559      Z       3.4287
       Tot       4.0321
    Quadrupole Moments (Debye-Ang)
        XX     -82.7546     XY      -0.7710     YY     -91.7324
        XZ       2.3189     YZ      -4.4226     ZZ    -100.3302

 Frequency:        25.25                  34.03                  78.44
 Force Cnst:      0.0014                 0.0031                 0.0069
 Red. Mass:       3.6420                 4.5383                 1.9115
 IR Intens:        0.128                  0.581                  0.126
 Frequency:        83.44                 111.15                 124.20
 Force Cnst:      0.0147                 0.0130                 0.0211
 Red. Mass:       3.5938                 1.7852                 2.3247
 IR Intens:        4.954                  0.035                  1.056
 Frequency:       144.47                 153.36                 188.86
 Force Cnst:      0.0471                 0.0188                 0.0738
 Red. Mass:       3.8305                 1.3555                 3.5129
 IR Intens:        1.960                  0.321                  0.454
 Frequency:       213.73                 232.19                 245.08
 Force Cnst:      0.1131                 0.0769                 0.0487
 Red. Mass:       4.2034                 2.4215                 1.3763
 IR Intens:        1.483                  4.048                  1.688
 Frequency:       268.02                 294.53                 317.27
 Force Cnst:      0.1727                 0.2533                 0.1702
 Red. Mass:       4.0804                 4.9560                 2.8700
 IR Intens:        3.686                  3.983                  8.829
 Frequency:       328.55                 343.97                 359.21
 Force Cnst:      0.1900                 0.3069                 0.2078
 Red. Mass:       2.9872                 4.4030                 2.7328
 IR Intens:        0.031                 13.094                  2.888
 Frequency:       378.69                 476.78                 574.25
 Force Cnst:      0.4105                 0.5342                 0.7242
 Red. Mass:       4.8587                 3.9885                 3.7276
 IR Intens:        8.431                 13.560                 17.260
 Frequency:       606.44                 644.57                 663.83
 Force Cnst:      1.1217                 1.1708                 1.1139
 Red. Mass:       5.1766                 4.7830                 4.2903
 IR Intens:       11.258                  4.318                  0.192
 Frequency:       700.03                 750.40                 802.19
 Force Cnst:      1.7674                 1.7323                 1.3377
 Red. Mass:       6.1214                 5.2215                 3.5281
 IR Intens:        4.277                  4.599                  4.987
 Frequency:       814.09                 831.36                 841.72
 Force Cnst:      0.9729                 1.7288                 1.6505
 Red. Mass:       2.4916                 4.2454                 3.9540
 IR Intens:       10.710                 12.920                 10.781
 Frequency:       858.63                 898.57                 904.42
 Force Cnst:      1.2445                 1.1987                 1.3229
 Red. Mass:       2.8651                 2.5198                 2.7450
 IR Intens:       10.472                  7.055                  3.417
 Frequency:       915.34                 933.80                 967.39
 Force Cnst:      1.2191                 1.5834                 2.3678
 Red. Mass:       2.4695                 3.0820                 4.2943
 IR Intens:       12.512                  5.904                  2.829
 Frequency:       974.00                 993.80                1011.78
 Force Cnst:      1.9986                 1.7422                 2.4494
 Red. Mass:       3.5756                 2.9940                 4.0611
 IR Intens:       14.867                 14.199                 41.777
 Frequency:      1036.24                1061.95                1074.11
 Force Cnst:      1.1880                 2.5280                 1.7218
 Red. Mass:       1.8777                 3.8047                 2.5330
 IR Intens:       25.778                 59.702                 22.060
 Frequency:      1123.88                1137.70                1171.05
 Force Cnst:      1.3704                 1.2796                 1.0975
 Red. Mass:       1.8414                 1.6779                 1.3584
 IR Intens:       31.126                 13.902                 24.468
 Frequency:      1171.28                1178.94                1189.07
 Force Cnst:      1.0406                 1.9336                 1.6875
 Red. Mass:       1.2874                 2.3612                 2.0257
 IR Intens:        3.526                183.422                296.982
 Frequency:      1201.94                1204.68                1211.20
 Force Cnst:      1.3573                 1.3921                 1.3449
 Red. Mass:       1.5946                 1.6280                 1.5560
 IR Intens:       12.347                 43.642                 21.521
 Frequency:      1212.89                1216.72                1249.62
 Force Cnst:      1.5227                 1.5352                 1.3966
 Red. Mass:       1.7568                 1.7601                 1.5180
 IR Intens:      141.390                 79.697                 14.327
 Frequency:      1255.04                1290.53                1317.48
 Force Cnst:      1.1775                 1.8476                 1.4598
 Red. Mass:       1.2689                 1.8829                 1.4275
 IR Intens:        4.022                  8.499                 17.032
 Frequency:      1325.23                1336.23                1362.45
 Force Cnst:      1.6395                 2.0299                 1.7469
 Red. Mass:       1.5845                 1.9296                 1.5973
 IR Intens:       19.832                 10.297                 84.836
 Frequency:      1389.02                1431.21                1466.18
 Force Cnst:      1.9214                 1.5969                 1.5004
 Red. Mass:       1.6902                 1.3232                 1.1847
 IR Intens:       49.463                 14.922                 12.521
 Frequency:      1468.99                1481.83                1483.03
 Force Cnst:      1.5289                 1.3533                 1.3896
 Red. Mass:       1.2025                 1.0460                 1.0723
 IR Intens:       15.998                  8.136                  1.820
 Frequency:      1484.09                1490.83                1497.06
 Force Cnst:      1.3556                 1.3855                 1.3805
 Red. Mass:       1.0446                 1.0581                 1.0454
 IR Intens:       11.208                  2.307                 12.162
 Frequency:      1498.95                1499.76                1508.64
 Force Cnst:      1.3872                 1.3948                 1.4736
 Red. Mass:       1.0479                 1.0525                 1.0989
 IR Intens:       10.919                  8.630                  6.247
 Frequency:      1795.13                1811.36                3044.63
 Force Cnst:     21.6481                22.1984                 5.6835
 Red. Mass:      11.4018                11.4831                 1.0406
 IR Intens:       89.843                348.794                 19.104
 Frequency:      3048.71                3049.80                3055.06
 Force Cnst:      5.6373                 5.6425                 5.8762
 Red. Mass:       1.0294                 1.0296                 1.0686
 IR Intens:       34.027                 37.079                 12.321
 Frequency:      3059.84                3067.35                3093.95
 Force Cnst:      5.9071                 5.8873                 6.2457
 Red. Mass:       1.0708                 1.0620                 1.1074
 IR Intens:       23.060                 37.858                  0.597
 Frequency:      3102.62                3110.25                3116.53
 Force Cnst:      6.2499                 6.2472                 6.2733
 Red. Mass:       1.1020                 1.0961                 1.0962
 IR Intens:       12.662                 17.173                 37.787
 Frequency:      3122.45                3123.64                3128.20
 Force Cnst:      6.3592                 6.3654                 6.2851
 Red. Mass:       1.1070                 1.1073                 1.0901
 IR Intens:       19.165                 15.259                 23.777
 Frequency:      3152.59                3157.16                3164.37
 Force Cnst:      6.4788                 6.4973                 6.4729
 Red. Mass:       1.1064                 1.1063                 1.0972
 IR Intens:       14.468                 14.497                  2.845

 STANDARD THERMODYNAMIC QUANTITIES AT   298.15 K  AND     1.00 ATM

   This Molecule has  0 Imaginary Frequencies
   Zero point vibrational energy:      166.287 kcal/mol

   Atom    1 Element C  Has Mass   12.00000
   Atom    2 Element C  Has Mass   12.00000
   Atom    3 Element C  Has Mass   12.00000
   Atom    4 Element C  Has Mass   12.00000
   Atom    5 Element O  Has Mass   15.99491
   Atom    6 Element O  Has Mass   15.99491
   Atom    7 Element O  Has Mass   15.99491
   Atom    8 Element O  Has Mass   15.99491
   Atom    9 Element C  Has Mass   12.00000
   Atom   10 Element C  Has Mass   12.00000
   Atom   11 Element C  Has Mass   12.00000
   Atom   12 Element C  Has Mass   12.00000
   Atom   13 Element C  Has Mass   12.00000
   Atom   14 Element C  Has Mass   12.00000
   Atom   15 Element O  Has Mass   15.99491
   Atom   16 Element H  Has Mass    1.00783
   Atom   17 Element H  Has Mass    1.00783
   Atom   18 Element H  Has Mass    1.00783
   Atom   19 Element H  Has Mass    1.00783
   Atom   20 Element H  Has Mass    1.00783
   Atom   21 Element H  Has Mass    1.00783
   Atom   22 Element H  Has Mass    1.00783
   Atom   23 Element H  Has Mass    1.00783
   Atom   24 Element H  Has Mass    1.00783
   Atom   25 Element H  Has Mass    1.00783
   Atom   26 Element H  Has Mass    1.00783
   Atom   27 Element H  Has Mass    1.00783
   Atom   28 Element H  Has Mass    1.00783
   Atom   29 Element C  Has Mass   12.00000
   Atom   30 Element H  Has Mass    1.00783
   Atom   31 Element H  Has Mass    1.00783
   Atom   32 Element H  Has Mass    1.00783
   Molecular Mass:   228.099830 amu
   Principal axes and moments of inertia in amu*Bohr^2:
                             1           2           3
    Eigenvalues --     2654.32291  3419.14616  5127.07956
          X               0.99998    -0.00315     0.00561
          Y               0.00313     0.99999     0.00239
          Z              -0.00561    -0.00237     0.99998
   Rotational Symmetry Number is   1
   The Molecule is an Asymmetric Top
   Translational Enthalpy:        0.889 kcal/mol
   Rotational Enthalpy:           0.889 kcal/mol
   Vibrational Enthalpy:        174.464 kcal/mol
   gas constant (RT):             0.592 kcal/mol
   Translational Entropy:        42.176  cal/mol.K
   Rotational Entropy:           32.209  cal/mol.K
   Vibrational Entropy:          53.897  cal/mol.K

   Total Enthalpy:              176.834 kcal/mol
   Total Entropy:               128.282  cal/mol.K

 Total job time:  10263.96s(wall), 59518.50s(cpu)
        *  Thank you very much for using Q-Chem.  Have a nice day.  *
