 Q-Chem 5.0, Q-Chem, Inc., Pleasanton, CA (2017)
 Q-Chem 5.0.0 for Intel X86 EM64T Linux

User input:
--------------------------------------------------------------
$molecule
0  1
C         -1.03100       -1.18000       -0.63600
C          0.19600       -0.19600       -0.72400
C         -2.21400       -0.64900        0.15900
C         -0.06100        1.17900       -0.14200
O         -3.33192       -1.35015       -0.14296
O         -2.17897        0.23706        0.98086
O         -1.03940        1.81695       -0.81438
O          0.52554        1.66266        0.80471
C         -1.34996        3.13021       -0.32567
C         -4.54236       -0.85032        0.44958
C         -0.38900       -2.40000        0.05700
C          0.59400       -3.10100       -0.90800
C          1.80500       -2.12100       -0.86800
C          1.26700       -1.02200        0.08200
O          0.48200       -1.77600        1.01100
H         -1.39900       -1.40600       -1.64200
H          0.51000       -0.06500       -1.75800
H         -0.46720        3.77549       -0.37366
H         -4.73040        0.16961        0.10323
H          0.86500       -4.08800       -0.52300
H          0.17700       -3.23400       -1.91200
H          2.68300       -2.59500       -0.41800
H          2.09500       -1.73300       -1.84700
H         -2.13967        3.50721       -0.97579
H         -1.69414        3.08174        0.71214
H         -4.46978       -0.85427        1.54004
H         -5.33181       -1.52390        0.11287
H         -1.10100       -3.03800        0.57700
C          2.29700       -0.20400        0.83400
O          2.85100        0.71200       -0.09600
H          3.07200       -0.86600        1.25200
H          1.80100        0.31800        1.66200
C          3.70500        1.66100        0.51100
H          4.05400        2.33100       -0.27900
H          4.57600        1.18200        0.98600
H          3.17300        2.25000        1.27600
$end

$opt
CONSTRAINT
tors    1    2    4    8    117.4
tors    2    1    3    6    -20.6
ENDCONSTRAINT
$end

$rem
JOBTYPE                   OPT
METHOD                    B3LYP
DFT_D                     D3_OP
BASIS                     STO-3G
GEOM_OPT_MAX_CYCLES       500
SYMMETRY                  False
THRESH                    12
SCF_CONVERGENCE           8
MAX_SUB_FILE_NUM          128
MEM_STATIC                400
MEM_TOTAL                 4000
$end

--------------------------------------------------------------

   14    -907.5488130169      6.00E-09 Convergence criterion met
 Total energy in the final basis set = -907.5488130169
   13    -907.5853285043      3.91E-09 Convergence criterion met
 Total energy in the final basis set = -907.5853285043
   13    -907.5928461525      6.11E-09 Convergence criterion met
 Total energy in the final basis set = -907.5928461525
   12    -907.5945739466      8.64E-09 Convergence criterion met
 Total energy in the final basis set = -907.5945739466
   12    -907.5948667984      3.42E-09 Convergence criterion met
 Total energy in the final basis set = -907.5948667984
   11    -907.5950388810      8.38E-09 Convergence criterion met
 Total energy in the final basis set = -907.5950388810
   11    -907.5951159839      6.08E-09 Convergence criterion met
 Total energy in the final basis set = -907.5951159839
   11    -907.5951937985      7.24E-09 Convergence criterion met
 **  OPTIMIZATION CONVERGED  **
 Total job time:  82.27s(wall), 1870.92s(cpu)
        *  Thank you very much for using Q-Chem.  Have a nice day.  *

User input: 2 of 3

nid03293 10.128.12
Q-Chem Developer Version! Running on 10.128.12.*
                  Welcome to Q-Chem
     A Quantum Leap Into The Future Of Chemistry

 Q-Chem 5.0, Q-Chem, Inc., Pleasanton, CA (2017)

 Yihan Shao,  Zhengting Gan,  E. Epifanovsky,  A. T. B. Gilbert,  M. Wormit,
 J. Kussmann,  A. W. Lange,  A. Behn,  Jia Deng,  Xintian Feng,  D. Ghosh,
 M. Goldey,  P. R. Horn,  L. D. Jacobson,  I. Kaliman,  T. Kus,  A. Landau,
 Jie Liu,  E. I. Proynov,  R. M. Richard,  R. P. Steele,  E. J. Sundstrom,
 H. L. Woodcock III,  P. M. Zimmerman,  D. Zuev,  B. Albrecht,  E. Alguire,
 S. A. Baeppler,  Z. Benda,  Y. A. Bernard,  E. J. Berquist,  K. B. Bravaya,
 D. Casanova,  Chun-Min Chang,  Yunqing Chen,  A. Chien,  K. D. Closser,
 M. P. Coons,  S. Dasgupta,  M. Diedenhofen,  Hainam Do,  R. G. Edgar,
 Po-Tung Fang,  S. Fatehi,  Qingguo Feng,  Qinghui Ge,  A. Ghysels,
 J. Gomes,  J. Gonthier,  A. Gunina,  M. W. D. Hanson-Heine,
 P. H. P. Harbach,  A. W. Hauser,  J. E. Herr,  E. G. Hohenstein,
 Z. C. Holden,  Kerwin Hui,  T.-C. Jagau,  Hyunjun Ji,  B. Kaduk,
 K. Khistyaev,  Jaehoon Kim,  P. Klunzinger,  K. Koh,  D. Kosenkov,
 T. Kowalczyk,  C. M. Krauter,  A. Kunitsa,  Ka Un Lao,  A. Laurent,
 K. V. Lawler,  Joonho Lee,  D. Lefrancois,  S. Lehtola,  D. S. Levine,
 Yi-Pei Li,  You-Sheng Lin,  Fenglai Liu,  E. Livshits,  A. Luenser,
 P. Manohar,  E. Mansoor,  S. F. Manzer,  Shan-Ping Mao,  Yuezhi Mao,
 N. Mardirossian,  A. V. Marenich,  L. A. Martinez-Martinez,  S. A. Maurer,
 N. J. Mayhall,  S. C. McKenzie,  J.-M. Mewes,  A. F. Morrison,  K. Nanda,
 T. S. Nguyen-Beck,  R. Olivares-Amaya,  J. A. Parkhill,  T. M. Perrine,
 F. Plasser,  S. Prager,  A. Prociuk,  D. R. Rehn,  F. Rob,  M. Schneider,
 N. Sergueev,  S. M. Sharada,  S. Sharma,  D. W. Small,  T. Stauch,
 T. Stein,  Yu-Chuan Su,  A. J. W. Thom,  T. Tsuchimochi,  L. Vogt,
 O. Vydrov,  M. A. Watson,  J. Wenzel,  M. de Wergifosse,  T. A. Wesolowski,
 A. White,  J. Witte,  A. Yamada,  Jun Yang,  K. Yao,  S. Yeganeh,
 S. R. Yost,  Zhi-Qiang You,  A. Zech,  Igor Ying Zhang,  Xing Zhang,
 Yan Zhao,  Ying Zhu,  B. R. Brooks,  G. K. L. Chan,  C. J. Cramer,
 M. S. Gordon,  W. J. Hehre,  A. Klamt,  M. W. Schmidt,  C. D. Sherrill,
 D. G. Truhlar,  A. Aspuru-Guzik,  R. Baer,  A. T. Bell,  N. A. Besley,
 Jeng-Da Chai,  A. Dreuw,  B. D. Dunietz,  T. R. Furlani,  Chao-Ping Hsu,
 Yousung Jung,  Jing Kong,  D. S. Lambrecht,  WanZhen Liang,  C. Ochsenfeld,
 V. A. Rassolov,  L. V. Slipchenko,  J. E. Subotnik,  T. Van Voorhis,
 J. M. Herbert,  A. I. Krylov,  P. M. W. Gill,  M. Head-Gordon

 Contributors to earlier versions of Q-Chem not listed above:
 R. D. Adamson,  B. Austin,  J. Baker,  G. J. O. Beran,  K. Brandhorst,
 S. T. Brown,  E. F. C. Byrd,  A. K. Chakraborty,  C.-L. Cheng,
 Siu Hung Chien,  D. M. Chipman,  D. L. Crittenden,  H. Dachsel,
 R. A. DiStasio Jr.,  R. J. Doerksen,  A. D. Dutoi,  L. Fusti-Molnar,
 W. A. Goddard III,  A. Golubeva-Zadorozhnaya,  S. R. Gwaltney,  G. Hawkins,
 A. Heyden,  S. Hirata,  G. Kedziora,  F. J. Keil,  C. Kelley,  Jihan Kim,
 R. A. King,  R. Z. Khaliullin,  P. P. Korambath,  W. Kurlancheek,
 A. M. Lee,  M. S. Lee,  S. V. Levchenko,  Ching Yeh Lin,  D. Liotard,
 R. C. Lochan,  I. Lotan,  P. E. Maslen,  N. Nair,  D. P. O'Neill,
 D. Neuhauser,  E. Neuscamman,  C. M. Oana,  R. Olson,  B. Peters,
 R. Peverati,  P. A. Pieniazek,  Y. M. Rhee,  J. Ritchie,  M. A. Rohrdanz,
 E. Rosta,  N. J. Russ,  H. F. Schaefer III,  N. E. Schultz,  N. Shenvi,
 A. C. Simmonett,  A. Sodt,  D. Stuck,  K. S. Thanthiriwatte,  V. Vanovschi,
 Tao Wang,  A. Warshel,  C. F. Williams,  Q. Wu,  X. Xu,  W. Zhang

 Please cite Q-Chem as follows:
 Y. Shao et al., Mol. Phys. 113, 184-215 (2015)
 DOI: 10.1080/00268976.2014.952696

 Q-Chem 5.0.0 for Intel X86 EM64T Linux

 Parts of Q-Chem use Armadillo 5.200.1 (Boston Tea Smuggler).
 http://arma.sourceforge.net/

 Q-Chem begins on Wed Oct 18 12:19:16 2017

Host: nid03293
0

     Scratch files written to /global/cscratch1/sd/junteng/scratch/13/opt_1301.save//
The previous job contains 0 fragments, simply inherited here

Checking the input file for inconsistencies... 	...done.

--------------------------------------------------------------
User input:
--------------------------------------------------------------

$molecule
   read
$end

$rem
JOBTYPE                   OPT
METHOD                    B3LYP
DFT_D                     D3_OP
BASIS                     6-311++G(d,p)
GEOM_OPT_MAX_CYCLES       500
GEOM_OPT_TOL_GRADIENT     1
GEOM_OPT_TOL_DISPLACEMENT 1
GEOM_OPT_TOL_ENERGY       1
SYMMETRY                  False
THRESH                    12
SCF_CONVERGENCE           8
MAX_SUB_FILE_NUM          128
MEM_STATIC                400
MEM_TOTAL                 4000
$end

--------------------------------------------------------------

    5    -919.7467586590      5.96E-09 Convergence criterion met
 Total energy in the final basis set = -919.7467586590
    5    -919.7467586723      4.79E-09 Convergence criterion met
 Total energy in the final basis set = -919.7467586723
    4    -919.7467586606      8.82E-09 Convergence criterion met
 Total energy in the final basis set = -919.7467586606
    5    -919.7467586723      5.64E-09 Convergence criterion met
 Total energy in the final basis set = -919.7467586723
    5    -919.7467586612      3.85E-09 Convergence criterion met
 Total energy in the final basis set = -919.7467586612
    4    -919.7467586711      7.25E-09 Convergence criterion met
 Total energy in the final basis set = -919.7467586711
 Final energy is   -919.746758671088
        *  Thank you very much for using Q-Chem.  Have a nice day.  *
 Q-Chem 5.0, Q-Chem, Inc., Pleasanton, CA (2017)
 Q-Chem 5.0.0 for Intel X86 EM64T Linux

             Standard Nuclear Orientation (Angstroms)
    I     Atom           X                Y                Z
 ----------------------------------------------------------------
    1      C      -1.0487282988    -0.7524564412    -0.6211513591
    2      C       0.3233426770    -0.0020856235    -0.6761015256
    3      C      -2.1303787974    -0.0951740965     0.2094943914
    4      C       0.2638498527     1.4555025239    -0.2389257044
    5      O      -3.3352866895    -0.6174086324    -0.1186228947
    6      O      -1.9790746603     0.7270987931     1.0765236302
    7      O      -0.5698875032     2.1165380236    -1.0789189530
    8      O       0.8729876740     1.9967495105     0.6451717887
    9      C      -0.8289604820     3.4917460283    -0.7463906084
   10      C      -4.4568465740    -0.1540347461     0.6569507404
   11      C      -0.6193597868    -2.0805463422     0.0782854474
   12      C       0.2288164958    -2.9246035497    -0.8953367993
   13      C       1.5830658684    -2.1614055280    -0.8457250648
   14      C       1.2463225701    -0.9901419636     0.1136848094
   15      O       0.3342676545    -1.6180648415     1.0379600290
   16      H      -1.4568769796    -0.9427608243    -1.6129067275
   17      H       0.6487718039     0.0431248012    -1.7170361007
   18      H       0.0954687542     4.0707844982    -0.7594160280
   19      H      -4.5650858955     0.9273374384     0.5623871386
   20      H       0.3294276309    -3.9447939140    -0.5220458560
   21      H      -0.2096824050    -2.9718380563    -1.8940889061
   22      H       2.3691167714    -2.7751792414    -0.4029305927
   23      H       1.9334563373    -1.8145837024    -1.8177405277
   24      H      -1.5159825674     3.8512034560    -1.5098263016
   25      H      -1.2839548776     3.5543637688     0.2433347283
   26      H      -4.3243273800    -0.4107945249     1.7091769348
   27      H      -5.3247631048    -0.6636016754     0.2442838653
   28      H      -1.4281201037    -2.6063994964     0.5813655530
   29      C       2.4312599410    -0.4244932659     0.8649575418
   30      O       3.2785395297     0.1860114118    -0.0963686779
   31      H       2.9527799270    -1.2457494964     1.3778089131
   32      H       2.0923290921     0.3012817472     1.6061264139
   33      C       4.2389632344     1.0489392243     0.4857516925
   34      H       4.8269741544     1.4705013325    -0.3303046171
   35      H       4.9098100490     0.5022298338     1.1635819108
   36      H       3.7502105502     1.8600026139     1.0393094533
 ----------------------------------------------------------------

   15    -919.7468979496      3.51E-09 Convergence criterion met
 Total energy in the final basis set = -919.7468979496

                    Orbital Energies (a.u.)
 --------------------------------------------------------------

 Alpha MOs
 -- Occupied --
-19.177 -19.164 -19.132 -19.123 -19.120 -19.109 -10.308 -10.302
-10.239 -10.237 -10.232 -10.221 -10.210 -10.206 -10.206 -10.201
-10.180 -10.175  -1.118  -1.106  -1.066  -1.034  -1.031  -1.021
 -0.831  -0.793  -0.780  -0.749  -0.723  -0.704  -0.655  -0.639
 -0.604  -0.591  -0.570  -0.552  -0.534  -0.515  -0.504  -0.494
 -0.491  -0.485  -0.481  -0.477  -0.473  -0.462  -0.457  -0.441
 -0.426  -0.420  -0.418  -0.409  -0.395  -0.391  -0.373  -0.370
 -0.364  -0.360  -0.359  -0.352  -0.341  -0.330  -0.321  -0.320
 -0.306  -0.291  -0.276  -0.274  -0.258

          Ground-State Mulliken Net Atomic Charges

     Atom                 Charge (a.u.)
  ----------------------------------------
      1 C                     0.246494
      2 C                     0.236481
      3 C                    -0.892625
      4 C                    -0.568305
      5 O                    -0.023598
      6 O                    -0.183997
      7 O                     0.002148
      8 O                    -0.176561
      9 C                    -0.187200
     10 C                    -0.237728
     11 C                     0.309288
     12 C                    -0.494017
     13 C                    -0.303973
     14 C                    -0.836260
     15 O                    -0.028193
     16 H                     0.289277
     17 H                     0.287902
     18 H                     0.166013
     19 H                     0.172333
     20 H                     0.182862
     21 H                     0.122569
     22 H                     0.176088
     23 H                     0.182575
     24 H                     0.148023
     25 H                     0.191931
     26 H                     0.183735
     27 H                     0.151336
     28 H                     0.277088
     29 C                     0.107796
     30 O                    -0.069785
     31 H                     0.154119
     32 H                     0.231001
     33 C                    -0.234135
     34 H                     0.140458
     35 H                     0.128439
     36 H                     0.148421
  ----------------------------------------
  Sum of atomic charges =     0.000000

                    Cartesian Multipole Moments
 -----------------------------------------------------------------
    Charge (ESU x 10^10)
                 0.0000
    Dipole Moment (Debye)
         X      -1.8702      Y      -0.9420      Z      -2.1841
       Tot       3.0258
    Quadrupole Moments (Debye-Ang)
        XX     -93.1696     XY      -0.1204     YY    -100.0059
        XZ       0.6064     YZ      -1.9858     ZZ    -110.7657

 Frequency:        31.14                  34.99                  43.70
 Force Cnst:      0.0026                 0.0040                 0.0036
 Red. Mass:       4.5332                 5.5888                 3.2148
 IR Intens:        0.392                  1.049                  1.835
 Frequency:        81.49                  96.51                 111.58
 Force Cnst:      0.0153                 0.0168                 0.0186
 Red. Mass:       3.9218                 3.0574                 2.5366
 IR Intens:        3.488                  2.695                  2.873
 Frequency:       119.56                 134.37                 144.66
 Force Cnst:      0.0202                 0.0253                 0.0220
 Red. Mass:       2.4037                 2.3790                 1.7812
 IR Intens:        2.031                  2.619                  0.573
 Frequency:       150.61                 165.26                 190.37
 Force Cnst:      0.0333                 0.0198                 0.0643
 Red. Mass:       2.4890                 1.2322                 3.0119
 IR Intens:        1.019                  0.129                  0.396
 Frequency:       208.53                 215.70                 238.25
 Force Cnst:      0.0482                 0.1029                 0.1109
 Red. Mass:       1.8823                 3.7533                 3.3151
 IR Intens:        3.390                  1.460                  2.866
 Frequency:       270.18                 299.19                 317.00
 Force Cnst:      0.1942                 0.2023                 0.1980
 Red. Mass:       4.5147                 3.8359                 3.3449
 IR Intens:        4.608                  4.761                  5.101
 Frequency:       339.30                 343.54                 345.59
 Force Cnst:      0.2609                 0.3053                 0.1847
 Red. Mass:       3.8469                 4.3905                 2.6241
 IR Intens:        0.547                 29.168                  1.400
 Frequency:       367.01                 407.84                 482.75
 Force Cnst:      0.3686                 0.5335                 0.5293
 Red. Mass:       4.6441                 5.4443                 3.8550
 IR Intens:        8.526                  0.536                 12.144
 Frequency:       572.21                 633.89                 651.32
 Force Cnst:      0.7688                 1.3646                 1.1737
 Red. Mass:       3.9852                 5.7639                 4.6960
 IR Intens:       19.195                 16.386                  0.827
 Frequency:       679.34                 724.22                 752.64
 Force Cnst:      1.4511                 1.4410                 1.6968
 Red. Mass:       5.3366                 4.6631                 5.0841
 IR Intens:        4.063                  4.045                  2.305
 Frequency:       806.16                 816.58                 834.91
 Force Cnst:      1.4577                 0.9933                 1.6727
 Red. Mass:       3.8069                 2.5282                 4.0726
 IR Intens:        3.461                  7.376                 17.973
 Frequency:       850.13                 866.01                 906.68
 Force Cnst:      1.2442                 1.7279                 1.3362
 Red. Mass:       2.9219                 3.9103                 2.7586
 IR Intens:        1.534                  5.492                  4.257
 Frequency:       916.34                 928.83                 949.94
 Force Cnst:      1.3169                 1.3690                 2.4734
 Red. Mass:       2.6620                 2.6932                 4.6520
 IR Intens:       13.923                 17.069                 32.707
 Frequency:       968.44                 976.34                 996.35
 Force Cnst:      2.4773                 2.3951                 1.6802
 Red. Mass:       4.4831                 4.2645                 2.8727
 IR Intens:        1.490                 28.252                 11.388
 Frequency:      1004.53                1006.44                1061.52
 Force Cnst:      2.2660                 1.7457                 1.9597
 Red. Mass:       3.8114                 2.9251                 2.9518
 IR Intens:       19.230                 29.003                 17.212
 Frequency:      1075.09                1081.03                1127.04
 Force Cnst:      1.5299                 3.1398                 1.5767
 Red. Mass:       2.2467                 4.5602                 2.1068
 IR Intens:       32.906                 43.529                114.106
 Frequency:      1141.80                1170.20                1171.34
 Force Cnst:      2.4254                 1.1038                 1.0288
 Red. Mass:       3.1575                 1.3681                 1.2726
 IR Intens:       85.515                 44.116                  0.953
 Frequency:      1172.77                1180.33                1187.38
 Force Cnst:      1.0772                 1.8859                 1.4635
 Red. Mass:       1.3293                 2.2975                 1.7619
 IR Intens:       23.385                206.660                179.722
 Frequency:      1197.62                1201.19                1209.35
 Force Cnst:      1.4278                 1.4605                 1.3375
 Red. Mass:       1.6895                 1.7180                 1.5522
 IR Intens:      130.323                 46.295                  3.800
 Frequency:      1213.26                1215.90                1227.17
 Force Cnst:      1.5084                 1.4398                 1.3974
 Red. Mass:       1.7393                 1.6529                 1.5749
 IR Intens:      148.897                 80.386                 15.087
 Frequency:      1239.39                1253.08                1283.81
 Force Cnst:      1.1051                 1.2188                 1.4245
 Red. Mass:       1.2211                 1.3174                 1.4669
 IR Intens:        9.089                 10.917                 12.250
 Frequency:      1296.71                1318.02                1325.25
 Force Cnst:      1.5740                 1.4805                 1.5392
 Red. Mass:       1.5888                 1.4465                 1.4875
 IR Intens:        5.600                 11.556                 11.360
 Frequency:      1335.34                1371.61                1393.53
 Force Cnst:      2.0517                 1.7717                 1.8720
 Red. Mass:       1.9529                 1.5984                 1.6362
 IR Intens:        4.190                 97.249                 37.744
 Frequency:      1430.19                1467.95                1471.09
 Force Cnst:      1.8828                 1.5062                 1.5256
 Red. Mass:       1.5624                 1.1864                 1.1965
 IR Intens:        5.042                 13.333                 12.465
 Frequency:      1472.17                1484.42                1486.73
 Force Cnst:      1.4992                 1.3565                 1.3603
 Red. Mass:       1.1740                 1.0449                 1.0445
 IR Intens:        2.344                  8.631                 10.459
 Frequency:      1486.96                1490.01                1498.22
 Force Cnst:      1.3719                 1.4140                 1.3857
 Red. Mass:       1.0531                 1.0810                 1.0478
 IR Intens:        6.153                  2.148                 20.526
 Frequency:      1498.29                1499.54                1511.04
 Force Cnst:      1.3852                 1.4053                 1.4756
 Red. Mass:       1.0473                 1.0607                 1.0969
 IR Intens:        2.108                  6.258                 10.915
 Frequency:      1514.55                1796.39                1809.57
 Force Cnst:      1.4568                21.8712                21.6722
 Red. Mass:       1.0779                11.5032                11.2332
 IR Intens:       10.293                 59.401                388.893
 Frequency:      2976.00                2984.71                3034.77
 Force Cnst:      5.4478                 5.5914                 5.9675
 Red. Mass:       1.0440                 1.0653                 1.0997
 IR Intens:       60.215                 92.000                 39.006
 Frequency:      3048.96                3049.91                3060.48
 Force Cnst:      5.6370                 5.6433                 5.8478
 Red. Mass:       1.0292                 1.0297                 1.0596
 IR Intens:       33.733                 38.603                 26.582
 Frequency:      3070.35                3081.07                3093.10
 Force Cnst:      5.9053                 6.0632                 6.1554
 Red. Mass:       1.0632                 1.0841                 1.0920
 IR Intens:       28.366                  3.618                  8.122
 Frequency:      3099.82                3111.38                3111.61
 Force Cnst:      6.2536                 6.2611                 6.2076
 Red. Mass:       1.1046                 1.0977                 1.0882
 IR Intens:        5.280                 28.811                  5.804
 Frequency:      3122.66                3123.15                3123.72
 Force Cnst:      6.3423                 6.3623                 6.3655
 Red. Mass:       1.1039                 1.1071                 1.1072
 IR Intens:       25.130                 26.641                 14.626
 Frequency:      3132.34                3152.20                3156.88
 Force Cnst:      6.3001                 6.4774                 6.4955
 Red. Mass:       1.0898                 1.1064                 1.1062
 IR Intens:       23.062                 15.035                 14.426

 STANDARD THERMODYNAMIC QUANTITIES AT   298.15 K  AND     1.00 ATM

   This Molecule has  0 Imaginary Frequencies
   Zero point vibrational energy:      187.103 kcal/mol

   Atom    1 Element C  Has Mass   12.00000
   Atom    2 Element C  Has Mass   12.00000
   Atom    3 Element C  Has Mass   12.00000
   Atom    4 Element C  Has Mass   12.00000
   Atom    5 Element O  Has Mass   15.99491
   Atom    6 Element O  Has Mass   15.99491
   Atom    7 Element O  Has Mass   15.99491
   Atom    8 Element O  Has Mass   15.99491
   Atom    9 Element C  Has Mass   12.00000
   Atom   10 Element C  Has Mass   12.00000
   Atom   11 Element C  Has Mass   12.00000
   Atom   12 Element C  Has Mass   12.00000
   Atom   13 Element C  Has Mass   12.00000
   Atom   14 Element C  Has Mass   12.00000
   Atom   15 Element O  Has Mass   15.99491
   Atom   16 Element H  Has Mass    1.00783
   Atom   17 Element H  Has Mass    1.00783
   Atom   18 Element H  Has Mass    1.00783
   Atom   19 Element H  Has Mass    1.00783
   Atom   20 Element H  Has Mass    1.00783
   Atom   21 Element H  Has Mass    1.00783
   Atom   22 Element H  Has Mass    1.00783
   Atom   23 Element H  Has Mass    1.00783
   Atom   24 Element H  Has Mass    1.00783
   Atom   25 Element H  Has Mass    1.00783
   Atom   26 Element H  Has Mass    1.00783
   Atom   27 Element H  Has Mass    1.00783
   Atom   28 Element H  Has Mass    1.00783
   Atom   29 Element C  Has Mass   12.00000
   Atom   30 Element O  Has Mass   15.99491
   Atom   31 Element H  Has Mass    1.00783
   Atom   32 Element H  Has Mass    1.00783
   Atom   33 Element C  Has Mass   12.00000
   Atom   34 Element H  Has Mass    1.00783
   Atom   35 Element H  Has Mass    1.00783
   Atom   36 Element H  Has Mass    1.00783
   Molecular Mass:   258.110400 amu
   Principal axes and moments of inertia in amu*Bohr^2:
                             1           2           3
    Eigenvalues --     3026.21888  4969.84488  6985.79667
          X               1.00000    -0.00201     0.00198
          Y               0.00200     0.99997     0.00781
          Z              -0.00199    -0.00781     0.99997
   Rotational Symmetry Number is   1
   The Molecule is an Asymmetric Top
   Translational Enthalpy:        0.889 kcal/mol
   Rotational Enthalpy:           0.889 kcal/mol
   Vibrational Enthalpy:        196.838 kcal/mol
   gas constant (RT):             0.592 kcal/mol
   Translational Entropy:        42.544  cal/mol.K
   Rotational Entropy:           33.018  cal/mol.K
   Vibrational Entropy:          64.841  cal/mol.K

   Total Enthalpy:              199.208 kcal/mol
   Total Entropy:               140.404  cal/mol.K

 Total job time:  15068.08s(wall), 94429.13s(cpu)
        *  Thank you very much for using Q-Chem.  Have a nice day.  *
