 Q-Chem 5.0, Q-Chem, Inc., Pleasanton, CA (2017)
 Q-Chem 5.0.0 for Intel X86 EM64T Linux

User input:
--------------------------------------------------------------
$molecule
0  1
C    0.656  -1.997   0.550
C   -0.379  -2.055   1.685
C    1.075  -0.633   0.035
C   -0.743  -0.756   2.367
O    2.254  -0.766  -0.643
O    0.466   0.414   0.178
O    0.380  -0.211   2.923
O   -1.879  -0.339   2.537
C    0.159   1.039   3.578
C    2.798   0.433  -1.203
C   -0.074  -2.721  -0.584
C   -0.239  -4.209  -0.268
C   -1.341  -4.194   0.796
C   -1.585  -2.694   0.978
O   -1.425  -2.250  -0.391
H    1.566  -2.528   0.855
H   -0.041  -2.721   2.491
H   -0.505   1.690   2.999
H    2.061   1.233  -1.326
H    0.286  -2.514  -1.595
H   -0.592  -4.755  -1.150
H    0.687  -4.677   0.078
H   -2.237  -4.682   0.398
H   -1.053  -4.703   1.720
H   -2.574  -2.451   1.372
H   -0.249   0.863   4.578
H    1.124   1.543   3.677
H    3.204   0.190  -2.189
H    3.617   0.777  -0.565
$end

$opt
CONSTRAINT
tors    2    1    3    5    162.3
tors    1    2    4    7    -61.6
ENDCONSTRAINT
$end

$rem
JOBTYPE                   OPT
METHOD                    B3LYP
DFT_D                     D3_OP
BASIS                     6-311++G(d,p)
GEOM_OPT_MAX_CYCLES       500
GEOM_OPT_TOL_DISPLACEMENT 1
SYMMETRY                  False
THRESH                    12
SCF_CONVERGENCE           8
MAX_SUB_FILE_NUM          128
MEM_STATIC                400
MEM_TOTAL                 4000
$end

--------------------------------------------------------------

   15    -765.8534210001      3.61E-09 Convergence criterion met
 Total energy in the final basis set = -765.8534210001
   13    -765.8598102959      2.70E-09 Convergence criterion met
 Total energy in the final basis set = -765.8598102959
   12    -765.8607099647      4.80E-09 Convergence criterion met
 Total energy in the final basis set = -765.8607099647
   11    -765.8610460858      9.47E-09 Convergence criterion met
 Total energy in the final basis set = -765.8610460858
   11    -765.8611850456      4.10E-09 Convergence criterion met
 Total energy in the final basis set = -765.8611850456
   10    -765.8613347451      9.53E-09 Convergence criterion met
 Total energy in the final basis set = -765.8613347451
   11    -765.8615472579      3.63E-09 Convergence criterion met
 Total energy in the final basis set = -765.8615472579
   11    -765.8618499223      6.00E-09 Convergence criterion met
 **  OPTIMIZATION CONVERGED  **
 Total job time:  1384.71s(wall), 27896.62s(cpu)
        *  Thank you very much for using Q-Chem.  Have a nice day.  *

User input: 2 of 2

nid05255 10.128.20
Q-Chem Developer Version! Running on 10.128.20.*
                  Welcome to Q-Chem
     A Quantum Leap Into The Future Of Chemistry

 Q-Chem 5.0, Q-Chem, Inc., Pleasanton, CA (2017)

 Yihan Shao,  Zhengting Gan,  E. Epifanovsky,  A. T. B. Gilbert,  M. Wormit,
 J. Kussmann,  A. W. Lange,  A. Behn,  Jia Deng,  Xintian Feng,  D. Ghosh,
 M. Goldey,  P. R. Horn,  L. D. Jacobson,  I. Kaliman,  T. Kus,  A. Landau,
 Jie Liu,  E. I. Proynov,  R. M. Richard,  R. P. Steele,  E. J. Sundstrom,
 H. L. Woodcock III,  P. M. Zimmerman,  D. Zuev,  B. Albrecht,  E. Alguire,
 S. A. Baeppler,  Z. Benda,  Y. A. Bernard,  E. J. Berquist,  K. B. Bravaya,
 D. Casanova,  Chun-Min Chang,  Yunqing Chen,  A. Chien,  K. D. Closser,
 M. P. Coons,  S. Dasgupta,  M. Diedenhofen,  Hainam Do,  R. G. Edgar,
 Po-Tung Fang,  S. Fatehi,  Qingguo Feng,  Qinghui Ge,  A. Ghysels,
 J. Gomes,  J. Gonthier,  A. Gunina,  M. W. D. Hanson-Heine,
 P. H. P. Harbach,  A. W. Hauser,  J. E. Herr,  E. G. Hohenstein,
 Z. C. Holden,  Kerwin Hui,  T.-C. Jagau,  Hyunjun Ji,  B. Kaduk,
 K. Khistyaev,  Jaehoon Kim,  P. Klunzinger,  K. Koh,  D. Kosenkov,
 T. Kowalczyk,  C. M. Krauter,  A. Kunitsa,  Ka Un Lao,  A. Laurent,
 K. V. Lawler,  Joonho Lee,  D. Lefrancois,  S. Lehtola,  D. S. Levine,
 Yi-Pei Li,  You-Sheng Lin,  Fenglai Liu,  E. Livshits,  A. Luenser,
 P. Manohar,  E. Mansoor,  S. F. Manzer,  Shan-Ping Mao,  Yuezhi Mao,
 N. Mardirossian,  A. V. Marenich,  L. A. Martinez-Martinez,  S. A. Maurer,
 N. J. Mayhall,  S. C. McKenzie,  J.-M. Mewes,  A. F. Morrison,  K. Nanda,
 T. S. Nguyen-Beck,  R. Olivares-Amaya,  J. A. Parkhill,  T. M. Perrine,
 F. Plasser,  S. Prager,  A. Prociuk,  D. R. Rehn,  F. Rob,  M. Schneider,
 N. Sergueev,  S. M. Sharada,  S. Sharma,  D. W. Small,  T. Stauch,
 T. Stein,  Yu-Chuan Su,  A. J. W. Thom,  T. Tsuchimochi,  L. Vogt,
 O. Vydrov,  M. A. Watson,  J. Wenzel,  M. de Wergifosse,  T. A. Wesolowski,
 A. White,  J. Witte,  A. Yamada,  Jun Yang,  K. Yao,  S. Yeganeh,
 S. R. Yost,  Zhi-Qiang You,  A. Zech,  Igor Ying Zhang,  Xing Zhang,
 Yan Zhao,  Ying Zhu,  B. R. Brooks,  G. K. L. Chan,  C. J. Cramer,
 M. S. Gordon,  W. J. Hehre,  A. Klamt,  M. W. Schmidt,  C. D. Sherrill,
 D. G. Truhlar,  A. Aspuru-Guzik,  R. Baer,  A. T. Bell,  N. A. Besley,
 Jeng-Da Chai,  A. Dreuw,  B. D. Dunietz,  T. R. Furlani,  Chao-Ping Hsu,
 Yousung Jung,  Jing Kong,  D. S. Lambrecht,  WanZhen Liang,  C. Ochsenfeld,
 V. A. Rassolov,  L. V. Slipchenko,  J. E. Subotnik,  T. Van Voorhis,
 J. M. Herbert,  A. I. Krylov,  P. M. W. Gill,  M. Head-Gordon

 Contributors to earlier versions of Q-Chem not listed above:
 R. D. Adamson,  B. Austin,  J. Baker,  G. J. O. Beran,  K. Brandhorst,
 S. T. Brown,  E. F. C. Byrd,  A. K. Chakraborty,  C.-L. Cheng,
 Siu Hung Chien,  D. M. Chipman,  D. L. Crittenden,  H. Dachsel,
 R. A. DiStasio Jr.,  R. J. Doerksen,  A. D. Dutoi,  L. Fusti-Molnar,
 W. A. Goddard III,  A. Golubeva-Zadorozhnaya,  S. R. Gwaltney,  G. Hawkins,
 A. Heyden,  S. Hirata,  G. Kedziora,  F. J. Keil,  C. Kelley,  Jihan Kim,
 R. A. King,  R. Z. Khaliullin,  P. P. Korambath,  W. Kurlancheek,
 A. M. Lee,  M. S. Lee,  S. V. Levchenko,  Ching Yeh Lin,  D. Liotard,
 R. C. Lochan,  I. Lotan,  P. E. Maslen,  N. Nair,  D. P. O'Neill,
 D. Neuhauser,  E. Neuscamman,  C. M. Oana,  R. Olson,  B. Peters,
 R. Peverati,  P. A. Pieniazek,  Y. M. Rhee,  J. Ritchie,  M. A. Rohrdanz,
 E. Rosta,  N. J. Russ,  H. F. Schaefer III,  N. E. Schultz,  N. Shenvi,
 A. C. Simmonett,  A. Sodt,  D. Stuck,  K. S. Thanthiriwatte,  V. Vanovschi,
 Tao Wang,  A. Warshel,  C. F. Williams,  Q. Wu,  X. Xu,  W. Zhang

 Please cite Q-Chem as follows:
 Y. Shao et al., Mol. Phys. 113, 184-215 (2015)
 DOI: 10.1080/00268976.2014.952696

 Q-Chem 5.0.0 for Intel X86 EM64T Linux

 Parts of Q-Chem use Armadillo 5.200.1 (Boston Tea Smuggler).
 http://arma.sourceforge.net/

 Q-Chem begins on Tue Oct  3 14:06:45 2017

Host: nid05255
0

     Scratch files written to /global/cscratch1/sd/junteng/scratch/13/opt_1001.save//
The previous job contains 0 fragments, simply inherited here

Checking the input file for inconsistencies... 	...done.

--------------------------------------------------------------
User input:
--------------------------------------------------------------

$molecule
   read
$end

$rem
JOBTYPE                   OPT
METHOD                    B3LYP
DFT_D                     D3_OP
BASIS                     6-311++G(d,p)
GEOM_OPT_MAX_CYCLES       500
GEOM_OPT_TOL_DISPLACEMENT 1
SYMMETRY                  False
THRESH                    12
SCF_CONVERGENCE           8
MAX_SUB_FILE_NUM          128
MEM_STATIC                400
MEM_TOTAL                 4000
$end
--------------------------------------------------------------

   10    -765.8624997913      8.73E-09 Convergence criterion met
 Total energy in the final basis set = -765.8624997913
   11    -765.8625063281      5.15E-09 Convergence criterion met
 Total energy in the final basis set = -765.8625063281
   11    -765.8624972283      5.30E-09 Convergence criterion met
 Total energy in the final basis set = -765.8624972283
   10    -765.8625129510      5.90E-09 Convergence criterion met
 Total energy in the final basis set = -765.8625129510
   10    -765.8625095593      7.13E-09 Convergence criterion met
 Total energy in the final basis set = -765.8625095593
   10    -765.8625145934      5.89E-09 Convergence criterion met
 Total energy in the final basis set = -765.8625145934

             Standard Nuclear Orientation (Angstroms)
    I     Atom           X                Y                Z
 ----------------------------------------------------------------
    1      C       0.3994043162    -0.6419589289    -0.5939252800
    2      C       0.6023051047     0.9048971876    -0.4826194607
    3      C      -0.8436729025    -1.1950236408     0.0691231551
    4      C      -0.5848154046     1.7121939324     0.0130859913
    5      O      -1.1545185741    -2.3968258270    -0.4706849470
    6      O      -1.4566420307    -0.6989329057     0.9795307975
    7      O      -1.6329338174     1.5502152162    -0.8240584340
    8      O      -0.5854538453     2.4566900886     0.9583474284
    9      C      -2.8629481192     2.1789662151    -0.4207877955
   10      C      -2.2778511710    -3.0802995154     0.1170164499
   11      C       1.6577277783    -1.1345725385     0.1921077751
   12      C       2.9325692216    -0.8493733447    -0.6360348424
   13      C       3.1045997957     0.6840699204    -0.4041529083
   14      C       1.8481189321     0.9927012324     0.4344239638
   15      O       1.7350143731    -0.1841997127     1.2550218342
   16      H       0.4156123540    -0.9878994788    -1.6264199966
   17      H       0.8237381180     1.2992861762    -1.4784000692
   18      H      -3.1980268235     1.7576564427     0.5282867960
   19      H      -2.1097724130    -3.2477335059     1.1817908632
   20      H       1.5730843429    -2.1418446165     0.5949289309
   21      H       3.7765463001    -1.4122245291    -0.2351668070
   22      H       2.8148365643    -1.1186091981    -1.6877082273
   23      H       4.0052588244     0.8995508423     0.1723407302
   24      H       3.1459948717     1.2593665147    -1.3311521387
   25      H       1.8785737095     1.8772942640     1.0631536605
   26      H      -2.7275241894     3.2561586272    -0.3150558023
   27      H      -3.5757978483     1.9577970058    -1.2124521051
   28      H      -2.3518603422    -4.0264969755    -0.4145516933
   29      H      -3.1891838906    -2.4947652707    -0.0148091173
 ----------------------------------------------------------------

   10    -765.8625149392      3.60E-09 Convergence criterion met
 Total energy in the final basis set = -765.8625149392
 Final energy is   -765.862514939162
 **  OPTIMIZATION CONVERGED  **

                    Orbital Energies (a.u.)
 --------------------------------------------------------------

 Alpha MOs
 -- Occupied --
-19.177 -19.167 -19.131 -19.119 -19.111 -10.308 -10.302 -10.240
-10.232 -10.229 -10.222 -10.207 -10.203 -10.183 -10.180  -1.118
 -1.108  -1.064  -1.031  -1.023  -0.831  -0.784  -0.777  -0.738
 -0.725  -0.654  -0.605  -0.597  -0.577  -0.559  -0.546  -0.520
 -0.504  -0.492  -0.487  -0.485  -0.478  -0.471  -0.459  -0.431
 -0.421  -0.420  -0.412  -0.396  -0.386  -0.374  -0.368  -0.366
 -0.360  -0.358  -0.339  -0.333  -0.320  -0.307  -0.291  -0.281
 -0.273

          Ground-State Mulliken Net Atomic Charges

     Atom                 Charge (a.u.)
  ----------------------------------------
      1 C                     0.053456
      2 C                     0.098070
      3 C                    -0.657046
      4 C                    -0.406436
      5 O                    -0.027154
      6 O                    -0.202471
      7 O                    -0.044850
      8 O                    -0.220087
      9 C                    -0.189319
     10 C                    -0.237389
     11 C                     0.349012
     12 C                    -0.470221
     13 C                    -0.459579
     14 C                    -0.149216
     15 O                    -0.142410
     16 H                     0.285059
     17 H                     0.234671
     18 H                     0.189695
     19 H                     0.184307
     20 H                     0.266832
     21 H                     0.180181
     22 H                     0.123282
     23 H                     0.192389
     24 H                     0.125231
     25 H                     0.285964
     26 H                     0.165761
     27 H                     0.148846
     28 H                     0.151266
     29 H                     0.172155
  ----------------------------------------
  Sum of atomic charges =     0.000000

                    Cartesian Multipole Moments
 -----------------------------------------------------------------
    Charge (ESU x 10^10)
                 0.0000
    Dipole Moment (Debye)
         X       0.0345      Y      -2.0964      Z      -3.7483
       Tot       4.2948
    Quadrupole Moments (Debye-Ang)
        XX     -76.7710     XY       2.3867     YY     -83.4486
        XZ      -0.7553     YZ      -5.1320     ZZ     -95.3378

 Total job time:  588.78s(wall), 11900.18s(cpu)
        *  Thank you very much for using Q-Chem.  Have a nice day.  *
