 Q-Chem 5.0, Q-Chem, Inc., Pleasanton, CA (2017)
 Q-Chem 5.0.0 for Intel X86 EM64T Linux

User input:
--------------------------------------------------------------
$molecule
0  1
C    0.656  -1.997   0.550
C   -0.379  -2.055   1.685
C    1.075  -0.633   0.035
C   -0.743  -0.756   2.367
O    2.254  -0.766  -0.643
O    0.466   0.414   0.178
O    0.380  -0.211   2.923
O   -1.879  -0.339   2.537
C    0.159   1.039   3.578
C    2.798   0.433  -1.203
C   -0.074  -2.721  -0.584
C   -0.239  -4.209  -0.268
C   -1.341  -4.194   0.796
C   -1.585  -2.694   0.978
O   -1.425  -2.250  -0.391
H    1.566  -2.528   0.855
H   -0.041  -2.721   2.491
H   -0.505   1.690   2.999
H    2.061   1.233  -1.326
H    0.286  -2.514  -1.595
H   -0.592  -4.755  -1.150
H    0.687  -4.677   0.078
H   -2.237  -4.682   0.398
H   -1.053  -4.703   1.720
H   -2.574  -2.451   1.372
H   -0.249   0.863   4.578
H    1.124   1.543   3.677
H    3.204   0.190  -2.189
H    3.617   0.777  -0.565
$end

$opt
CONSTRAINT
tors    2    1    3    5    167.3
tors    1    2    4    7    -56.6
ENDCONSTRAINT
$end

$rem
JOBTYPE                   OPT
METHOD                    B3LYP
DFT_D                     D3_OP
BASIS                     STO-3G
GEOM_OPT_MAX_CYCLES       500
SYMMETRY                  False
THRESH                    12
SCF_CONVERGENCE           8
MAX_SUB_FILE_NUM          128
MEM_STATIC                400
MEM_TOTAL                 4000
$end

--------------------------------------------------------------

   14    -755.6953363584      6.30E-09 Convergence criterion met
 Total energy in the final basis set = -755.6953363584
   13    -755.7256753888      3.12E-09 Convergence criterion met
 Total energy in the final basis set = -755.7256753888
   13    -755.7312857024      3.38E-09 Convergence criterion met
 Total energy in the final basis set = -755.7312857024
   11    -755.7317407273      9.38E-09 Convergence criterion met
 Total energy in the final basis set = -755.7317407273
   11    -755.7319025154      7.54E-09 Convergence criterion met
 Total energy in the final basis set = -755.7319025154
   11    -755.7320087631      3.72E-09 Convergence criterion met
 Total energy in the final basis set = -755.7320087631
   10    -755.7320925991      9.63E-09 Convergence criterion met
 Total energy in the final basis set = -755.7320925991
   11    -755.7321765024      5.79E-09 Convergence criterion met
 **  OPTIMIZATION CONVERGED  **
 Total job time:  76.24s(wall), 1784.18s(cpu)
        *  Thank you very much for using Q-Chem.  Have a nice day.  *

User input: 2 of 3

nid01073 10.128.4
Q-Chem Developer Version! Running on 10.128.4.*
                  Welcome to Q-Chem
     A Quantum Leap Into The Future Of Chemistry

 Q-Chem 5.0, Q-Chem, Inc., Pleasanton, CA (2017)

 Yihan Shao,  Zhengting Gan,  E. Epifanovsky,  A. T. B. Gilbert,  M. Wormit,
 J. Kussmann,  A. W. Lange,  A. Behn,  Jia Deng,  Xintian Feng,  D. Ghosh,
 M. Goldey,  P. R. Horn,  L. D. Jacobson,  I. Kaliman,  T. Kus,  A. Landau,
 Jie Liu,  E. I. Proynov,  R. M. Richard,  R. P. Steele,  E. J. Sundstrom,
 H. L. Woodcock III,  P. M. Zimmerman,  D. Zuev,  B. Albrecht,  E. Alguire,
 S. A. Baeppler,  Z. Benda,  Y. A. Bernard,  E. J. Berquist,  K. B. Bravaya,
 D. Casanova,  Chun-Min Chang,  Yunqing Chen,  A. Chien,  K. D. Closser,
 M. P. Coons,  S. Dasgupta,  M. Diedenhofen,  Hainam Do,  R. G. Edgar,
 Po-Tung Fang,  S. Fatehi,  Qingguo Feng,  Qinghui Ge,  A. Ghysels,
 J. Gomes,  J. Gonthier,  A. Gunina,  M. W. D. Hanson-Heine,
 P. H. P. Harbach,  A. W. Hauser,  J. E. Herr,  E. G. Hohenstein,
 Z. C. Holden,  Kerwin Hui,  T.-C. Jagau,  Hyunjun Ji,  B. Kaduk,
 K. Khistyaev,  Jaehoon Kim,  P. Klunzinger,  K. Koh,  D. Kosenkov,
 T. Kowalczyk,  C. M. Krauter,  A. Kunitsa,  Ka Un Lao,  A. Laurent,
 K. V. Lawler,  Joonho Lee,  D. Lefrancois,  S. Lehtola,  D. S. Levine,
 Yi-Pei Li,  You-Sheng Lin,  Fenglai Liu,  E. Livshits,  A. Luenser,
 P. Manohar,  E. Mansoor,  S. F. Manzer,  Shan-Ping Mao,  Yuezhi Mao,
 N. Mardirossian,  A. V. Marenich,  L. A. Martinez-Martinez,  S. A. Maurer,
 N. J. Mayhall,  S. C. McKenzie,  J.-M. Mewes,  A. F. Morrison,  K. Nanda,
 T. S. Nguyen-Beck,  R. Olivares-Amaya,  J. A. Parkhill,  T. M. Perrine,
 F. Plasser,  S. Prager,  A. Prociuk,  D. R. Rehn,  F. Rob,  M. Schneider,
 N. Sergueev,  S. M. Sharada,  S. Sharma,  D. W. Small,  T. Stauch,
 T. Stein,  Yu-Chuan Su,  A. J. W. Thom,  T. Tsuchimochi,  L. Vogt,
 O. Vydrov,  M. A. Watson,  J. Wenzel,  M. de Wergifosse,  T. A. Wesolowski,
 A. White,  J. Witte,  A. Yamada,  Jun Yang,  K. Yao,  S. Yeganeh,
 S. R. Yost,  Zhi-Qiang You,  A. Zech,  Igor Ying Zhang,  Xing Zhang,
 Yan Zhao,  Ying Zhu,  B. R. Brooks,  G. K. L. Chan,  C. J. Cramer,
 M. S. Gordon,  W. J. Hehre,  A. Klamt,  M. W. Schmidt,  C. D. Sherrill,
 D. G. Truhlar,  A. Aspuru-Guzik,  R. Baer,  A. T. Bell,  N. A. Besley,
 Jeng-Da Chai,  A. Dreuw,  B. D. Dunietz,  T. R. Furlani,  Chao-Ping Hsu,
 Yousung Jung,  Jing Kong,  D. S. Lambrecht,  WanZhen Liang,  C. Ochsenfeld,
 V. A. Rassolov,  L. V. Slipchenko,  J. E. Subotnik,  T. Van Voorhis,
 J. M. Herbert,  A. I. Krylov,  P. M. W. Gill,  M. Head-Gordon

 Contributors to earlier versions of Q-Chem not listed above:
 R. D. Adamson,  B. Austin,  J. Baker,  G. J. O. Beran,  K. Brandhorst,
 S. T. Brown,  E. F. C. Byrd,  A. K. Chakraborty,  C.-L. Cheng,
 Siu Hung Chien,  D. M. Chipman,  D. L. Crittenden,  H. Dachsel,
 R. A. DiStasio Jr.,  R. J. Doerksen,  A. D. Dutoi,  L. Fusti-Molnar,
 W. A. Goddard III,  A. Golubeva-Zadorozhnaya,  S. R. Gwaltney,  G. Hawkins,
 A. Heyden,  S. Hirata,  G. Kedziora,  F. J. Keil,  C. Kelley,  Jihan Kim,
 R. A. King,  R. Z. Khaliullin,  P. P. Korambath,  W. Kurlancheek,
 A. M. Lee,  M. S. Lee,  S. V. Levchenko,  Ching Yeh Lin,  D. Liotard,
 R. C. Lochan,  I. Lotan,  P. E. Maslen,  N. Nair,  D. P. O'Neill,
 D. Neuhauser,  E. Neuscamman,  C. M. Oana,  R. Olson,  B. Peters,
 R. Peverati,  P. A. Pieniazek,  Y. M. Rhee,  J. Ritchie,  M. A. Rohrdanz,
 E. Rosta,  N. J. Russ,  H. F. Schaefer III,  N. E. Schultz,  N. Shenvi,
 A. C. Simmonett,  A. Sodt,  D. Stuck,  K. S. Thanthiriwatte,  V. Vanovschi,
 Tao Wang,  A. Warshel,  C. F. Williams,  Q. Wu,  X. Xu,  W. Zhang

 Please cite Q-Chem as follows:
 Y. Shao et al., Mol. Phys. 113, 184-215 (2015)
 DOI: 10.1080/00268976.2014.952696

 Q-Chem 5.0.0 for Intel X86 EM64T Linux

 Parts of Q-Chem use Armadillo 5.200.1 (Boston Tea Smuggler).
 http://arma.sourceforge.net/

 Q-Chem begins on Wed Oct  4 17:31:10 2017

Host: nid01073
0

     Scratch files written to /global/cscratch1/sd/junteng/scratch/13/opt_1001++.save//
The previous job contains 0 fragments, simply inherited here

Checking the input file for inconsistencies... 	...done.

--------------------------------------------------------------
User input:
--------------------------------------------------------------

$molecule
   read
$end

$rem
JOBTYPE                   OPT
METHOD                    B3LYP
DFT_D                     D3_OP
BASIS                     6-311++G(d,p)
GEOM_OPT_MAX_CYCLES       500
GEOM_OPT_TOL_GRADIENT     1
GEOM_OPT_TOL_DISPLACEMENT 1
GEOM_OPT_TOL_ENERGY       1
SYMMETRY                  False
THRESH                    12
SCF_CONVERGENCE           8
MAX_SUB_FILE_NUM          128
MEM_STATIC                400
MEM_TOTAL                 4000
$end

--------------------------------------------------------------

    6    -765.8625329916      5.68E-09 Convergence criterion met
 Total energy in the final basis set = -765.8625329916
    6    -765.8625329935      4.63E-09 Convergence criterion met
 Total energy in the final basis set = -765.8625329935
    6    -765.8625329952      3.76E-09 Convergence criterion met
 Total energy in the final basis set = -765.8625329952
    6    -765.8625329963      3.05E-09 Convergence criterion met
 Total energy in the final basis set = -765.8625329963
    5    -765.8625329974      8.18E-09 Convergence criterion met
 Total energy in the final basis set = -765.8625329974
    5    -765.8625329979      6.92E-09 Convergence criterion met
 Total energy in the final basis set = -765.8625329979
 Final energy is   -765.862532997942
        *  Thank you very much for using Q-Chem.  Have a nice day.  *
 Q-Chem 5.0, Q-Chem, Inc., Pleasanton, CA (2017)
 Q-Chem 5.0.0 for Intel X86 EM64T Linux

             Standard Nuclear Orientation (Angstroms)
    I     Atom           X                Y                Z
 ----------------------------------------------------------------
    1      C       0.3758454214    -0.6707038635    -0.5815400146
    2      C       0.6283706695     0.8714131552    -0.4959501093
    3      C      -0.8873219706    -1.1720490587     0.0857299998
    4      C      -0.5266035382     1.7236801820     0.0016205550
    5      O      -1.2668918616    -2.3462300349    -0.4696763801
    6      O      -1.4629753749    -0.6590319875     1.0111356019
    7      O      -1.5873141996     1.5904564507    -0.8240349855
    8      O      -0.4923169529     2.4784171402     0.9381655193
    9      C      -2.7829851753     2.2849600386    -0.4253330528
   10      C      -2.4186260020    -2.9772628238     0.1214572750
   11      C       1.6198151792    -1.1894477912     0.2123024698
   12      C       2.8992554011    -0.9681157872    -0.6285944277
   13      C       3.1235245143     0.5638418511    -0.4353070040
   14      C       1.8859961329     0.9341250226     0.4069164293
   15      O       1.7382686906    -0.2199594793     1.2532506134
   16      H       0.3838779964    -1.0323543350    -1.6085694383
   17      H       0.8513922846     1.2441679070    -1.4996925526
   18      H      -3.1264963277     1.9054065985     0.5380869754
   19      H      -3.2864526448    -2.3192999232     0.0572129664
   20      H       1.5024979333    -2.1838474387     0.6382765474
   21      H       3.7258631114    -1.5488103903    -0.2170435530
   22      H       2.7676452737    -1.2590668943    -1.6728214989
   23      H       4.0361790922     0.7632351931     0.1280087342
   24      H       3.1754617899     1.1157186970    -1.3759129330
   25      H       1.9547505456     1.8302312427     1.0160935820
   26      H      -2.5965125641     3.3571515080    -0.3496498024
   27      H      -3.5136038047     2.0766462467    -1.2040617914
   28      H      -2.2272194679    -3.2170099950     1.1684957498
   29      H      -2.5811694235    -3.8840306806    -0.4569586601
 ----------------------------------------------------------------

   15    -765.8625243090      3.43E-09 Convergence criterion met
 Total energy in the final basis set = -765.8625243090

                    Orbital Energies (a.u.)
 --------------------------------------------------------------

 Alpha MOs
 -- Occupied --
-19.178 -19.167 -19.131 -19.119 -19.111 -10.308 -10.302 -10.240
-10.232 -10.229 -10.223 -10.207 -10.203 -10.183 -10.180  -1.118
 -1.109  -1.064  -1.031  -1.023  -0.831  -0.784  -0.777  -0.738
 -0.725  -0.654  -0.605  -0.597  -0.577  -0.560  -0.546  -0.519
 -0.504  -0.492  -0.488  -0.485  -0.478  -0.471  -0.459  -0.430
 -0.421  -0.420  -0.412  -0.396  -0.386  -0.374  -0.368  -0.367
 -0.360  -0.358  -0.339  -0.333  -0.320  -0.307  -0.291  -0.281
 -0.272

          Ground-State Mulliken Net Atomic Charges

     Atom                 Charge (a.u.)
  ----------------------------------------
      1 C                     0.095074
      2 C                     0.096029
      3 C                    -0.673522
      4 C                    -0.419636
      5 O                    -0.024028
      6 O                    -0.200918
      7 O                    -0.044166
      8 O                    -0.218811
      9 C                    -0.188866
     10 C                    -0.236206
     11 C                     0.340200
     12 C                    -0.474672
     13 C                    -0.447701
     14 C                    -0.161534
     15 O                    -0.144632
     16 H                     0.286423
     17 H                     0.233736
     18 H                     0.190454
     19 H                     0.172205
     20 H                     0.265482
     21 H                     0.180458
     22 H                     0.122465
     23 H                     0.192289
     24 H                     0.125294
     25 H                     0.285150
     26 H                     0.166351
     27 H                     0.148883
     28 H                     0.182503
     29 H                     0.151695
  ----------------------------------------
  Sum of atomic charges =     0.000000

                    Cartesian Multipole Moments
 -----------------------------------------------------------------
    Charge (ESU x 10^10)
                 0.0000
    Dipole Moment (Debye)
         X      -0.0878      Y      -2.0838      Z      -3.7683
       Tot       4.3069
    Quadrupole Moments (Debye-Ang)
        XX     -76.4611     XY       1.9729     YY     -83.6106
        XZ      -1.0004     YZ      -5.1962     ZZ     -95.3995

 Frequency:        21.73                  61.95                  82.66
 Force Cnst:      0.0013                 0.0082                 0.0199
 Red. Mass:       4.8344                 3.6445                 4.9458
 IR Intens:        0.581                  0.783                  3.244
 Frequency:        87.65                 105.48                 136.65
 Force Cnst:      0.0123                 0.0093                 0.0239
 Red. Mass:       2.7150                 1.4233                 2.1749
 IR Intens:        0.707                  1.174                  0.400
 Frequency:       142.08                 146.63                 194.80
 Force Cnst:      0.0240                 0.0235                 0.0915
 Red. Mass:       2.0210                 1.8584                 4.0902
 IR Intens:        1.699                  1.353                  0.283
 Frequency:       217.25                 243.27                 274.18
 Force Cnst:      0.1448                 0.1182                 0.2236
 Red. Mass:       5.2074                 3.3892                 5.0471
 IR Intens:        2.160                  3.560                  7.614
 Frequency:       294.44                 329.18                 336.57
 Force Cnst:      0.1571                 0.2303                 0.2823
 Red. Mass:       3.0759                 3.6077                 4.2294
 IR Intens:        5.667                  4.121                 12.548
 Frequency:       372.72                 465.98                 563.64
 Force Cnst:      0.4669                 0.6387                 0.8125
 Red. Mass:       5.7043                 4.9923                 4.3408
 IR Intens:        9.962                 10.062                 22.148
 Frequency:       629.38                 657.75                 689.92
 Force Cnst:      1.4734                 1.1533                 1.6188
 Red. Mass:       6.3129                 4.5247                 5.7723
 IR Intens:       13.283                  1.189                  4.174
 Frequency:       740.98                 797.82                 816.60
 Force Cnst:      1.7806                 1.6639                 0.9400
 Red. Mass:       5.5043                 4.4369                 2.3926
 IR Intens:        7.454                  7.284                  6.410
 Frequency:       829.46                 836.85                 860.38
 Force Cnst:      1.2617                 2.0105                 1.5838
 Red. Mass:       3.1125                 4.8726                 3.6313
 IR Intens:       19.619                  2.748                  1.900
 Frequency:       898.41                 908.25                 915.99
 Force Cnst:      1.2627                 1.3451                 1.5319
 Red. Mass:       2.6553                 2.7675                 3.0989
 IR Intens:        3.161                 11.930                  3.947
 Frequency:       934.85                 958.38                 973.81
 Force Cnst:      1.6887                 3.0628                 1.3351
 Red. Mass:       3.2795                 5.6597                 2.3896
 IR Intens:       25.798                 33.778                 18.275
 Frequency:       984.68                1016.01                1027.12
 Force Cnst:      2.5071                 1.9917                 2.3272
 Red. Mass:       4.3888                 3.2748                 3.7441
 IR Intens:        3.970                 29.785                 19.753
 Frequency:      1066.91                1072.56                1073.34
 Force Cnst:      2.3372                 1.7050                 1.3314
 Red. Mass:       3.4849                 2.5156                 1.9614
 IR Intens:       34.061                 11.830                 20.451
 Frequency:      1163.14                1171.45                1174.09
 Force Cnst:      1.0056                 1.0909                 1.1289
 Red. Mass:       1.2616                 1.3492                 1.3900
 IR Intens:       52.676                 24.434                 42.448
 Frequency:      1177.23                1200.87                1207.88
 Force Cnst:      1.6363                 1.2994                 1.4828
 Red. Mass:       2.0040                 1.5293                 1.7250
 IR Intens:      185.333                  3.401                110.864
 Frequency:      1212.07                1216.83                1231.93
 Force Cnst:      1.3864                 1.6932                 1.0911
 Red. Mass:       1.6017                 1.9408                 1.2203
 IR Intens:       61.908                247.652                 19.611
 Frequency:      1242.17                1248.94                1282.59
 Force Cnst:      1.3508                 1.4404                 1.2151
 Red. Mass:       1.4859                 1.5673                 1.2537
 IR Intens:       20.970                 26.031                  3.007
 Frequency:      1287.21                1314.08                1319.58
 Force Cnst:      1.5186                 1.4351                 1.4996
 Red. Mass:       1.5556                 1.4106                 1.4617
 IR Intens:       19.556                  1.828                 40.721
 Frequency:      1352.43                1372.79                1388.80
 Force Cnst:      1.6855                 1.7932                 1.9658
 Red. Mass:       1.5641                 1.6150                 1.7299
 IR Intens:       28.373                 80.422                 36.937
 Frequency:      1469.79                1471.55                1482.40
 Force Cnst:      1.5226                 1.5311                 1.3528
 Red. Mass:       1.1962                 1.2001                 1.0448
 IR Intens:       17.635                 12.633                  9.018
 Frequency:      1484.82                1490.91                1497.35
 Force Cnst:      1.3548                 1.4168                 1.3849
 Red. Mass:       1.0430                 1.0818                 1.0484
 IR Intens:       10.137                  2.422                 10.986
 Frequency:      1499.40                1511.61                1795.15
 Force Cnst:      1.3853                 1.4820                21.7600
 Red. Mass:       1.0458                 1.1008                11.4606
 IR Intens:        7.859                  6.046                 66.847
 Frequency:      1804.44                3049.81                3050.30
 Force Cnst:     21.9696                 5.6424                 5.6426
 Red. Mass:      11.4521                 1.0296                 1.0293
 IR Intens:      389.773                 26.979                 43.370
 Frequency:      3056.81                3061.21                3067.75
 Force Cnst:      5.8639                 5.9351                 5.8937
 Red. Mass:       1.0651                 1.0750                 1.0629
 IR Intens:       14.598                 15.848                 36.115
 Frequency:      3096.40                3111.43                3117.74
 Force Cnst:      6.2528                 6.2470                 6.2851
 Red. Mass:       1.1069                 1.0952                 1.0974
 IR Intens:        0.774                 10.983                 33.563
 Frequency:      3122.90                3125.15                3130.43
 Force Cnst:      6.3612                 6.3717                 6.2928
 Red. Mass:       1.1071                 1.1073                 1.0899
 IR Intens:       18.290                 15.357                 22.357
 Frequency:      3154.11                3157.08                3162.86
 Force Cnst:      6.4856                 6.4967                 6.4280
 Red. Mass:       1.1065                 1.1063                 1.0906
 IR Intens:       13.970                 14.423                  5.757

 STANDARD THERMODYNAMIC QUANTITIES AT   298.15 K  AND     1.00 ATM

   This Molecule has  0 Imaginary Frequencies
   Zero point vibrational energy:      149.107 kcal/mol

   Atom    1 Element C  Has Mass   12.00000
   Atom    2 Element C  Has Mass   12.00000
   Atom    3 Element C  Has Mass   12.00000
   Atom    4 Element C  Has Mass   12.00000
   Atom    5 Element O  Has Mass   15.99491
   Atom    6 Element O  Has Mass   15.99491
   Atom    7 Element O  Has Mass   15.99491
   Atom    8 Element O  Has Mass   15.99491
   Atom    9 Element C  Has Mass   12.00000
   Atom   10 Element C  Has Mass   12.00000
   Atom   11 Element C  Has Mass   12.00000
   Atom   12 Element C  Has Mass   12.00000
   Atom   13 Element C  Has Mass   12.00000
   Atom   14 Element C  Has Mass   12.00000
   Atom   15 Element O  Has Mass   15.99491
   Atom   16 Element H  Has Mass    1.00783
   Atom   17 Element H  Has Mass    1.00783
   Atom   18 Element H  Has Mass    1.00783
   Atom   19 Element H  Has Mass    1.00783
   Atom   20 Element H  Has Mass    1.00783
   Atom   21 Element H  Has Mass    1.00783
   Atom   22 Element H  Has Mass    1.00783
   Atom   23 Element H  Has Mass    1.00783
   Atom   24 Element H  Has Mass    1.00783
   Atom   25 Element H  Has Mass    1.00783
   Atom   26 Element H  Has Mass    1.00783
   Atom   27 Element H  Has Mass    1.00783
   Atom   28 Element H  Has Mass    1.00783
   Atom   29 Element H  Has Mass    1.00783
   Molecular Mass:   214.084170 amu
   Principal axes and moments of inertia in amu*Bohr^2:
                             1           2           3
    Eigenvalues --     2439.18978  2989.85543  4691.11939
          X               0.99992     0.00713    -0.01009
          Y              -0.00720     0.99995    -0.00715
          Z               0.01004     0.00723     0.99992
   Rotational Symmetry Number is   1
   The Molecule is an Asymmetric Top
   Translational Enthalpy:        0.889 kcal/mol
   Rotational Enthalpy:           0.889 kcal/mol
   Vibrational Enthalpy:        156.360 kcal/mol
   gas constant (RT):             0.592 kcal/mol
   Translational Entropy:        41.987  cal/mol.K
   Rotational Entropy:           31.903  cal/mol.K
   Vibrational Entropy:          48.103  cal/mol.K

   Total Enthalpy:              158.730 kcal/mol
   Total Entropy:               121.993  cal/mol.K

 Total job time:  7547.48s(wall), 39854.30s(cpu)
        *  Thank you very much for using Q-Chem.  Have a nice day.  *
