 Q-Chem 5.0, Q-Chem, Inc., Pleasanton, CA (2017)
 Q-Chem 5.0.0 for Intel X86 EM64T Linux

User input:
--------------------------------------------------------------
$molecule
0  1
C    0.579  -1.978   0.499
C   -0.345  -1.987   1.740
C    0.941  -0.610  -0.048
C   -0.562  -0.630   2.386
O    2.215  -0.645  -0.542
O    0.210   0.366  -0.087
O    0.648  -0.161   2.826
O   -1.631  -0.088   2.617
C    0.572   1.116   3.461
C    2.652   0.593  -1.106
C   -0.242  -2.782  -0.524
C   -0.292  -4.259  -0.098
C   -1.265  -4.223   1.081
C   -1.594  -2.718   1.188
O   -1.591  -2.362  -0.216
H    1.516  -2.494   0.747
H    0.090  -2.606   2.538
H   -0.024   1.052   4.377
H    2.622   1.389  -0.356
H   -0.708  -4.895  -0.888
H    0.690  -4.657   0.174
H   -2.154  -4.811   0.825
H   -0.840  -4.639   1.999
H    1.587   1.422   3.729
H    0.156   1.863   2.777
H    2.039   0.852  -1.975
H    3.687   0.467  -1.436
C   -2.945  -2.478   1.828
H   -3.699  -3.155   1.411
H   -2.911  -2.635   2.910
H   -3.320  -1.473   1.614
C    0.085  -2.603  -1.994
H   -0.579  -3.214  -2.616
H   -0.074  -1.570  -2.320
H    1.119  -2.890  -2.210
$end

$opt
CONSTRAINT
tors    2    1    3    5    142.3
tors    1    2    4    7    -59.6
ENDCONSTRAINT
$end

$rem
JOBTYPE                   OPT
METHOD                    B3LYP
DFT_D                     D3_OP
BASIS                     STO-3G
GEOM_OPT_MAX_CYCLES       500
SYMMETRY                  False
THRESH                    12
SCF_CONVERGENCE           8
MAX_SUB_FILE_NUM          128
MEM_STATIC                400
MEM_TOTAL                 4000
$end

--------------------------------------------------------------

   14    -833.4099632771      3.41E-09 Convergence criterion met
 Total energy in the final basis set = -833.4099632771
   13    -833.4402752905      4.39E-09 Convergence criterion met
 Total energy in the final basis set = -833.4402752905
   13    -833.4465185885      3.65E-09 Convergence criterion met
 Total energy in the final basis set = -833.4465185885
   12    -833.4472405221      4.89E-09 Convergence criterion met
 Total energy in the final basis set = -833.4472405221
   11    -833.4474977069      9.64E-09 Convergence criterion met
 Total energy in the final basis set = -833.4474977069
   11    -833.4476806036      8.52E-09 Convergence criterion met
 Total energy in the final basis set = -833.4476806036
   11    -833.4478380319      3.63E-09 Convergence criterion met
 Total energy in the final basis set = -833.4478380319
   12    -833.4480724039      2.67E-09 Convergence criterion met
 **  OPTIMIZATION CONVERGED  **
 Total job time:  154.67s(wall), 3143.40s(cpu)
        *  Thank you very much for using Q-Chem.  Have a nice day.  *

User input: 2 of 3

nid04266 10.128.16
Q-Chem Developer Version! Running on 10.128.16.*
                  Welcome to Q-Chem
     A Quantum Leap Into The Future Of Chemistry

 Q-Chem 5.0, Q-Chem, Inc., Pleasanton, CA (2017)

 Yihan Shao,  Zhengting Gan,  E. Epifanovsky,  A. T. B. Gilbert,  M. Wormit,
 J. Kussmann,  A. W. Lange,  A. Behn,  Jia Deng,  Xintian Feng,  D. Ghosh,
 M. Goldey,  P. R. Horn,  L. D. Jacobson,  I. Kaliman,  T. Kus,  A. Landau,
 Jie Liu,  E. I. Proynov,  R. M. Richard,  R. P. Steele,  E. J. Sundstrom,
 H. L. Woodcock III,  P. M. Zimmerman,  D. Zuev,  B. Albrecht,  E. Alguire,
 S. A. Baeppler,  Z. Benda,  Y. A. Bernard,  E. J. Berquist,  K. B. Bravaya,
 D. Casanova,  Chun-Min Chang,  Yunqing Chen,  A. Chien,  K. D. Closser,
 M. P. Coons,  S. Dasgupta,  M. Diedenhofen,  Hainam Do,  R. G. Edgar,
 Po-Tung Fang,  S. Fatehi,  Qingguo Feng,  Qinghui Ge,  A. Ghysels,
 J. Gomes,  J. Gonthier,  A. Gunina,  M. W. D. Hanson-Heine,
 P. H. P. Harbach,  A. W. Hauser,  J. E. Herr,  E. G. Hohenstein,
 Z. C. Holden,  Kerwin Hui,  T.-C. Jagau,  Hyunjun Ji,  B. Kaduk,
 K. Khistyaev,  Jaehoon Kim,  P. Klunzinger,  K. Koh,  D. Kosenkov,
 T. Kowalczyk,  C. M. Krauter,  A. Kunitsa,  Ka Un Lao,  A. Laurent,
 K. V. Lawler,  Joonho Lee,  D. Lefrancois,  S. Lehtola,  D. S. Levine,
 Yi-Pei Li,  You-Sheng Lin,  Fenglai Liu,  E. Livshits,  A. Luenser,
 P. Manohar,  E. Mansoor,  S. F. Manzer,  Shan-Ping Mao,  Yuezhi Mao,
 N. Mardirossian,  A. V. Marenich,  L. A. Martinez-Martinez,  S. A. Maurer,
 N. J. Mayhall,  S. C. McKenzie,  J.-M. Mewes,  A. F. Morrison,  K. Nanda,
 T. S. Nguyen-Beck,  R. Olivares-Amaya,  J. A. Parkhill,  T. M. Perrine,
 F. Plasser,  S. Prager,  A. Prociuk,  D. R. Rehn,  F. Rob,  M. Schneider,
 N. Sergueev,  S. M. Sharada,  S. Sharma,  D. W. Small,  T. Stauch,
 T. Stein,  Yu-Chuan Su,  A. J. W. Thom,  T. Tsuchimochi,  L. Vogt,
 O. Vydrov,  M. A. Watson,  J. Wenzel,  M. de Wergifosse,  T. A. Wesolowski,
 A. White,  J. Witte,  A. Yamada,  Jun Yang,  K. Yao,  S. Yeganeh,
 S. R. Yost,  Zhi-Qiang You,  A. Zech,  Igor Ying Zhang,  Xing Zhang,
 Yan Zhao,  Ying Zhu,  B. R. Brooks,  G. K. L. Chan,  C. J. Cramer,
 M. S. Gordon,  W. J. Hehre,  A. Klamt,  M. W. Schmidt,  C. D. Sherrill,
 D. G. Truhlar,  A. Aspuru-Guzik,  R. Baer,  A. T. Bell,  N. A. Besley,
 Jeng-Da Chai,  A. Dreuw,  B. D. Dunietz,  T. R. Furlani,  Chao-Ping Hsu,
 Yousung Jung,  Jing Kong,  D. S. Lambrecht,  WanZhen Liang,  C. Ochsenfeld,
 V. A. Rassolov,  L. V. Slipchenko,  J. E. Subotnik,  T. Van Voorhis,
 J. M. Herbert,  A. I. Krylov,  P. M. W. Gill,  M. Head-Gordon

 Contributors to earlier versions of Q-Chem not listed above:
 R. D. Adamson,  B. Austin,  J. Baker,  G. J. O. Beran,  K. Brandhorst,
 S. T. Brown,  E. F. C. Byrd,  A. K. Chakraborty,  C.-L. Cheng,
 Siu Hung Chien,  D. M. Chipman,  D. L. Crittenden,  H. Dachsel,
 R. A. DiStasio Jr.,  R. J. Doerksen,  A. D. Dutoi,  L. Fusti-Molnar,
 W. A. Goddard III,  A. Golubeva-Zadorozhnaya,  S. R. Gwaltney,  G. Hawkins,
 A. Heyden,  S. Hirata,  G. Kedziora,  F. J. Keil,  C. Kelley,  Jihan Kim,
 R. A. King,  R. Z. Khaliullin,  P. P. Korambath,  W. Kurlancheek,
 A. M. Lee,  M. S. Lee,  S. V. Levchenko,  Ching Yeh Lin,  D. Liotard,
 R. C. Lochan,  I. Lotan,  P. E. Maslen,  N. Nair,  D. P. O'Neill,
 D. Neuhauser,  E. Neuscamman,  C. M. Oana,  R. Olson,  B. Peters,
 R. Peverati,  P. A. Pieniazek,  Y. M. Rhee,  J. Ritchie,  M. A. Rohrdanz,
 E. Rosta,  N. J. Russ,  H. F. Schaefer III,  N. E. Schultz,  N. Shenvi,
 A. C. Simmonett,  A. Sodt,  D. Stuck,  K. S. Thanthiriwatte,  V. Vanovschi,
 Tao Wang,  A. Warshel,  C. F. Williams,  Q. Wu,  X. Xu,  W. Zhang

 Please cite Q-Chem as follows:
 Y. Shao et al., Mol. Phys. 113, 184-215 (2015)
 DOI: 10.1080/00268976.2014.952696

 Q-Chem 5.0.0 for Intel X86 EM64T Linux

 Parts of Q-Chem use Armadillo 5.200.1 (Boston Tea Smuggler).
 http://arma.sourceforge.net/

 Q-Chem begins on Wed Oct  4 18:02:05 2017

Host: nid04266
0

     Scratch files written to /global/cscratch1/sd/junteng/scratch/15/opt_1111-+.save//
The previous job contains 0 fragments, simply inherited here

Checking the input file for inconsistencies... 	...done.

--------------------------------------------------------------
User input:
--------------------------------------------------------------

$molecule
   read
$end

$rem
JOBTYPE                   OPT
METHOD                    B3LYP
DFT_D                     D3_OP
BASIS                     6-311++G(d,p)
GEOM_OPT_MAX_CYCLES       500
GEOM_OPT_TOL_GRADIENT     1
GEOM_OPT_TOL_DISPLACEMENT 1
GEOM_OPT_TOL_ENERGY       1
SYMMETRY                  False
THRESH                    12
SCF_CONVERGENCE           8
MAX_SUB_FILE_NUM          128
MEM_STATIC                400
MEM_TOTAL                 4000
$end

--------------------------------------------------------------

    8    -844.5292315277      3.90E-09 Convergence criterion met
 Total energy in the final basis set = -844.5292315277
    6    -844.5292315303      6.04E-09 Convergence criterion met
 Total energy in the final basis set = -844.5292315303
    6    -844.5292315319      4.41E-09 Convergence criterion met
 Total energy in the final basis set = -844.5292315319
    5    -844.5292315328      8.15E-09 Convergence criterion met
 Total energy in the final basis set = -844.5292315328
    6    -844.5292315338      2.69E-09 Convergence criterion met
 Total energy in the final basis set = -844.5292315338
    5    -844.5292315333      8.74E-09 Convergence criterion met
 Total energy in the final basis set = -844.5292315333
 Final energy is   -844.529231533270
        *  Thank you very much for using Q-Chem.  Have a nice day.  *
 Q-Chem 5.0, Q-Chem, Inc., Pleasanton, CA (2017)
 Q-Chem 5.0.0 for Intel X86 EM64T Linux

             Standard Nuclear Orientation (Angstroms)
    I     Atom           X                Y                Z
 ----------------------------------------------------------------
    1      C       0.0292791305     0.6609725196     0.6483726448
    2      C       0.5120204408    -0.8300780261     0.6441152113
    3      C      -1.2619031404     0.9267694531    -0.0920019491
    4      C      -0.5041023347    -1.8067727745     0.0681997949
    5      O      -1.9809532087     1.8770410940     0.5485628709
    6      O      -1.6079149695     0.4248005823    -1.1321821461
    7      O      -1.6286718654    -1.7571529281     0.8256743320
    8      O      -0.3687078590    -2.5602384204    -0.8582296684
    9      C      -2.7399149463    -2.5363996289     0.3471623760
   10      C      -3.2051261877     2.2789002636    -0.0933527767
   11      C       1.2390509134     1.3714219267    -0.0731684511
   12      C       2.4062288008     1.4231602517     0.9451131302
   13      C       2.8679414181    -0.0561195943     0.9587435404
   14      C       1.8996928263    -0.7130010587    -0.0673208907
   15      O       1.6739934364     0.3671689593    -0.9954919898
   16      H      -0.0898989706     1.0419230125     1.6609319714
   17      H       0.6477918093    -1.1542572933     1.6790483419
   18      H      -2.4798082264    -3.5950927272     0.3057102254
   19      H      -3.8637061250     1.4200447684    -0.2299862806
   20      H       3.1910505877     2.0823503664     0.5686575111
   21      H       2.0934220442     1.7978263445     1.9216200267
   22      H       3.8942432995    -0.1531736584     0.6009080324
   23      H       2.8122643024    -0.5244736967     1.9435775685
   24      H      -3.5422315379    -2.3678021666     1.0625247975
   25      H      -3.0310813111    -2.1946181812    -0.6473577137
   26      H      -2.9967451570     2.7283162968    -1.0657140978
   27      H      -3.6581023031     3.0072983577     0.5755920041
   28      C       2.4691982442    -1.9211297552    -0.7790036432
   29      H       3.4641147563    -1.6777926932    -1.1594099156
   30      H       2.5603796886    -2.7621122395    -0.0861897893
   31      H       1.8293900128    -2.2286087842    -1.6017147380
   32      C       0.9338698924     2.6670716272    -0.7922100036
   33      H       1.8418989894     3.0485822768    -1.2634773018
   34      H       0.1837290263     2.5118436953    -1.5696626876
   35      H       0.5639144997     3.4180207993    -0.0896190423
 ----------------------------------------------------------------

   15    -844.5292064908      3.72E-09 Convergence criterion met
 Total energy in the final basis set = -844.5292064908

                    Orbital Energies (a.u.)
 --------------------------------------------------------------

 Alpha MOs
 -- Occupied --
-19.177 -19.166 -19.125 -19.117 -19.111 -10.306 -10.303 -10.242
-10.236 -10.232 -10.223 -10.203 -10.203 -10.177 -10.175 -10.168
-10.154  -1.117  -1.108  -1.059  -1.029  -1.023  -0.830  -0.803
 -0.782  -0.749  -0.725  -0.720  -0.670  -0.642  -0.601  -0.581
 -0.563  -0.553  -0.526  -0.508  -0.501  -0.491  -0.488  -0.480
 -0.473  -0.470  -0.456  -0.439  -0.433  -0.422  -0.419  -0.411
 -0.405  -0.396  -0.392  -0.373  -0.369  -0.365  -0.358  -0.355
 -0.352  -0.346  -0.331  -0.323  -0.318  -0.308  -0.289  -0.274
 -0.269

          Ground-State Mulliken Net Atomic Charges

     Atom                 Charge (a.u.)
  ----------------------------------------
      1 C                     0.694758
      2 C                     0.417449
      3 C                    -1.525446
      4 C                    -0.526394
      5 O                     0.041970
      6 O                    -0.151831
      7 O                    -0.018904
      8 O                    -0.171837
      9 C                    -0.176118
     10 C                    -0.186761
     11 C                    -0.178044
     12 C                    -0.293115
     13 C                    -0.437726
     14 C                    -0.749576
     15 O                     0.038879
     16 H                     0.295069
     17 H                     0.261211
     18 H                     0.169521
     19 H                     0.162257
     20 H                     0.170217
     21 H                     0.140863
     22 H                     0.174709
     23 H                     0.139378
     24 H                     0.148794
     25 H                     0.190490
     26 H                     0.178581
     27 H                     0.154239
     28 C                    -0.021750
     29 H                     0.141361
     30 H                     0.159600
     31 H                     0.207890
     32 C                    -0.010786
     33 H                     0.178691
     34 H                     0.218784
     35 H                     0.163576
  ----------------------------------------
  Sum of atomic charges =     0.000000

                    Cartesian Multipole Moments
 -----------------------------------------------------------------
    Charge (ESU x 10^10)
                 0.0000
    Dipole Moment (Debye)
         X      -0.8268      Y       2.0053      Z       3.5041
       Tot       4.1211
    Quadrupole Moments (Debye-Ang)
        XX     -89.2080     XY      -0.9525     YY     -97.7892
        XZ       1.5840     YZ      -4.7444     ZZ    -107.8523

 Frequency:        24.61                  37.67                  79.95
 Force Cnst:      0.0014                 0.0041                 0.0191
 Red. Mass:       3.8755                 4.8840                 5.0742
 IR Intens:        0.025                  0.846                  3.014
 Frequency:        99.99                 121.77                 146.59
 Force Cnst:      0.0206                 0.0158                 0.0231
 Red. Mass:       3.4886                 1.8057                 1.8224
 IR Intens:        2.029                  0.227                  1.316
 Frequency:       149.73                 151.68                 185.92
 Force Cnst:      0.0215                 0.0218                 0.0626
 Red. Mass:       1.6250                 1.6082                 3.0756
 IR Intens:        1.014                  0.465                  0.502
 Frequency:       219.54                 220.91                 225.25
 Force Cnst:      0.0836                 0.0392                 0.0528
 Red. Mass:       2.9450                 1.3626                 1.7669
 IR Intens:        0.563                  2.086                  2.684
 Frequency:       233.26                 247.17                 260.45
 Force Cnst:      0.0519                 0.0805                 0.1877
 Red. Mass:       1.6195                 2.2353                 4.6963
 IR Intens:        2.694                  1.837                  4.139
 Frequency:       280.93                 320.05                 325.12
 Force Cnst:      0.1708                 0.2429                 0.1631
 Red. Mass:       3.6735                 4.0255                 2.6196
 IR Intens:        1.169                 12.302                  0.390
 Frequency:       339.90                 367.43                 369.79
 Force Cnst:      0.2391                 0.3390                 0.3003
 Red. Mass:       3.5128                 4.2624                 3.7271
 IR Intens:        5.369                  4.081                  8.899
 Frequency:       422.88                 489.14                 572.62
 Force Cnst:      0.3042                 0.4708                 0.7418
 Red. Mass:       2.8876                 3.3397                 3.8399
 IR Intens:        3.867                 12.588                 11.423
 Frequency:       596.57                 613.52                 647.96
 Force Cnst:      0.9858                 0.8971                 1.1169
 Red. Mass:       4.7014                 4.0451                 4.5152
 IR Intens:        8.729                  3.911                  2.075
 Frequency:       674.73                 719.43                 755.00
 Force Cnst:      1.2914                 1.8112                 1.5429
 Red. Mass:       4.8144                 5.9393                 4.5940
 IR Intens:        1.028                  7.444                  2.858
 Frequency:       808.01                 825.06                 858.26
 Force Cnst:      1.1956                 1.0349                 1.3436
 Red. Mass:       3.1080                 2.5804                 3.0959
 IR Intens:        1.762                  8.549                  6.121
 Frequency:       862.13                 871.98                 887.62
 Force Cnst:      2.1124                 1.9112                 1.1519
 Red. Mass:       4.8238                 4.2661                 2.4814
 IR Intens:        7.337                 23.077                 18.678
 Frequency:       890.60                 914.47                 926.47
 Force Cnst:      1.1349                 1.0990                 1.3202
 Red. Mass:       2.4285                 2.2305                 2.6105
 IR Intens:        8.348                 11.618                 30.387
 Frequency:       968.16                 971.81                 985.82
 Force Cnst:      1.8314                 2.4683                 1.9238
 Red. Mass:       3.3163                 4.4360                 3.3599
 IR Intens:        7.667                  3.361                  5.413
 Frequency:      1010.77                1056.32                1064.99
 Force Cnst:      0.9542                 2.4512                 2.0137
 Red. Mass:       1.5853                 3.7285                 3.0133
 IR Intens:        2.063                 62.124                 53.612
 Frequency:      1109.75                1129.40                1137.55
 Force Cnst:      1.0834                 1.3195                 1.8597
 Red. Mass:       1.4931                 1.7558                 2.4393
 IR Intens:        7.280                 22.255                 23.097
 Frequency:      1165.40                1171.09                1172.16
 Force Cnst:      1.7445                 1.0480                 1.1055
 Red. Mass:       2.1801                 1.2970                 1.3656
 IR Intens:      112.188                  9.468                 13.048
 Frequency:      1181.09                1195.13                1204.88
 Force Cnst:      1.9161                 2.4157                 1.6159
 Red. Mass:       2.3313                 2.8705                 1.8891
 IR Intens:       57.306                369.375                  7.135
 Frequency:      1209.79                1212.37                1220.81
 Force Cnst:      1.3511                 1.6388                 1.6061
 Red. Mass:       1.5668                 1.8923                 1.8290
 IR Intens:       19.062                159.961                 16.944
 Frequency:      1245.96                1257.54                1263.23
 Force Cnst:      2.0314                 1.2595                 1.4053
 Red. Mass:       2.2210                 1.3518                 1.4947
 IR Intens:       37.530                  3.119                 26.557
 Frequency:      1286.48                1329.95                1343.72
 Force Cnst:      1.6640                 1.6271                 2.4281
 Red. Mass:       1.7064                 1.5613                 2.2824
 IR Intens:        8.397                  1.622                  6.406
 Frequency:      1370.39                1396.30                1417.77
 Force Cnst:      1.7475                 1.8190                 1.6238
 Red. Mass:       1.5793                 1.5835                 1.3711
 IR Intens:      101.300                 39.349                 24.181
 Frequency:      1428.70                1466.84                1468.75
 Force Cnst:      1.5965                 1.5035                 1.5303
 Red. Mass:       1.3275                 1.1860                 1.2040
 IR Intens:       11.911                 14.291                 14.393
 Frequency:      1482.62                1483.85                1484.03
 Force Cnst:      1.3753                 1.3563                 1.3580
 Red. Mass:       1.0619                 1.0455                 1.0465
 IR Intens:        4.201                  1.256                 16.836
 Frequency:      1488.29                1494.42                1495.79
 Force Cnst:      1.3852                 1.3942                 1.3812
 Red. Mass:       1.0614                 1.0596                 1.0478
 IR Intens:        5.491                  0.921                  7.814
 Frequency:      1499.13                1501.49                1508.24
 Force Cnst:      1.3839                 1.3981                 1.4231
 Red. Mass:       1.0451                 1.0526                 1.0618
 IR Intens:       14.429                  7.332                 10.975
 Frequency:      1511.80                1791.40                1811.74
 Force Cnst:      1.4616                20.8465                22.1083
 Red. Mass:       1.0854                11.0255                11.4318
 IR Intens:        7.663                 89.469                319.666
 Frequency:      3041.16                3042.23                3048.87
 Force Cnst:      5.6408                 5.6754                 5.6382
 Red. Mass:       1.0352                 1.0408                 1.0295
 IR Intens:       14.661                 16.515                 18.299
 Frequency:      3049.19                3053.55                3061.75
 Force Cnst:      5.6402                 5.8280                 5.9065
 Red. Mass:       1.0296                 1.0609                 1.0694
 IR Intens:       51.772                 30.315                 23.424
 Frequency:      3067.76                3090.54                3099.13
 Force Cnst:      5.9446                 6.2291                 6.2370
 Red. Mass:       1.0721                 1.1069                 1.1022
 IR Intens:       28.487                  0.297                 12.887
 Frequency:      3108.49                3110.52                3116.82
 Force Cnst:      6.2813                 6.2746                 6.3110
 Red. Mass:       1.1033                 1.1007                 1.1026
 IR Intens:       14.493                 29.231                 20.121
 Frequency:      3118.56                3122.21                3123.47
 Force Cnst:      6.2426                 6.3578                 6.3639
 Red. Mass:       1.0895                 1.1070                 1.1071
 IR Intens:       26.081                 20.359                 13.991
 Frequency:      3152.51                3156.28                3165.28
 Force Cnst:      6.4790                 6.4923                 6.4724
 Red. Mass:       1.1065                 1.1061                 1.0964
 IR Intens:       14.034                 14.380                  2.150

 STANDARD THERMODYNAMIC QUANTITIES AT   298.15 K  AND     1.00 ATM

   This Molecule has  0 Imaginary Frequencies
   Zero point vibrational energy:      183.654 kcal/mol

   Atom    1 Element C  Has Mass   12.00000
   Atom    2 Element C  Has Mass   12.00000
   Atom    3 Element C  Has Mass   12.00000
   Atom    4 Element C  Has Mass   12.00000
   Atom    5 Element O  Has Mass   15.99491
   Atom    6 Element O  Has Mass   15.99491
   Atom    7 Element O  Has Mass   15.99491
   Atom    8 Element O  Has Mass   15.99491
   Atom    9 Element C  Has Mass   12.00000
   Atom   10 Element C  Has Mass   12.00000
   Atom   11 Element C  Has Mass   12.00000
   Atom   12 Element C  Has Mass   12.00000
   Atom   13 Element C  Has Mass   12.00000
   Atom   14 Element C  Has Mass   12.00000
   Atom   15 Element O  Has Mass   15.99491
   Atom   16 Element H  Has Mass    1.00783
   Atom   17 Element H  Has Mass    1.00783
   Atom   18 Element H  Has Mass    1.00783
   Atom   19 Element H  Has Mass    1.00783
   Atom   20 Element H  Has Mass    1.00783
   Atom   21 Element H  Has Mass    1.00783
   Atom   22 Element H  Has Mass    1.00783
   Atom   23 Element H  Has Mass    1.00783
   Atom   24 Element H  Has Mass    1.00783
   Atom   25 Element H  Has Mass    1.00783
   Atom   26 Element H  Has Mass    1.00783
   Atom   27 Element H  Has Mass    1.00783
   Atom   28 Element C  Has Mass   12.00000
   Atom   29 Element H  Has Mass    1.00783
   Atom   30 Element H  Has Mass    1.00783
   Atom   31 Element H  Has Mass    1.00783
   Atom   32 Element C  Has Mass   12.00000
   Atom   33 Element H  Has Mass    1.00783
   Atom   34 Element H  Has Mass    1.00783
   Atom   35 Element H  Has Mass    1.00783
   Molecular Mass:   242.115490 amu
   Principal axes and moments of inertia in amu*Bohr^2:
                             1           2           3
    Eigenvalues --     2976.69946  3617.23692  5613.49523
          X               0.99992    -0.01156     0.00565
          Y               0.01158     0.99992    -0.00477
          Z              -0.00559     0.00483     0.99997
   Rotational Symmetry Number is   1
   The Molecule is an Asymmetric Top
   Translational Enthalpy:        0.889 kcal/mol
   Rotational Enthalpy:           0.889 kcal/mol
   Vibrational Enthalpy:        192.705 kcal/mol
   gas constant (RT):             0.592 kcal/mol
   Translational Entropy:        42.354  cal/mol.K
   Rotational Entropy:           32.469  cal/mol.K
   Vibrational Entropy:          58.042  cal/mol.K

   Total Enthalpy:              195.075 kcal/mol
   Total Entropy:               132.865  cal/mol.K

 Total job time:  14130.03s(wall), 84744.99s(cpu)
        *  Thank you very much for using Q-Chem.  Have a nice day.  *
