 Q-Chem 5.0, Q-Chem, Inc., Pleasanton, CA (2017)
 Q-Chem 5.0.0 for Intel X86 EM64T Linux

User input:
--------------------------------------------------------------
$molecule
0  1
C    0.711  -1.958   0.589
C   -0.299  -1.995   1.756
C    1.089  -0.603   0.022
C   -0.528  -0.668   2.454
O    2.255  -0.726  -0.682
O    0.458   0.435   0.138
O    0.672  -0.221   2.944
O   -1.603  -0.140   2.687
C    0.580   1.027   3.634
C    2.698   0.490  -1.286
C   -0.031  -2.720  -0.508
C   -0.144  -4.202  -0.153
C   -1.210  -4.188   0.944
C   -1.515  -2.680   1.086
O   -1.391  -2.278  -0.299
H    1.639  -2.461   0.888
H    0.068  -2.659   2.552
H   -0.050   0.928   4.523
H    1.951   0.864  -1.993
H   -0.511  -4.776  -1.011
H    0.804  -4.638   0.173
H   -2.087  -4.746   0.595
H   -0.869  -4.649   1.876
H    1.587   1.311   3.953
H    0.196   1.807   2.969
H    3.619   0.278  -1.837
H    2.918   1.240  -0.519
H    0.300  -2.531  -1.532
C   -2.908  -2.427   1.624
H   -3.642  -3.061   1.114
H   -2.968  -2.632   2.696
H   -3.235  -1.402   1.426
$end

$opt
CONSTRAINT
tors    2    1    3    5    167.3
tors    1    2    4    7    -65.0
ENDCONSTRAINT
$end

$rem
JOBTYPE                   OPT
METHOD                    B3LYP
DFT_D                     D3_OP
BASIS                     STO-3G
GEOM_OPT_MAX_CYCLES       500
SYMMETRY                  False
THRESH                    12
SCF_CONVERGENCE           8
MAX_SUB_FILE_NUM          128
MEM_STATIC                400
MEM_TOTAL                 4000
$end

--------------------------------------------------------------

   14    -794.5514909720      6.56E-09 Convergence criterion met
 Total energy in the final basis set = -794.5514909720
   13    -794.5815644737      4.11E-09 Convergence criterion met
 Total energy in the final basis set = -794.5815644737
   13    -794.5892378324      3.81E-09 Convergence criterion met
 Total energy in the final basis set = -794.5892378324
   12    -794.5899665702      4.93E-09 Convergence criterion met
 Total energy in the final basis set = -794.5899665702
   11    -794.5901839813      8.44E-09 Convergence criterion met
 Total energy in the final basis set = -794.5901839813
   11    -794.5903461887      4.20E-09 Convergence criterion met
 Total energy in the final basis set = -794.5903461887
   11    -794.5905262093      6.66E-09 Convergence criterion met
 Total energy in the final basis set = -794.5905262093
   11    -794.5907558877      5.52E-09 Convergence criterion met
 **  OPTIMIZATION CONVERGED  **
 Total job time:  55.57s(wall), 1307.25s(cpu)
        *  Thank you very much for using Q-Chem.  Have a nice day.  *

User input: 2 of 3

nid00664 10.128.2
Q-Chem Developer Version! Running on 10.128.2.*
                  Welcome to Q-Chem
     A Quantum Leap Into The Future Of Chemistry

 Q-Chem 5.0, Q-Chem, Inc., Pleasanton, CA (2017)

 Yihan Shao,  Zhengting Gan,  E. Epifanovsky,  A. T. B. Gilbert,  M. Wormit,
 J. Kussmann,  A. W. Lange,  A. Behn,  Jia Deng,  Xintian Feng,  D. Ghosh,
 M. Goldey,  P. R. Horn,  L. D. Jacobson,  I. Kaliman,  T. Kus,  A. Landau,
 Jie Liu,  E. I. Proynov,  R. M. Richard,  R. P. Steele,  E. J. Sundstrom,
 H. L. Woodcock III,  P. M. Zimmerman,  D. Zuev,  B. Albrecht,  E. Alguire,
 S. A. Baeppler,  Z. Benda,  Y. A. Bernard,  E. J. Berquist,  K. B. Bravaya,
 D. Casanova,  Chun-Min Chang,  Yunqing Chen,  A. Chien,  K. D. Closser,
 M. P. Coons,  S. Dasgupta,  M. Diedenhofen,  Hainam Do,  R. G. Edgar,
 Po-Tung Fang,  S. Fatehi,  Qingguo Feng,  Qinghui Ge,  A. Ghysels,
 J. Gomes,  J. Gonthier,  A. Gunina,  M. W. D. Hanson-Heine,
 P. H. P. Harbach,  A. W. Hauser,  J. E. Herr,  E. G. Hohenstein,
 Z. C. Holden,  Kerwin Hui,  T.-C. Jagau,  Hyunjun Ji,  B. Kaduk,
 K. Khistyaev,  Jaehoon Kim,  P. Klunzinger,  K. Koh,  D. Kosenkov,
 T. Kowalczyk,  C. M. Krauter,  A. Kunitsa,  Ka Un Lao,  A. Laurent,
 K. V. Lawler,  Joonho Lee,  D. Lefrancois,  S. Lehtola,  D. S. Levine,
 Yi-Pei Li,  You-Sheng Lin,  Fenglai Liu,  E. Livshits,  A. Luenser,
 P. Manohar,  E. Mansoor,  S. F. Manzer,  Shan-Ping Mao,  Yuezhi Mao,
 N. Mardirossian,  A. V. Marenich,  L. A. Martinez-Martinez,  S. A. Maurer,
 N. J. Mayhall,  S. C. McKenzie,  J.-M. Mewes,  A. F. Morrison,  K. Nanda,
 T. S. Nguyen-Beck,  R. Olivares-Amaya,  J. A. Parkhill,  T. M. Perrine,
 F. Plasser,  S. Prager,  A. Prociuk,  D. R. Rehn,  F. Rob,  M. Schneider,
 N. Sergueev,  S. M. Sharada,  S. Sharma,  D. W. Small,  T. Stauch,
 T. Stein,  Yu-Chuan Su,  A. J. W. Thom,  T. Tsuchimochi,  L. Vogt,
 O. Vydrov,  M. A. Watson,  J. Wenzel,  M. de Wergifosse,  T. A. Wesolowski,
 A. White,  J. Witte,  A. Yamada,  Jun Yang,  K. Yao,  S. Yeganeh,
 S. R. Yost,  Zhi-Qiang You,  A. Zech,  Igor Ying Zhang,  Xing Zhang,
 Yan Zhao,  Ying Zhu,  B. R. Brooks,  G. K. L. Chan,  C. J. Cramer,
 M. S. Gordon,  W. J. Hehre,  A. Klamt,  M. W. Schmidt,  C. D. Sherrill,
 D. G. Truhlar,  A. Aspuru-Guzik,  R. Baer,  A. T. Bell,  N. A. Besley,
 Jeng-Da Chai,  A. Dreuw,  B. D. Dunietz,  T. R. Furlani,  Chao-Ping Hsu,
 Yousung Jung,  Jing Kong,  D. S. Lambrecht,  WanZhen Liang,  C. Ochsenfeld,
 V. A. Rassolov,  L. V. Slipchenko,  J. E. Subotnik,  T. Van Voorhis,
 J. M. Herbert,  A. I. Krylov,  P. M. W. Gill,  M. Head-Gordon

 Contributors to earlier versions of Q-Chem not listed above:
 R. D. Adamson,  B. Austin,  J. Baker,  G. J. O. Beran,  K. Brandhorst,
 S. T. Brown,  E. F. C. Byrd,  A. K. Chakraborty,  C.-L. Cheng,
 Siu Hung Chien,  D. M. Chipman,  D. L. Crittenden,  H. Dachsel,
 R. A. DiStasio Jr.,  R. J. Doerksen,  A. D. Dutoi,  L. Fusti-Molnar,
 W. A. Goddard III,  A. Golubeva-Zadorozhnaya,  S. R. Gwaltney,  G. Hawkins,
 A. Heyden,  S. Hirata,  G. Kedziora,  F. J. Keil,  C. Kelley,  Jihan Kim,
 R. A. King,  R. Z. Khaliullin,  P. P. Korambath,  W. Kurlancheek,
 A. M. Lee,  M. S. Lee,  S. V. Levchenko,  Ching Yeh Lin,  D. Liotard,
 R. C. Lochan,  I. Lotan,  P. E. Maslen,  N. Nair,  D. P. O'Neill,
 D. Neuhauser,  E. Neuscamman,  C. M. Oana,  R. Olson,  B. Peters,
 R. Peverati,  P. A. Pieniazek,  Y. M. Rhee,  J. Ritchie,  M. A. Rohrdanz,
 E. Rosta,  N. J. Russ,  H. F. Schaefer III,  N. E. Schultz,  N. Shenvi,
 A. C. Simmonett,  A. Sodt,  D. Stuck,  K. S. Thanthiriwatte,  V. Vanovschi,
 Tao Wang,  A. Warshel,  C. F. Williams,  Q. Wu,  X. Xu,  W. Zhang

 Please cite Q-Chem as follows:
 Y. Shao et al., Mol. Phys. 113, 184-215 (2015)
 DOI: 10.1080/00268976.2014.952696

 Q-Chem 5.0.0 for Intel X86 EM64T Linux

 Parts of Q-Chem use Armadillo 5.200.1 (Boston Tea Smuggler).
 http://arma.sourceforge.net/

 Q-Chem begins on Wed Oct  4 17:38:11 2017

Host: nid00664
0

     Scratch files written to /global/cscratch1/sd/junteng/scratch/14/opt_1101+-.save//
The previous job contains 0 fragments, simply inherited here

Checking the input file for inconsistencies... 	...done.

--------------------------------------------------------------
User input:
--------------------------------------------------------------

$molecule
   read
$end

$rem
JOBTYPE                   OPT
METHOD                    B3LYP
DFT_D                     D3_OP
BASIS                     6-311++G(d,p)
GEOM_OPT_MAX_CYCLES       500
GEOM_OPT_TOL_GRADIENT     1
GEOM_OPT_TOL_DISPLACEMENT 1
GEOM_OPT_TOL_ENERGY       1
SYMMETRY                  False
THRESH                    12
SCF_CONVERGENCE           8
MAX_SUB_FILE_NUM          128
MEM_STATIC                400
MEM_TOTAL                 4000
$end

--------------------------------------------------------------

    9    -805.1940460291      7.75E-09 Convergence criterion met
 Total energy in the final basis set = -805.1940460291
    9    -805.1940463482      4.16E-09 Convergence criterion met
 Total energy in the final basis set = -805.1940463482
    8    -805.1940464369      3.02E-09 Convergence criterion met
 Total energy in the final basis set = -805.1940464369
    7    -805.1940464734      3.62E-09 Convergence criterion met
 Total energy in the final basis set = -805.1940464734
    6    -805.1940464637      3.49E-09 Convergence criterion met
 Total energy in the final basis set = -805.1940464637
    6    -805.1940464678      2.96E-09 Convergence criterion met
 Total energy in the final basis set = -805.1940464678
 Final energy is   -805.194046467849
        *  Thank you very much for using Q-Chem.  Have a nice day.  *
 Q-Chem 5.0, Q-Chem, Inc., Pleasanton, CA (2017)
 Q-Chem 5.0.0 for Intel X86 EM64T Linux

             Standard Nuclear Orientation (Angstroms)
    I     Atom           X                Y                Z
 ----------------------------------------------------------------
    1      C      -0.0495403471     0.8272556583     0.6261629579
    2      C       0.6592791275    -0.5672887220     0.5973196608
    3      C      -1.3341785398     0.9251212363    -0.1677143235
    4      C      -0.2306304509    -1.7153342440     0.1442769812
    5      O      -2.0736852066     1.9671620874     0.2779423916
    6      O      -1.6590639887     0.2341630632    -1.0998197489
    7      O      -1.3038619075    -1.7813762211     0.9710138923
    8      O      -0.0278431908    -2.5073971287    -0.7367563408
    9      C      -2.3075836913    -2.7489973200     0.6146881289
   10      C      -3.2935688585     2.2242201667    -0.4432340508
   11      C       1.0353658417     1.7067173236    -0.0692713884
   12      C       2.2374348696     1.8835571725     0.8833343105
   13      C       2.9182772063     0.4925834952     0.7530875799
   14      C       1.9611528541    -0.2508465828    -0.2215012357
   15      O       1.5318532457     0.8329536104    -1.0786125732
   16      H      -0.2510079161     1.1713320461     1.6395175272
   17      H       0.9303258208    -0.8297839458     1.6237556075
   18      H      -1.8924851688    -3.7578848771     0.6276455031
   19      H      -3.0788124182     2.4511551916    -1.4885773556
   20      H       2.8887628635     2.6822243865     0.5253208625
   21      H       1.9302794872     2.1281669955     1.9021170434
   22      H       3.9047179640     0.5773847093     0.2947081234
   23      H       3.0323667124    -0.0276973165     1.7061364255
   24      H      -3.0886354138    -2.6470295496     1.3653076260
   25      H      -2.6968722075    -2.5277868589    -0.3802258765
   26      H      -3.7476209646     3.0804658015     0.0506558475
   27      H      -3.9541761693     1.3573082246    -0.3934980399
   28      H       0.6518434177     2.6200641225    -0.5197532192
   29      C       2.6156845659    -1.3431611053    -1.0372541935
   30      H       3.5144178654    -0.9422900477    -1.5121162994
   31      H       2.9069154873    -2.1764339394    -0.3926401079
   32      H       1.9406335586    -1.7262007030    -1.7978611990
 ----------------------------------------------------------------

   15    -805.1940752469      3.66E-09 Convergence criterion met
 Total energy in the final basis set = -805.1940752469

                    Orbital Energies (a.u.)
 --------------------------------------------------------------

 Alpha MOs
 -- Occupied --
-19.177 -19.166 -19.128 -19.119 -19.111 -10.308 -10.303 -10.238
-10.238 -10.232 -10.222 -10.205 -10.203 -10.181 -10.177 -10.154
 -1.118  -1.107  -1.062  -1.030  -1.022  -0.831  -0.793  -0.780
 -0.748  -0.723  -0.686  -0.650  -0.603  -0.594  -0.569  -0.553
 -0.532  -0.510  -0.504  -0.491  -0.489  -0.482  -0.477  -0.471
 -0.458  -0.436  -0.425  -0.420  -0.417  -0.407  -0.394  -0.377
 -0.373  -0.369  -0.365  -0.359  -0.359  -0.349  -0.335  -0.328
 -0.319  -0.307  -0.290  -0.275  -0.271

          Ground-State Mulliken Net Atomic Charges

     Atom                 Charge (a.u.)
  ----------------------------------------
      1 C                     0.037963
      2 C                     0.300163
      3 C                    -0.919449
      4 C                    -0.431939
      5 O                    -0.011377
      6 O                    -0.187958
      7 O                    -0.018917
      8 O                    -0.188786
      9 C                    -0.180587
     10 C                    -0.230736
     11 C                     0.467745
     12 C                    -0.454455
     13 C                    -0.461289
     14 C                    -0.289159
     15 O                    -0.052025
     16 H                     0.289547
     17 H                     0.249832
     18 H                     0.165862
     19 H                     0.184071
     20 H                     0.183987
     21 H                     0.121385
     22 H                     0.173778
     23 H                     0.142909
     24 H                     0.148958
     25 H                     0.189744
     26 H                     0.150977
     27 H                     0.170176
     28 H                     0.277665
     29 C                    -0.337918
     30 H                     0.143251
     31 H                     0.157890
     32 H                     0.208694
  ----------------------------------------
  Sum of atomic charges =     0.000000

                    Cartesian Multipole Moments
 -----------------------------------------------------------------
    Charge (ESU x 10^10)
                 0.0000
    Dipole Moment (Debye)
         X      -0.8221      Y       1.9642      Z       3.4252
       Tot       4.0331
    Quadrupole Moments (Debye-Ang)
        XX     -82.7498     XY      -0.7731     YY     -91.7399
        XZ       2.3280     YZ      -4.4230     ZZ    -100.3294

 Frequency:        25.21                  34.08                  78.64
 Force Cnst:      0.0014                 0.0031                 0.0071
 Red. Mass:       3.6473                 4.5416                 1.9525
 IR Intens:        0.129                  0.572                  0.217
 Frequency:        84.37                 111.10                 124.41
 Force Cnst:      0.0143                 0.0131                 0.0216
 Red. Mass:       3.4145                 1.7975                 2.3706
 IR Intens:        4.872                  0.037                  1.066
 Frequency:       144.47                 153.90                 189.14
 Force Cnst:      0.0471                 0.0187                 0.0735
 Red. Mass:       3.8284                 1.3393                 3.4866
 IR Intens:        1.957                  0.314                  0.434
 Frequency:       214.03                 232.31                 247.90
 Force Cnst:      0.1169                 0.0809                 0.0492
 Red. Mass:       4.3306                 2.5440                 1.3578
 IR Intens:        1.503                  4.217                  1.673
 Frequency:       267.98                 294.47                 317.58
 Force Cnst:      0.1725                 0.2542                 0.1691
 Red. Mass:       4.0761                 4.9758                 2.8462
 IR Intens:        3.659                  3.962                  8.729
 Frequency:       329.08                 343.91                 359.46
 Force Cnst:      0.1861                 0.3068                 0.2056
 Red. Mass:       2.9163                 4.4025                 2.7001
 IR Intens:        0.038                 13.088                  2.936
 Frequency:       378.63                 476.80                 574.29
 Force Cnst:      0.4110                 0.5340                 0.7243
 Red. Mass:       4.8659                 3.9866                 3.7275
 IR Intens:        8.419                 13.592                 17.230
 Frequency:       606.55                 644.64                 663.87
 Force Cnst:      1.1214                 1.1714                 1.1149
 Red. Mass:       5.1735                 4.7844                 4.2936
 IR Intens:       11.282                  4.321                  0.207
 Frequency:       699.83                 750.41                 802.16
 Force Cnst:      1.7650                 1.7319                 1.3519
 Red. Mass:       6.1165                 5.2202                 3.5658
 IR Intens:        4.291                  4.613                  5.248
 Frequency:       813.95                 831.32                 841.59
 Force Cnst:      0.9681                 1.7234                 1.6527
 Red. Mass:       2.4801                 4.2324                 3.9605
 IR Intens:       10.690                 12.622                 11.166
 Frequency:       858.54                 898.59                 904.58
 Force Cnst:      1.2451                 1.2108                 1.3115
 Red. Mass:       2.8671                 2.5450                 2.7204
 IR Intens:       10.251                  6.936                  3.509
 Frequency:       915.44                 933.93                 967.39
 Force Cnst:      1.2147                 1.5848                 2.3661
 Red. Mass:       2.4602                 3.0839                 4.2913
 IR Intens:       12.454                  5.890                  3.128
 Frequency:       973.96                 993.91                1011.37
 Force Cnst:      2.0037                 1.7401                 2.4643
 Red. Mass:       3.5851                 2.9898                 4.0891
 IR Intens:       14.678                 14.080                 41.986
 Frequency:      1036.17                1061.72                1074.02
 Force Cnst:      1.1843                 2.5296                 1.7211
 Red. Mass:       1.8721                 3.8088                 2.5324
 IR Intens:       25.624                 59.217                 22.185
 Frequency:      1123.77                1137.63                1171.05
 Force Cnst:      1.3727                 1.2762                 1.1016
 Red. Mass:       1.8449                 1.6736                 1.3634
 IR Intens:       30.822                 14.109                 25.703
 Frequency:      1171.34                1178.92                1189.11
 Force Cnst:      1.0407                 1.9248                 1.6909
 Red. Mass:       1.2875                 2.3506                 2.0296
 IR Intens:        3.716                182.738                299.696
 Frequency:      1201.95                1204.73                1211.24
 Force Cnst:      1.3529                 1.3901                 1.3416
 Red. Mass:       1.5895                 1.6256                 1.5521
 IR Intens:       12.117                 41.392                 20.044
 Frequency:      1212.89                1216.90                1249.79
 Force Cnst:      1.5292                 1.5369                 1.4021
 Red. Mass:       1.7643                 1.7615                 1.5236
 IR Intens:      142.539                 79.348                 14.405
 Frequency:      1255.08                1290.60                1317.28
 Force Cnst:      1.1748                 1.8488                 1.4615
 Red. Mass:       1.2658                 1.8839                 1.4295
 IR Intens:        3.861                  8.491                 17.017
 Frequency:      1325.21                1336.49                1362.47
 Force Cnst:      1.6301                 2.0356                 1.7466
 Red. Mass:       1.5755                 1.9342                 1.5969
 IR Intens:       20.078                 10.073                 84.831
 Frequency:      1388.89                1431.02                1466.15
 Force Cnst:      1.9211                 1.5973                 1.5001
 Red. Mass:       1.6903                 1.3238                 1.1844
 IR Intens:       49.213                 14.973                 12.569
 Frequency:      1469.02                1481.85                1483.16
 Force Cnst:      1.5285                 1.3535                 1.3906
 Red. Mass:       1.2021                 1.0462                 1.0729
 IR Intens:       15.959                  8.111                  1.837
 Frequency:      1484.13                1491.00                1497.20
 Force Cnst:      1.3557                 1.3854                 1.3808
 Red. Mass:       1.0446                 1.0577                 1.0455
 IR Intens:       11.192                  2.256                 11.612
 Frequency:      1498.99                1500.30                1508.79
 Force Cnst:      1.3873                 1.3962                 1.4733
 Red. Mass:       1.0479                 1.0528                 1.0985
 IR Intens:       10.843                  9.343                  6.262
 Frequency:      1795.39                1811.37                3044.51
 Force Cnst:     21.6646                22.1869                 5.6831
 Red. Mass:      11.4073                11.4771                 1.0406
 IR Intens:       88.727                350.338                 19.039
 Frequency:      3048.68                3049.66                3055.16
 Force Cnst:      5.6371                 5.6420                 5.8695
 Red. Mass:       1.0294                 1.0296                 1.0673
 IR Intens:       33.587                 37.466                 14.103
 Frequency:      3059.99                3067.29                3093.70
 Force Cnst:      5.9139                 5.8885                 6.2445
 Red. Mass:       1.0720                 1.0623                 1.1074
 IR Intens:       21.385                 37.887                  0.595
 Frequency:      3102.49                3110.11                3116.37
 Force Cnst:      6.2494                 6.2476                 6.2715
 Red. Mass:       1.1020                 1.0963                 1.0960
 IR Intens:       12.473                 17.687                 37.580
 Frequency:      3122.31                3123.63                3128.45
 Force Cnst:      6.3587                 6.3654                 6.2860
 Red. Mass:       1.1070                 1.1073                 1.0901
 IR Intens:       19.094                 15.362                 23.581
 Frequency:      3152.61                3157.05                3164.35
 Force Cnst:      6.4788                 6.4968                 6.4729
 Red. Mass:       1.1064                 1.1063                 1.0972
 IR Intens:       14.474                 14.496                  2.806

 STANDARD THERMODYNAMIC QUANTITIES AT   298.15 K  AND     1.00 ATM

   This Molecule has  0 Imaginary Frequencies
   Zero point vibrational energy:      166.296 kcal/mol

   Atom    1 Element C  Has Mass   12.00000
   Atom    2 Element C  Has Mass   12.00000
   Atom    3 Element C  Has Mass   12.00000
   Atom    4 Element C  Has Mass   12.00000
   Atom    5 Element O  Has Mass   15.99491
   Atom    6 Element O  Has Mass   15.99491
   Atom    7 Element O  Has Mass   15.99491
   Atom    8 Element O  Has Mass   15.99491
   Atom    9 Element C  Has Mass   12.00000
   Atom   10 Element C  Has Mass   12.00000
   Atom   11 Element C  Has Mass   12.00000
   Atom   12 Element C  Has Mass   12.00000
   Atom   13 Element C  Has Mass   12.00000
   Atom   14 Element C  Has Mass   12.00000
   Atom   15 Element O  Has Mass   15.99491
   Atom   16 Element H  Has Mass    1.00783
   Atom   17 Element H  Has Mass    1.00783
   Atom   18 Element H  Has Mass    1.00783
   Atom   19 Element H  Has Mass    1.00783
   Atom   20 Element H  Has Mass    1.00783
   Atom   21 Element H  Has Mass    1.00783
   Atom   22 Element H  Has Mass    1.00783
   Atom   23 Element H  Has Mass    1.00783
   Atom   24 Element H  Has Mass    1.00783
   Atom   25 Element H  Has Mass    1.00783
   Atom   26 Element H  Has Mass    1.00783
   Atom   27 Element H  Has Mass    1.00783
   Atom   28 Element H  Has Mass    1.00783
   Atom   29 Element C  Has Mass   12.00000
   Atom   30 Element H  Has Mass    1.00783
   Atom   31 Element H  Has Mass    1.00783
   Atom   32 Element H  Has Mass    1.00783
   Molecular Mass:   228.099830 amu
   Principal axes and moments of inertia in amu*Bohr^2:
                             1           2           3
    Eigenvalues --     2653.10593  3418.81971  5127.79804
          X               0.99998    -0.00309     0.00563
          Y               0.00308     0.99999     0.00238
          Z              -0.00564    -0.00237     0.99998
   Rotational Symmetry Number is   1
   The Molecule is an Asymmetric Top
   Translational Enthalpy:        0.889 kcal/mol
   Rotational Enthalpy:           0.889 kcal/mol
   Vibrational Enthalpy:        174.467 kcal/mol
   gas constant (RT):             0.592 kcal/mol
   Translational Entropy:        42.176  cal/mol.K
   Rotational Entropy:           32.208  cal/mol.K
   Vibrational Entropy:          53.831  cal/mol.K

   Total Enthalpy:              176.837 kcal/mol
   Total Entropy:               128.216  cal/mol.K

 Total job time:  10427.39s(wall), 60360.02s(cpu)
        *  Thank you very much for using Q-Chem.  Have a nice day.  *
