 Q-Chem 5.0, Q-Chem, Inc., Pleasanton, CA (2017)
 Q-Chem 5.0.0 for Intel X86 EM64T Linux

User input:
--------------------------------------------------------------
$molecule
0  1
C    0.579  -1.978   0.499
C   -0.345  -1.987   1.740
C    0.941  -0.610  -0.048
C   -0.562  -0.630   2.386
O    2.215  -0.645  -0.542
O    0.210   0.366  -0.087
O    0.648  -0.161   2.826
O   -1.631  -0.088   2.617
C    0.572   1.116   3.461
C    2.652   0.593  -1.106
C   -0.242  -2.782  -0.524
C   -0.292  -4.259  -0.098
C   -1.265  -4.223   1.081
C   -1.594  -2.718   1.188
O   -1.591  -2.362  -0.216
H    1.516  -2.494   0.747
H    0.090  -2.606   2.538
H   -0.024   1.052   4.377
H    2.622   1.389  -0.356
H   -0.708  -4.895  -0.888
H    0.690  -4.657   0.174
H   -2.154  -4.811   0.825
H   -0.840  -4.639   1.999
H    1.587   1.422   3.729
H    0.156   1.863   2.777
H    2.039   0.852  -1.975
H    3.687   0.467  -1.436
C   -2.945  -2.478   1.828
H   -3.699  -3.155   1.411
H   -2.911  -2.635   2.910
H   -3.320  -1.473   1.614
C    0.085  -2.603  -1.994
H   -0.579  -3.214  -2.616
H   -0.074  -1.570  -2.320
H    1.119  -2.890  -2.210
$end

$opt
CONSTRAINT
tors    2    1    3    5    147.3
tors    1    2    4    7    -59.6
ENDCONSTRAINT
$end

$rem
JOBTYPE                   OPT
METHOD                    B3LYP
DFT_D                     D3_OP
BASIS                     STO-3G
GEOM_OPT_MAX_CYCLES       500
SYMMETRY                  False
THRESH                    12
SCF_CONVERGENCE           8
MAX_SUB_FILE_NUM          128
MEM_STATIC                400
MEM_TOTAL                 4000
$end

--------------------------------------------------------------

   14    -833.4099632771      3.41E-09 Convergence criterion met
 Total energy in the final basis set = -833.4099632771
   13    -833.4407638176      3.77E-09 Convergence criterion met
 Total energy in the final basis set = -833.4407638176
   13    -833.4468361358      3.58E-09 Convergence criterion met
 Total energy in the final basis set = -833.4468361358
   12    -833.4473876797      4.58E-09 Convergence criterion met
 Total energy in the final basis set = -833.4473876797
   11    -833.4475576713      7.12E-09 Convergence criterion met
 Total energy in the final basis set = -833.4475576713
   11    -833.4476962980      7.11E-09 Convergence criterion met
 Total energy in the final basis set = -833.4476962980
   11    -833.4478493693      3.77E-09 Convergence criterion met
 Total energy in the final basis set = -833.4478493693
   12    -833.4480948640      2.63E-09 Convergence criterion met
 **  OPTIMIZATION CONVERGED  **
 Total job time:  132.34s(wall), 2675.16s(cpu)
        *  Thank you very much for using Q-Chem.  Have a nice day.  *

User input: 2 of 3

nid04264 10.128.16
Q-Chem Developer Version! Running on 10.128.16.*
                  Welcome to Q-Chem
     A Quantum Leap Into The Future Of Chemistry

 Q-Chem 5.0, Q-Chem, Inc., Pleasanton, CA (2017)

 Yihan Shao,  Zhengting Gan,  E. Epifanovsky,  A. T. B. Gilbert,  M. Wormit,
 J. Kussmann,  A. W. Lange,  A. Behn,  Jia Deng,  Xintian Feng,  D. Ghosh,
 M. Goldey,  P. R. Horn,  L. D. Jacobson,  I. Kaliman,  T. Kus,  A. Landau,
 Jie Liu,  E. I. Proynov,  R. M. Richard,  R. P. Steele,  E. J. Sundstrom,
 H. L. Woodcock III,  P. M. Zimmerman,  D. Zuev,  B. Albrecht,  E. Alguire,
 S. A. Baeppler,  Z. Benda,  Y. A. Bernard,  E. J. Berquist,  K. B. Bravaya,
 D. Casanova,  Chun-Min Chang,  Yunqing Chen,  A. Chien,  K. D. Closser,
 M. P. Coons,  S. Dasgupta,  M. Diedenhofen,  Hainam Do,  R. G. Edgar,
 Po-Tung Fang,  S. Fatehi,  Qingguo Feng,  Qinghui Ge,  A. Ghysels,
 J. Gomes,  J. Gonthier,  A. Gunina,  M. W. D. Hanson-Heine,
 P. H. P. Harbach,  A. W. Hauser,  J. E. Herr,  E. G. Hohenstein,
 Z. C. Holden,  Kerwin Hui,  T.-C. Jagau,  Hyunjun Ji,  B. Kaduk,
 K. Khistyaev,  Jaehoon Kim,  P. Klunzinger,  K. Koh,  D. Kosenkov,
 T. Kowalczyk,  C. M. Krauter,  A. Kunitsa,  Ka Un Lao,  A. Laurent,
 K. V. Lawler,  Joonho Lee,  D. Lefrancois,  S. Lehtola,  D. S. Levine,
 Yi-Pei Li,  You-Sheng Lin,  Fenglai Liu,  E. Livshits,  A. Luenser,
 P. Manohar,  E. Mansoor,  S. F. Manzer,  Shan-Ping Mao,  Yuezhi Mao,
 N. Mardirossian,  A. V. Marenich,  L. A. Martinez-Martinez,  S. A. Maurer,
 N. J. Mayhall,  S. C. McKenzie,  J.-M. Mewes,  A. F. Morrison,  K. Nanda,
 T. S. Nguyen-Beck,  R. Olivares-Amaya,  J. A. Parkhill,  T. M. Perrine,
 F. Plasser,  S. Prager,  A. Prociuk,  D. R. Rehn,  F. Rob,  M. Schneider,
 N. Sergueev,  S. M. Sharada,  S. Sharma,  D. W. Small,  T. Stauch,
 T. Stein,  Yu-Chuan Su,  A. J. W. Thom,  T. Tsuchimochi,  L. Vogt,
 O. Vydrov,  M. A. Watson,  J. Wenzel,  M. de Wergifosse,  T. A. Wesolowski,
 A. White,  J. Witte,  A. Yamada,  Jun Yang,  K. Yao,  S. Yeganeh,
 S. R. Yost,  Zhi-Qiang You,  A. Zech,  Igor Ying Zhang,  Xing Zhang,
 Yan Zhao,  Ying Zhu,  B. R. Brooks,  G. K. L. Chan,  C. J. Cramer,
 M. S. Gordon,  W. J. Hehre,  A. Klamt,  M. W. Schmidt,  C. D. Sherrill,
 D. G. Truhlar,  A. Aspuru-Guzik,  R. Baer,  A. T. Bell,  N. A. Besley,
 Jeng-Da Chai,  A. Dreuw,  B. D. Dunietz,  T. R. Furlani,  Chao-Ping Hsu,
 Yousung Jung,  Jing Kong,  D. S. Lambrecht,  WanZhen Liang,  C. Ochsenfeld,
 V. A. Rassolov,  L. V. Slipchenko,  J. E. Subotnik,  T. Van Voorhis,
 J. M. Herbert,  A. I. Krylov,  P. M. W. Gill,  M. Head-Gordon

 Contributors to earlier versions of Q-Chem not listed above:
 R. D. Adamson,  B. Austin,  J. Baker,  G. J. O. Beran,  K. Brandhorst,
 S. T. Brown,  E. F. C. Byrd,  A. K. Chakraborty,  C.-L. Cheng,
 Siu Hung Chien,  D. M. Chipman,  D. L. Crittenden,  H. Dachsel,
 R. A. DiStasio Jr.,  R. J. Doerksen,  A. D. Dutoi,  L. Fusti-Molnar,
 W. A. Goddard III,  A. Golubeva-Zadorozhnaya,  S. R. Gwaltney,  G. Hawkins,
 A. Heyden,  S. Hirata,  G. Kedziora,  F. J. Keil,  C. Kelley,  Jihan Kim,
 R. A. King,  R. Z. Khaliullin,  P. P. Korambath,  W. Kurlancheek,
 A. M. Lee,  M. S. Lee,  S. V. Levchenko,  Ching Yeh Lin,  D. Liotard,
 R. C. Lochan,  I. Lotan,  P. E. Maslen,  N. Nair,  D. P. O'Neill,
 D. Neuhauser,  E. Neuscamman,  C. M. Oana,  R. Olson,  B. Peters,
 R. Peverati,  P. A. Pieniazek,  Y. M. Rhee,  J. Ritchie,  M. A. Rohrdanz,
 E. Rosta,  N. J. Russ,  H. F. Schaefer III,  N. E. Schultz,  N. Shenvi,
 A. C. Simmonett,  A. Sodt,  D. Stuck,  K. S. Thanthiriwatte,  V. Vanovschi,
 Tao Wang,  A. Warshel,  C. F. Williams,  Q. Wu,  X. Xu,  W. Zhang

 Please cite Q-Chem as follows:
 Y. Shao et al., Mol. Phys. 113, 184-215 (2015)
 DOI: 10.1080/00268976.2014.952696

 Q-Chem 5.0.0 for Intel X86 EM64T Linux

 Parts of Q-Chem use Armadillo 5.200.1 (Boston Tea Smuggler).
 http://arma.sourceforge.net/

 Q-Chem begins on Wed Oct  4 18:01:43 2017

Host: nid04264
0

     Scratch files written to /global/cscratch1/sd/junteng/scratch/15/opt_1111o+.save//
The previous job contains 0 fragments, simply inherited here

Checking the input file for inconsistencies... 	...done.

--------------------------------------------------------------
User input:
--------------------------------------------------------------

$molecule
   read
$end

$rem
JOBTYPE                   OPT
METHOD                    B3LYP
DFT_D                     D3_OP
BASIS                     6-311++G(d,p)
GEOM_OPT_MAX_CYCLES       500
GEOM_OPT_TOL_GRADIENT     1
GEOM_OPT_TOL_DISPLACEMENT 1
GEOM_OPT_TOL_ENERGY       1
SYMMETRY                  False
THRESH                    12
SCF_CONVERGENCE           8
MAX_SUB_FILE_NUM          128
MEM_STATIC                400
MEM_TOTAL                 4000
$end

--------------------------------------------------------------

    6    -844.5292098973      9.02E-09 Convergence criterion met
 Total energy in the final basis set = -844.5292098973
    6    -844.5292099032      7.81E-09 Convergence criterion met
 Total energy in the final basis set = -844.5292099032
    6    -844.5292098962      7.12E-09 Convergence criterion met
 Total energy in the final basis set = -844.5292098962
    6    -844.5292099013      6.36E-09 Convergence criterion met
 Total energy in the final basis set = -844.5292099013
    6    -844.5292098964      5.75E-09 Convergence criterion met
 Total energy in the final basis set = -844.5292098964
    6    -844.5292099005      5.17E-09 Convergence criterion met
 Total energy in the final basis set = -844.5292099005
 Final energy is   -844.529209900478
        *  Thank you very much for using Q-Chem.  Have a nice day.  *
 Q-Chem 5.0, Q-Chem, Inc., Pleasanton, CA (2017)
 Q-Chem 5.0.0 for Intel X86 EM64T Linux

             Standard Nuclear Orientation (Angstroms)
    I     Atom           X                Y                Z
 ----------------------------------------------------------------
    1      C       0.0285102308     0.6613859725     0.6476276780
    2      C       0.5127192196    -0.8292169307     0.6447072683
    3      C      -1.2639389051     0.9257920909    -0.0909238546
    4      C      -0.5013258727    -1.8069679815     0.0669384289
    5      O      -1.9830550948     1.8752573663     0.5508206143
    6      O      -1.6109279266     0.4237911626    -1.1307712416
    7      O      -1.6258140244    -1.7614631097     0.8248082953
    8      O      -0.3647430524    -2.5577499348    -0.8614903714
    9      C      -2.7355971094    -2.5417102731     0.3445496064
   10      C      -3.2084600074     2.2760300923    -0.0893646807
   11      C       1.2370193520     1.3723878016    -0.0757825110
   12      C       2.4038742243     1.4285722002     0.9423796576
   13      C       2.8669534438    -0.0501833030     0.9607958501
   14      C       1.9011019091    -0.7109649209    -0.0649770016
   15      O       1.6741171885     0.3668015383    -0.9957304247
   16      H      -0.0896050370     1.0431029139     1.6600289137
   17      H       0.6471090691    -1.1529859860     1.6799407980
   18      H      -2.4738081787    -3.5999407779     0.3016742156
   19      H      -3.8662344393     1.4164692701    -0.2254231876
   20      H       3.1880699623     2.0873183467     0.5637965094
   21      H       2.0907233249     1.8061133552     1.9176778361
   22      H       3.8939798021    -0.1472557237     0.6050990546
   23      H       2.8099941598    -0.5157751262     1.9468680184
   24      H      -3.5385467553    -2.3754888958     1.0597599993
   25      H      -3.0267895298    -2.1989731869    -0.6496253479
   26      H      -3.0017705801     2.7259565615    -1.0618427544
   27      H      -3.6613662325     3.0037213979     0.5803952117
   28      C       2.4737793546    -1.9197146189    -0.7730081541
   29      H       3.4686215982    -1.6754593858    -1.1530317138
   30      H       2.5661521793    -2.7585540125    -0.0777142840
   31      H       1.8355641737    -2.2309070793    -1.5955814339
   32      C       0.9296503000     2.6657349955    -0.7980211052
   33      H       1.8369432194     3.0469974015    -1.2708951614
   34      H       0.1792321991     2.5075436047    -1.5745980742
   35      H       0.5593975045     3.4181503924    -0.0971506685
 ----------------------------------------------------------------

   15    -844.5292088274      3.73E-09 Convergence criterion met
 Total energy in the final basis set = -844.5292088274

                    Orbital Energies (a.u.)
 --------------------------------------------------------------

 Alpha MOs
 -- Occupied --
-19.177 -19.166 -19.125 -19.117 -19.111 -10.306 -10.303 -10.242
-10.236 -10.232 -10.223 -10.203 -10.203 -10.177 -10.175 -10.168
-10.154  -1.117  -1.108  -1.059  -1.029  -1.023  -0.830  -0.803
 -0.782  -0.749  -0.725  -0.720  -0.670  -0.642  -0.601  -0.581
 -0.563  -0.553  -0.526  -0.508  -0.501  -0.491  -0.488  -0.480
 -0.473  -0.470  -0.456  -0.439  -0.433  -0.422  -0.419  -0.411
 -0.405  -0.396  -0.392  -0.373  -0.369  -0.365  -0.358  -0.355
 -0.352  -0.346  -0.331  -0.323  -0.318  -0.308  -0.289  -0.274
 -0.269

          Ground-State Mulliken Net Atomic Charges

     Atom                 Charge (a.u.)
  ----------------------------------------
      1 C                     0.697815
      2 C                     0.416790
      3 C                    -1.524692
      4 C                    -0.529586
      5 O                     0.041904
      6 O                    -0.152191
      7 O                    -0.018941
      8 O                    -0.171653
      9 C                    -0.176131
     10 C                    -0.186866
     11 C                    -0.180787
     12 C                    -0.294411
     13 C                    -0.436494
     14 C                    -0.748672
     15 O                     0.038580
     16 H                     0.295172
     17 H                     0.261384
     18 H                     0.169459
     19 H                     0.162307
     20 H                     0.170236
     21 H                     0.140873
     22 H                     0.174705
     23 H                     0.139365
     24 H                     0.148779
     25 H                     0.190562
     26 H                     0.178560
     27 H                     0.154251
     28 C                    -0.021308
     29 H                     0.141516
     30 H                     0.159342
     31 H                     0.207860
     32 C                    -0.008921
     33 H                     0.178863
     34 H                     0.218818
     35 H                     0.163511
  ----------------------------------------
  Sum of atomic charges =     0.000000

                    Cartesian Multipole Moments
 -----------------------------------------------------------------
    Charge (ESU x 10^10)
                 0.0000
    Dipole Moment (Debye)
         X      -0.8274      Y       2.0038      Z       3.5057
       Tot       4.1219
    Quadrupole Moments (Debye-Ang)
        XX     -89.2159     XY      -0.9399     YY     -97.7604
        XZ       1.5855     YZ      -4.7436     ZZ    -107.8645

 Frequency:        24.78                  37.50                  79.91
 Force Cnst:      0.0014                 0.0040                 0.0190
 Red. Mass:       3.8795                 4.8735                 5.0410
 IR Intens:        0.024                  0.849                  3.037
 Frequency:        99.92                 121.75                 146.36
 Force Cnst:      0.0205                 0.0158                 0.0209
 Red. Mass:       3.4802                 1.8036                 1.6588
 IR Intens:        2.001                  0.228                  1.128
 Frequency:       149.41                 151.63                 185.73
 Force Cnst:      0.0234                 0.0219                 0.0622
 Red. Mass:       1.7813                 1.6148                 3.0608
 IR Intens:        1.205                  0.468                  0.494
 Frequency:       218.95                 221.41                 224.31
 Force Cnst:      0.0652                 0.0427                 0.0558
 Red. Mass:       2.3076                 1.4778                 1.8833
 IR Intens:        0.271                  2.447                  2.599
 Frequency:       233.38                 247.25                 260.40
 Force Cnst:      0.0525                 0.0798                 0.1874
 Red. Mass:       1.6345                 2.2155                 4.6904
 IR Intens:        2.692                  1.851                  4.133
 Frequency:       280.77                 320.02                 325.02
 Force Cnst:      0.1708                 0.2419                 0.1644
 Red. Mass:       3.6776                 4.0090                 2.6418
 IR Intens:        1.185                 12.365                  0.467
 Frequency:       339.93                 367.38                 370.12
 Force Cnst:      0.2392                 0.3392                 0.3005
 Red. Mass:       3.5133                 4.2658                 3.7229
 IR Intens:        5.277                  4.077                  8.870
 Frequency:       422.86                 488.91                 572.76
 Force Cnst:      0.3042                 0.4701                 0.7422
 Red. Mass:       2.8875                 3.3379                 3.8400
 IR Intens:        3.880                 12.583                 11.458
 Frequency:       596.65                 613.54                 648.03
 Force Cnst:      0.9843                 0.8977                 1.1159
 Red. Mass:       4.6929                 4.0474                 4.5100
 IR Intens:        8.657                  3.916                  2.038
 Frequency:       674.96                 719.34                 755.09
 Force Cnst:      1.2955                 1.8103                 1.5410
 Red. Mass:       4.8264                 5.9377                 4.5872
 IR Intens:        1.057                  7.463                  2.851
 Frequency:       808.16                 825.01                 858.35
 Force Cnst:      1.1922                 1.0399                 1.3350
 Red. Mass:       3.0983                 2.5930                 3.0755
 IR Intens:        1.740                  8.674                  5.895
 Frequency:       862.12                 871.88                 887.60
 Force Cnst:      2.1318                 1.9268                 1.1519
 Red. Mass:       4.8681                 4.3021                 2.4817
 IR Intens:        7.511                 23.094                 18.820
 Frequency:       890.81                 914.58                 926.64
 Force Cnst:      1.1355                 1.0969                 1.3150
 Red. Mass:       2.4287                 2.2257                 2.5992
 IR Intens:        8.483                 11.608                 30.005
 Frequency:       968.26                 971.79                 985.87
 Force Cnst:      1.8318                 2.4671                 1.9223
 Red. Mass:       3.3162                 4.4340                 3.3568
 IR Intens:        7.765                  3.349                  5.382
 Frequency:      1010.73                1056.25                1065.02
 Force Cnst:      0.9546                 2.4475                 2.0121
 Red. Mass:       1.5859                 3.7234                 3.0109
 IR Intens:        2.091                 61.673                 53.991
 Frequency:      1109.75                1129.42                1137.70
 Force Cnst:      1.0842                 1.3228                 1.8527
 Red. Mass:       1.4941                 1.7601                 2.4294
 IR Intens:        7.303                 22.863                 22.840
 Frequency:      1165.26                1171.03                1172.14
 Force Cnst:      1.7528                 1.0496                 1.1021
 Red. Mass:       2.1909                 1.2991                 1.3615
 IR Intens:      112.905                  9.773                 12.442
 Frequency:      1181.08                1195.01                1204.87
 Force Cnst:      1.9090                 2.4117                 1.6169
 Red. Mass:       2.3228                 2.8664                 1.8904
 IR Intens:       57.007                369.712                  7.340
 Frequency:      1209.81                1212.37                1220.93
 Force Cnst:      1.3498                 1.6363                 1.6083
 Red. Mass:       1.5652                 1.8895                 1.8312
 IR Intens:       18.815                159.502                 16.880
 Frequency:      1246.00                1257.36                1263.28
 Force Cnst:      2.0330                 1.2586                 1.4102
 Red. Mass:       2.2225                 1.3512                 1.4998
 IR Intens:       37.207                  2.934                 26.749
 Frequency:      1286.72                1330.02                1343.83
 Force Cnst:      1.6615                 1.6279                 2.4266
 Red. Mass:       1.7032                 1.5619                 2.2806
 IR Intens:        8.413                  1.580                  6.469
 Frequency:      1370.41                1396.44                1418.21
 Force Cnst:      1.7491                 1.8217                 1.6213
 Red. Mass:       1.5808                 1.5856                 1.3681
 IR Intens:      101.543                 39.607                 24.140
 Frequency:      1428.54                1466.78                1468.75
 Force Cnst:      1.5984                 1.5035                 1.5304
 Red. Mass:       1.3294                 1.1861                 1.2041
 IR Intens:       11.814                 14.217                 14.531
 Frequency:      1482.75                1483.79                1484.00
 Force Cnst:      1.3757                 1.3555                 1.3589
 Red. Mass:       1.0620                 1.0450                 1.0473
 IR Intens:        4.134                  2.188                 15.857
 Frequency:      1488.26                1494.36                1495.80
 Force Cnst:      1.3845                 1.3940                 1.3812
 Red. Mass:       1.0609                 1.0595                 1.0477
 IR Intens:        5.543                  0.938                  7.864
 Frequency:      1499.11                1501.42                1508.47
 Force Cnst:      1.3838                 1.3981                 1.4267
 Red. Mass:       1.0451                 1.0526                 1.0641
 IR Intens:       14.519                  7.290                 10.855
 Frequency:      1511.95                1791.37                1811.71
 Force Cnst:      1.4587                20.8431                22.0974
 Red. Mass:       1.0830                11.0241                11.4265
 IR Intens:        7.718                 89.400                319.425
 Frequency:      3041.21                3042.10                3048.87
 Force Cnst:      5.6415                 5.6746                 5.6381
 Red. Mass:       1.0353                 1.0407                 1.0294
 IR Intens:       15.154                 16.061                 18.634
 Frequency:      3049.20                3053.56                3061.79
 Force Cnst:      5.6403                 5.8278                 5.9056
 Red. Mass:       1.0296                 1.0608                 1.0692
 IR Intens:       51.459                 30.457                 23.542
 Frequency:      3067.84                3090.50                3098.90
 Force Cnst:      5.9465                 6.2288                 6.2359
 Red. Mass:       1.0724                 1.1069                 1.1021
 IR Intens:       28.207                  0.347                 13.007
 Frequency:      3108.46                3110.52                3117.00
 Force Cnst:      6.2809                 6.2744                 6.3113
 Red. Mass:       1.1033                 1.1007                 1.1025
 IR Intens:       14.803                 28.803                 20.051
 Frequency:      3118.47                3122.25                3123.43
 Force Cnst:      6.2431                 6.3580                 6.3637
 Red. Mass:       1.0896                 1.1070                 1.1071
 IR Intens:       26.080                 20.482                 13.838
 Frequency:      3152.50                3156.30                3165.08
 Force Cnst:      6.4790                 6.4924                 6.4715
 Red. Mass:       1.1065                 1.1061                 1.0964
 IR Intens:       14.043                 14.375                  2.118

 STANDARD THERMODYNAMIC QUANTITIES AT   298.15 K  AND     1.00 ATM

   This Molecule has  0 Imaginary Frequencies
   Zero point vibrational energy:      183.654 kcal/mol

   Atom    1 Element C  Has Mass   12.00000
   Atom    2 Element C  Has Mass   12.00000
   Atom    3 Element C  Has Mass   12.00000
   Atom    4 Element C  Has Mass   12.00000
   Atom    5 Element O  Has Mass   15.99491
   Atom    6 Element O  Has Mass   15.99491
   Atom    7 Element O  Has Mass   15.99491
   Atom    8 Element O  Has Mass   15.99491
   Atom    9 Element C  Has Mass   12.00000
   Atom   10 Element C  Has Mass   12.00000
   Atom   11 Element C  Has Mass   12.00000
   Atom   12 Element C  Has Mass   12.00000
   Atom   13 Element C  Has Mass   12.00000
   Atom   14 Element C  Has Mass   12.00000
   Atom   15 Element O  Has Mass   15.99491
   Atom   16 Element H  Has Mass    1.00783
   Atom   17 Element H  Has Mass    1.00783
   Atom   18 Element H  Has Mass    1.00783
   Atom   19 Element H  Has Mass    1.00783
   Atom   20 Element H  Has Mass    1.00783
   Atom   21 Element H  Has Mass    1.00783
   Atom   22 Element H  Has Mass    1.00783
   Atom   23 Element H  Has Mass    1.00783
   Atom   24 Element H  Has Mass    1.00783
   Atom   25 Element H  Has Mass    1.00783
   Atom   26 Element H  Has Mass    1.00783
   Atom   27 Element H  Has Mass    1.00783
   Atom   28 Element C  Has Mass   12.00000
   Atom   29 Element H  Has Mass    1.00783
   Atom   30 Element H  Has Mass    1.00783
   Atom   31 Element H  Has Mass    1.00783
   Atom   32 Element C  Has Mass   12.00000
   Atom   33 Element H  Has Mass    1.00783
   Atom   34 Element H  Has Mass    1.00783
   Atom   35 Element H  Has Mass    1.00783
   Molecular Mass:   242.115490 amu
   Principal axes and moments of inertia in amu*Bohr^2:
                             1           2           3
    Eigenvalues --     2977.11741  3617.55135  5614.24312
          X               0.99992    -0.01143     0.00566
          Y               0.01146     0.99992    -0.00481
          Z              -0.00561     0.00487     0.99997
   Rotational Symmetry Number is   1
   The Molecule is an Asymmetric Top
   Translational Enthalpy:        0.889 kcal/mol
   Rotational Enthalpy:           0.889 kcal/mol
   Vibrational Enthalpy:        192.707 kcal/mol
   gas constant (RT):             0.592 kcal/mol
   Translational Entropy:        42.354  cal/mol.K
   Rotational Entropy:           32.469  cal/mol.K
   Vibrational Entropy:          58.056  cal/mol.K

   Total Enthalpy:              195.077 kcal/mol
   Total Entropy:               132.879  cal/mol.K

 Total job time:  14233.70s(wall), 84624.50s(cpu)
        *  Thank you very much for using Q-Chem.  Have a nice day.  *
