 Q-Chem 5.0, Q-Chem, Inc., Pleasanton, CA (2017)
 Q-Chem 5.0.0 for Intel X86 EM64T Linux

User input:
--------------------------------------------------------------
$molecule
0  1
C    0.304  -2.425   0.241
C   -0.187  -2.670   1.539
C    0.664  -1.037  -0.131
C   -0.223  -1.586   2.547
O    1.892  -1.027  -0.706
O   -0.050  -0.071   0.073
O    1.036  -1.102   2.698
O   -1.208  -1.281   3.197
C    1.131  -0.051   3.659
C    2.346   0.277  -1.069
C    0.337  -3.468  -0.713
C   -0.078  -4.750  -0.324
C   -0.556  -4.992   0.965
C   -0.619  -3.961   1.912
H    0.496   0.792   3.371
H    1.683   0.717  -1.820
H   -0.885  -5.997   1.223
H    0.862  -0.417   4.655
H    2.169   0.291   3.685
H    3.345   0.180  -1.503
H    2.413   0.921  -0.186
H   -0.050  -5.576  -1.034
C   -1.153  -4.262   3.286
C    0.800  -3.263  -2.130
H    0.377  -2.346  -2.553
H    0.472  -4.085  -2.776
H    1.893  -3.221  -2.170
H   -2.134  -3.796   3.422
H   -0.464  -3.904   4.057
H   -1.273  -5.340   3.441
$end

$opt
CONSTRAINT
tors    2    1    3    5    135.2
tors    1    2    4    7    -57.3
ENDCONSTRAINT
$end

$rem
JOBTYPE                   OPT
METHOD                    B3LYP
DFT_D                     D3_OP
BASIS                     6-311++G(d,p)
GEOM_OPT_MAX_CYCLES       500
GEOM_OPT_TOL_DISPLACEMENT 1
SYMMETRY                  False
THRESH                    12
SCF_CONVERGENCE           8
MAX_SUB_FILE_NUM          128
MEM_STATIC                400
MEM_TOTAL                 4000
$end

--------------------------------------------------------------

   15    -766.8688329267      7.94E-09 Convergence criterion met
 Total energy in the final basis set = -766.8688329267
   13    -766.8741767060      3.99E-09 Convergence criterion met
 Total energy in the final basis set = -766.8741767060
   12    -766.8746393956      4.85E-09 Convergence criterion met
 Total energy in the final basis set = -766.8746393956
   11    -766.8747141139      8.62E-09 Convergence criterion met
 Total energy in the final basis set = -766.8747141139
   11    -766.8747429135      4.95E-09 Convergence criterion met
 Total energy in the final basis set = -766.8747429135
   10    -766.8747570527      4.85E-09 Convergence criterion met
 Total energy in the final basis set = -766.8747570527
   10    -766.8747692159      4.21E-09 Convergence criterion met
 Total energy in the final basis set = -766.8747692159
    9    -766.8747847086      9.28E-09 Convergence criterion met
 **  OPTIMIZATION CONVERGED  **
 Total job time:  958.01s(wall), 18018.62s(cpu)
        *  Thank you very much for using Q-Chem.  Have a nice day.  *

User input: 2 of 2

nid05457 10.128.21
Q-Chem Developer Version! Running on 10.128.21.*
                  Welcome to Q-Chem
     A Quantum Leap Into The Future Of Chemistry

 Q-Chem 5.0, Q-Chem, Inc., Pleasanton, CA (2017)

 Yihan Shao,  Zhengting Gan,  E. Epifanovsky,  A. T. B. Gilbert,  M. Wormit,
 J. Kussmann,  A. W. Lange,  A. Behn,  Jia Deng,  Xintian Feng,  D. Ghosh,
 M. Goldey,  P. R. Horn,  L. D. Jacobson,  I. Kaliman,  T. Kus,  A. Landau,
 Jie Liu,  E. I. Proynov,  R. M. Richard,  R. P. Steele,  E. J. Sundstrom,
 H. L. Woodcock III,  P. M. Zimmerman,  D. Zuev,  B. Albrecht,  E. Alguire,
 S. A. Baeppler,  Z. Benda,  Y. A. Bernard,  E. J. Berquist,  K. B. Bravaya,
 D. Casanova,  Chun-Min Chang,  Yunqing Chen,  A. Chien,  K. D. Closser,
 M. P. Coons,  S. Dasgupta,  M. Diedenhofen,  Hainam Do,  R. G. Edgar,
 Po-Tung Fang,  S. Fatehi,  Qingguo Feng,  Qinghui Ge,  A. Ghysels,
 J. Gomes,  J. Gonthier,  A. Gunina,  M. W. D. Hanson-Heine,
 P. H. P. Harbach,  A. W. Hauser,  J. E. Herr,  E. G. Hohenstein,
 Z. C. Holden,  Kerwin Hui,  T.-C. Jagau,  Hyunjun Ji,  B. Kaduk,
 K. Khistyaev,  Jaehoon Kim,  P. Klunzinger,  K. Koh,  D. Kosenkov,
 T. Kowalczyk,  C. M. Krauter,  A. Kunitsa,  Ka Un Lao,  A. Laurent,
 K. V. Lawler,  Joonho Lee,  D. Lefrancois,  S. Lehtola,  D. S. Levine,
 Yi-Pei Li,  You-Sheng Lin,  Fenglai Liu,  E. Livshits,  A. Luenser,
 P. Manohar,  E. Mansoor,  S. F. Manzer,  Shan-Ping Mao,  Yuezhi Mao,
 N. Mardirossian,  A. V. Marenich,  L. A. Martinez-Martinez,  S. A. Maurer,
 N. J. Mayhall,  S. C. McKenzie,  J.-M. Mewes,  A. F. Morrison,  K. Nanda,
 T. S. Nguyen-Beck,  R. Olivares-Amaya,  J. A. Parkhill,  T. M. Perrine,
 F. Plasser,  S. Prager,  A. Prociuk,  D. R. Rehn,  F. Rob,  M. Schneider,
 N. Sergueev,  S. M. Sharada,  S. Sharma,  D. W. Small,  T. Stauch,
 T. Stein,  Yu-Chuan Su,  A. J. W. Thom,  T. Tsuchimochi,  L. Vogt,
 O. Vydrov,  M. A. Watson,  J. Wenzel,  M. de Wergifosse,  T. A. Wesolowski,
 A. White,  J. Witte,  A. Yamada,  Jun Yang,  K. Yao,  S. Yeganeh,
 S. R. Yost,  Zhi-Qiang You,  A. Zech,  Igor Ying Zhang,  Xing Zhang,
 Yan Zhao,  Ying Zhu,  B. R. Brooks,  G. K. L. Chan,  C. J. Cramer,
 M. S. Gordon,  W. J. Hehre,  A. Klamt,  M. W. Schmidt,  C. D. Sherrill,
 D. G. Truhlar,  A. Aspuru-Guzik,  R. Baer,  A. T. Bell,  N. A. Besley,
 Jeng-Da Chai,  A. Dreuw,  B. D. Dunietz,  T. R. Furlani,  Chao-Ping Hsu,
 Yousung Jung,  Jing Kong,  D. S. Lambrecht,  WanZhen Liang,  C. Ochsenfeld,
 V. A. Rassolov,  L. V. Slipchenko,  J. E. Subotnik,  T. Van Voorhis,
 J. M. Herbert,  A. I. Krylov,  P. M. W. Gill,  M. Head-Gordon

 Contributors to earlier versions of Q-Chem not listed above:
 R. D. Adamson,  B. Austin,  J. Baker,  G. J. O. Beran,  K. Brandhorst,
 S. T. Brown,  E. F. C. Byrd,  A. K. Chakraborty,  C.-L. Cheng,
 Siu Hung Chien,  D. M. Chipman,  D. L. Crittenden,  H. Dachsel,
 R. A. DiStasio Jr.,  R. J. Doerksen,  A. D. Dutoi,  L. Fusti-Molnar,
 W. A. Goddard III,  A. Golubeva-Zadorozhnaya,  S. R. Gwaltney,  G. Hawkins,
 A. Heyden,  S. Hirata,  G. Kedziora,  F. J. Keil,  C. Kelley,  Jihan Kim,
 R. A. King,  R. Z. Khaliullin,  P. P. Korambath,  W. Kurlancheek,
 A. M. Lee,  M. S. Lee,  S. V. Levchenko,  Ching Yeh Lin,  D. Liotard,
 R. C. Lochan,  I. Lotan,  P. E. Maslen,  N. Nair,  D. P. O'Neill,
 D. Neuhauser,  E. Neuscamman,  C. M. Oana,  R. Olson,  B. Peters,
 R. Peverati,  P. A. Pieniazek,  Y. M. Rhee,  J. Ritchie,  M. A. Rohrdanz,
 E. Rosta,  N. J. Russ,  H. F. Schaefer III,  N. E. Schultz,  N. Shenvi,
 A. C. Simmonett,  A. Sodt,  D. Stuck,  K. S. Thanthiriwatte,  V. Vanovschi,
 Tao Wang,  A. Warshel,  C. F. Williams,  Q. Wu,  X. Xu,  W. Zhang

 Please cite Q-Chem as follows:
 Y. Shao et al., Mol. Phys. 113, 184-215 (2015)
 DOI: 10.1080/00268976.2014.952696

 Q-Chem 5.0.0 for Intel X86 EM64T Linux

 Parts of Q-Chem use Armadillo 5.200.1 (Boston Tea Smuggler).
 http://arma.sourceforge.net/

 Q-Chem begins on Tue Oct  3 18:38:59 2017

Host: nid05457
0

     Scratch files written to /global/cscratch1/sd/junteng/scratch/18/opt_11n11.save//
The previous job contains 0 fragments, simply inherited here

Checking the input file for inconsistencies... 	...done.

--------------------------------------------------------------
User input:
--------------------------------------------------------------

$molecule
   read
$end

$rem
JOBTYPE                   OPT
METHOD                    B3LYP
DFT_D                     D3_OP
BASIS                     6-311++G(d,p)
GEOM_OPT_MAX_CYCLES       500
GEOM_OPT_TOL_DISPLACEMENT 1
SYMMETRY                  False
THRESH                    12
SCF_CONVERGENCE           8
MAX_SUB_FILE_NUM          128
MEM_STATIC                400
MEM_TOTAL                 4000
$end
--------------------------------------------------------------

   12    -766.8749810758      7.53E-09 Convergence criterion met
 Total energy in the final basis set = -766.8749810758
   12    -766.8750502133      7.54E-09 Convergence criterion met
 Total energy in the final basis set = -766.8750502133
   13    -766.8750909112      2.33E-09 Convergence criterion met
 Total energy in the final basis set = -766.8750909112
   11    -766.8750915557      9.42E-09 Convergence criterion met
 Total energy in the final basis set = -766.8750915557
   11    -766.8750994551      3.06E-09 Convergence criterion met
 Total energy in the final basis set = -766.8750994551
   10    -766.8751032484      5.81E-09 Convergence criterion met
 Total energy in the final basis set = -766.8751032484

             Standard Nuclear Orientation (Angstroms)
    I     Atom           X                Y                Z
 ----------------------------------------------------------------
    1      C       0.3463715812    -0.6753395233    -0.1058905100
    2      C      -0.9738520835    -0.1965302806    -0.0327179424
    3      C       1.4695603186     0.2848473513    -0.3702440013
    4      C      -1.2467298663     1.2716703208    -0.1237120283
    5      O       2.3866850074     0.2598808263     0.6136467221
    6      O       1.5633675123     0.9716076845    -1.3589790443
    7      O      -0.3892102947     1.9804762925     0.6410586412
    8      O      -2.1293927823     1.7753056634    -0.7751755287
    9      C      -0.4698855726     3.4114586782     0.5138523742
   10      C       3.5267737040     1.1194413693     0.4319246253
   11      C       0.6205006203    -2.0514125501    -0.0466123227
   12      C      -0.4607066833    -2.9202943856     0.1072950742
   13      C      -1.7640834546    -2.4488661380     0.1957591889
   14      C      -2.0555944280    -1.0862263215     0.1163213352
   15      H      -0.2393093149     3.7077741514    -0.5107251920
   16      H       4.0751791610     0.8418173761    -0.4697935948
   17      H      -2.5781934001    -3.1547466196     0.3213195286
   18      H      -1.4676747221     3.7635127611     0.7784568067
   19      H       0.2722012969     3.8051562470     1.2048880195
   20      H       4.1426127320     0.9735735476     1.3164261724
   21      H       3.2079474865     2.1596069657     0.3512807991
   22      H      -0.2770519450    -3.9886977865     0.1518840236
   23      C      -3.4921473737    -0.6278375137     0.2004989328
   24      C       2.0202883288    -2.6057336259    -0.1673912168
   25      H       2.5503872825    -2.1800711541    -1.0238959994
   26      H       1.9904074322    -3.6887418349    -0.2993738685
   27      H       2.6112582211    -2.3852527897     0.7247688103
   28      H      -3.8341309542    -0.2312352427    -0.7573367304
   29      H      -3.6249275960     0.1690366410     0.9360453396
   30      H      -4.1366121973    -1.4622497635     0.4837759982
 ----------------------------------------------------------------

    9    -766.8751031628      2.56E-09 Convergence criterion met
 Total energy in the final basis set = -766.8751031628
 Final energy is   -766.875103162769
 **  OPTIMIZATION CONVERGED  **

                    Orbital Energies (a.u.)
 --------------------------------------------------------------

 Alpha MOs
 -- Occupied --
-19.178 -19.173 -19.120 -19.116 -10.312 -10.308 -10.233 -10.228
-10.205 -10.204 -10.201 -10.200 -10.187 -10.185 -10.176 -10.168
 -1.121  -1.114  -1.032  -1.028  -0.885  -0.808  -0.792  -0.748
 -0.733  -0.726  -0.674  -0.648  -0.620  -0.576  -0.568  -0.532
 -0.519  -0.513  -0.489  -0.488  -0.480  -0.477  -0.469  -0.441
 -0.436  -0.428  -0.423  -0.414  -0.412  -0.406  -0.396  -0.387
 -0.380  -0.372  -0.360  -0.358  -0.357  -0.320  -0.312  -0.298
 -0.287  -0.265  -0.253

          Ground-State Mulliken Net Atomic Charges

     Atom                 Charge (a.u.)
  ----------------------------------------
      1 C                     0.447611
      2 C                     0.569946
      3 C                    -0.935947
      4 C                    -0.450666
      5 O                     0.043523
      6 O                    -0.122632
      7 O                    -0.010540
      8 O                    -0.196525
      9 C                    -0.224841
     10 C                    -0.214056
     11 C                     0.618951
     12 C                    -0.542868
     13 C                    -0.669083
     14 C                     0.512356
     15 H                     0.196214
     16 H                     0.184927
     17 H                     0.125545
     18 H                     0.174765
     19 H                     0.149851
     20 H                     0.158991
     21 H                     0.158804
     22 H                     0.130723
     23 C                    -0.562746
     24 C                    -0.578831
     25 H                     0.175936
     26 H                     0.152869
     27 H                     0.190536
     28 H                     0.203610
     29 H                     0.174232
     30 H                     0.139347
  ----------------------------------------
  Sum of atomic charges =     0.000000

                    Cartesian Multipole Moments
 -----------------------------------------------------------------
    Charge (ESU x 10^10)
                 0.0000
    Dipole Moment (Debye)
         X       1.8607      Y      -1.0489      Z       2.4798
       Tot       3.2729
    Quadrupole Moments (Debye-Ang)
        XX     -85.4139     XY       5.1541     YY     -81.7067
        XZ      -1.0414     YZ       5.8480     ZZ    -101.8831

 Total job time:  1108.35s(wall), 20974.99s(cpu)
        *  Thank you very much for using Q-Chem.  Have a nice day.  *
