 Q-Chem 5.0, Q-Chem, Inc., Pleasanton, CA (2017)
 Q-Chem 5.0.0 for Intel X86 EM64T Linux

User input:
--------------------------------------------------------------
$molecule
0  1
C    0.469  -2.369   0.246
C   -0.100  -2.666   1.497
C    0.820  -0.970  -0.128
C   -0.250  -1.617   2.525
O    1.710  -0.973  -1.154
O    0.353   0.027   0.395
O    0.994  -1.244   2.918
O   -1.315  -1.271   3.005
C    0.990  -0.231   3.923
C    2.104   0.331  -1.586
C    0.633  -3.406  -0.690
C    0.237  -4.708  -0.384
C   -0.335  -4.993   0.854
C   -0.510  -3.982   1.810
H    0.475   0.666   3.564
H    1.246   0.871  -1.997
H   -0.645  -6.015   1.070
H    0.524  -0.605   4.840
H    2.028   0.031   4.144
H    2.851   0.214  -2.376
H    2.557   0.890  -0.761
H    0.365  -5.501  -1.118
H    1.053  -3.209  -1.674
C   -1.128  -4.326   3.139
H   -2.093  -3.824   3.253
H   -0.462  -4.036   3.958
H   -1.304  -5.403   3.231
$end

$opt
CONSTRAINT
tors    2    1    3    5    168.6
tors    1    2    4    7    -62.3
ENDCONSTRAINT
$end

$rem
JOBTYPE                   OPT
METHOD                    B3LYP
DFT_D                     D3_OP
BASIS                     STO-3G
GEOM_OPT_MAX_CYCLES       500
SYMMETRY                  False
THRESH                    12
SCF_CONVERGENCE           8
MAX_SUB_FILE_NUM          128
MEM_STATIC                400
MEM_TOTAL                 4000
$end

--------------------------------------------------------------

   15    -717.9257267684      8.11E-09 Convergence criterion met
 Total energy in the final basis set = -717.9257267684
   14    -717.9515846814      5.88E-09 Convergence criterion met
 Total energy in the final basis set = -717.9515846814
   14    -717.9540910206      2.29E-09 Convergence criterion met
 Total energy in the final basis set = -717.9540910206
   12    -717.9543346426      9.40E-09 Convergence criterion met
 Total energy in the final basis set = -717.9543346426
   11    -717.9543693704      7.52E-09 Convergence criterion met
 Total energy in the final basis set = -717.9543693704
   11    -717.9543772512      2.78E-09 Convergence criterion met
 Total energy in the final basis set = -717.9543772512
   11    -717.9543865248      1.99E-09 Convergence criterion met
 Total energy in the final basis set = -717.9543865248
   10    -717.9544012187      8.62E-09 Convergence criterion met
 **  OPTIMIZATION CONVERGED  **
 Total job time:  38.61s(wall), 904.70s(cpu)
        *  Thank you very much for using Q-Chem.  Have a nice day.  *

User input: 2 of 3

nid02602 10.128.10
Q-Chem Developer Version! Running on 10.128.10.*
                  Welcome to Q-Chem
     A Quantum Leap Into The Future Of Chemistry

 Q-Chem 5.0, Q-Chem, Inc., Pleasanton, CA (2017)

 Yihan Shao,  Zhengting Gan,  E. Epifanovsky,  A. T. B. Gilbert,  M. Wormit,
 J. Kussmann,  A. W. Lange,  A. Behn,  Jia Deng,  Xintian Feng,  D. Ghosh,
 M. Goldey,  P. R. Horn,  L. D. Jacobson,  I. Kaliman,  T. Kus,  A. Landau,
 Jie Liu,  E. I. Proynov,  R. M. Richard,  R. P. Steele,  E. J. Sundstrom,
 H. L. Woodcock III,  P. M. Zimmerman,  D. Zuev,  B. Albrecht,  E. Alguire,
 S. A. Baeppler,  Z. Benda,  Y. A. Bernard,  E. J. Berquist,  K. B. Bravaya,
 D. Casanova,  Chun-Min Chang,  Yunqing Chen,  A. Chien,  K. D. Closser,
 M. P. Coons,  S. Dasgupta,  M. Diedenhofen,  Hainam Do,  R. G. Edgar,
 Po-Tung Fang,  S. Fatehi,  Qingguo Feng,  Qinghui Ge,  A. Ghysels,
 J. Gomes,  J. Gonthier,  A. Gunina,  M. W. D. Hanson-Heine,
 P. H. P. Harbach,  A. W. Hauser,  J. E. Herr,  E. G. Hohenstein,
 Z. C. Holden,  Kerwin Hui,  T.-C. Jagau,  Hyunjun Ji,  B. Kaduk,
 K. Khistyaev,  Jaehoon Kim,  P. Klunzinger,  K. Koh,  D. Kosenkov,
 T. Kowalczyk,  C. M. Krauter,  A. Kunitsa,  Ka Un Lao,  A. Laurent,
 K. V. Lawler,  Joonho Lee,  D. Lefrancois,  S. Lehtola,  D. S. Levine,
 Yi-Pei Li,  You-Sheng Lin,  Fenglai Liu,  E. Livshits,  A. Luenser,
 P. Manohar,  E. Mansoor,  S. F. Manzer,  Shan-Ping Mao,  Yuezhi Mao,
 N. Mardirossian,  A. V. Marenich,  L. A. Martinez-Martinez,  S. A. Maurer,
 N. J. Mayhall,  S. C. McKenzie,  J.-M. Mewes,  A. F. Morrison,  K. Nanda,
 T. S. Nguyen-Beck,  R. Olivares-Amaya,  J. A. Parkhill,  T. M. Perrine,
 F. Plasser,  S. Prager,  A. Prociuk,  D. R. Rehn,  F. Rob,  M. Schneider,
 N. Sergueev,  S. M. Sharada,  S. Sharma,  D. W. Small,  T. Stauch,
 T. Stein,  Yu-Chuan Su,  A. J. W. Thom,  T. Tsuchimochi,  L. Vogt,
 O. Vydrov,  M. A. Watson,  J. Wenzel,  M. de Wergifosse,  T. A. Wesolowski,
 A. White,  J. Witte,  A. Yamada,  Jun Yang,  K. Yao,  S. Yeganeh,
 S. R. Yost,  Zhi-Qiang You,  A. Zech,  Igor Ying Zhang,  Xing Zhang,
 Yan Zhao,  Ying Zhu,  B. R. Brooks,  G. K. L. Chan,  C. J. Cramer,
 M. S. Gordon,  W. J. Hehre,  A. Klamt,  M. W. Schmidt,  C. D. Sherrill,
 D. G. Truhlar,  A. Aspuru-Guzik,  R. Baer,  A. T. Bell,  N. A. Besley,
 Jeng-Da Chai,  A. Dreuw,  B. D. Dunietz,  T. R. Furlani,  Chao-Ping Hsu,
 Yousung Jung,  Jing Kong,  D. S. Lambrecht,  WanZhen Liang,  C. Ochsenfeld,
 V. A. Rassolov,  L. V. Slipchenko,  J. E. Subotnik,  T. Van Voorhis,
 J. M. Herbert,  A. I. Krylov,  P. M. W. Gill,  M. Head-Gordon

 Contributors to earlier versions of Q-Chem not listed above:
 R. D. Adamson,  B. Austin,  J. Baker,  G. J. O. Beran,  K. Brandhorst,
 S. T. Brown,  E. F. C. Byrd,  A. K. Chakraborty,  C.-L. Cheng,
 Siu Hung Chien,  D. M. Chipman,  D. L. Crittenden,  H. Dachsel,
 R. A. DiStasio Jr.,  R. J. Doerksen,  A. D. Dutoi,  L. Fusti-Molnar,
 W. A. Goddard III,  A. Golubeva-Zadorozhnaya,  S. R. Gwaltney,  G. Hawkins,
 A. Heyden,  S. Hirata,  G. Kedziora,  F. J. Keil,  C. Kelley,  Jihan Kim,
 R. A. King,  R. Z. Khaliullin,  P. P. Korambath,  W. Kurlancheek,
 A. M. Lee,  M. S. Lee,  S. V. Levchenko,  Ching Yeh Lin,  D. Liotard,
 R. C. Lochan,  I. Lotan,  P. E. Maslen,  N. Nair,  D. P. O'Neill,
 D. Neuhauser,  E. Neuscamman,  C. M. Oana,  R. Olson,  B. Peters,
 R. Peverati,  P. A. Pieniazek,  Y. M. Rhee,  J. Ritchie,  M. A. Rohrdanz,
 E. Rosta,  N. J. Russ,  H. F. Schaefer III,  N. E. Schultz,  N. Shenvi,
 A. C. Simmonett,  A. Sodt,  D. Stuck,  K. S. Thanthiriwatte,  V. Vanovschi,
 Tao Wang,  A. Warshel,  C. F. Williams,  Q. Wu,  X. Xu,  W. Zhang

 Please cite Q-Chem as follows:
 Y. Shao et al., Mol. Phys. 113, 184-215 (2015)
 DOI: 10.1080/00268976.2014.952696

 Q-Chem 5.0.0 for Intel X86 EM64T Linux

 Parts of Q-Chem use Armadillo 5.200.1 (Boston Tea Smuggler).
 http://arma.sourceforge.net/

 Q-Chem begins on Wed Oct  4 18:05:06 2017

Host: nid02602
0

     Scratch files written to /global/cscratch1/sd/junteng/scratch/17/opt_11n01++.save//
The previous job contains 0 fragments, simply inherited here

Checking the input file for inconsistencies... 	...done.

--------------------------------------------------------------
User input:
--------------------------------------------------------------

$molecule
   read
$end

$rem
JOBTYPE                   OPT
METHOD                    B3LYP
DFT_D                     D3_OP
BASIS                     6-311++G(d,p)
GEOM_OPT_MAX_CYCLES       500
GEOM_OPT_TOL_GRADIENT     1
GEOM_OPT_TOL_DISPLACEMENT 1
GEOM_OPT_TOL_ENERGY       1
SYMMETRY                  False
THRESH                    12
SCF_CONVERGENCE           8
MAX_SUB_FILE_NUM          128
MEM_STATIC                400
MEM_TOTAL                 4000
$end

--------------------------------------------------------------

    9    -727.5472586138      3.35E-09 Convergence criterion met
 Total energy in the final basis set = -727.5472586138
    8    -727.5472585248      5.62E-09 Convergence criterion met
 Total energy in the final basis set = -727.5472585248
    8    -727.5472585861      2.62E-09 Convergence criterion met
 Total energy in the final basis set = -727.5472585861
    7    -727.5472585795      3.24E-09 Convergence criterion met
 Total energy in the final basis set = -727.5472585795
    5    -727.5472585972      8.30E-09 Convergence criterion met
 Total energy in the final basis set = -727.5472585972
    5    -727.5472585937      8.39E-09 Convergence criterion met
 Total energy in the final basis set = -727.5472585937
 Final energy is   -727.547258593720
        *  Thank you very much for using Q-Chem.  Have a nice day.  *
 Q-Chem 5.0, Q-Chem, Inc., Pleasanton, CA (2017)
 Q-Chem 5.0.0 for Intel X86 EM64T Linux

             Standard Nuclear Orientation (Angstroms)
    I     Atom           X                Y                Z
 ----------------------------------------------------------------
    1      C       0.5090246512    -0.8416158247    -0.0053370982
    2      C      -0.7677988368    -0.2608962529    -0.0898533484
    3      C       1.7220653960     0.0148164697    -0.1426298155
    4      C      -0.9526557441     1.2196044020    -0.2861268007
    5      O       2.8599420987    -0.6688033819     0.1033279615
    6      O       1.7119159065     1.1851452984    -0.4494804771
    7      O      -0.7603279328     1.8865229637     0.8641272953
    8      O      -1.3094282688     1.7252521878    -1.3204926872
    9      C      -0.7968020520     3.3227860381     0.7656735454
   10      C       4.0836709863     0.0735910660    -0.0369359985
   11      C       0.6321014605    -2.2256554156     0.1673898604
   12      C      -0.5034172538    -3.0193636330     0.2557291254
   13      C      -1.7649734707    -2.4374770146     0.1667203784
   14      C      -1.9206986502    -1.0602136988    -0.0116141808
   15      H       0.0012140280     3.6623697530     0.1038884516
   16      H       4.1836016022     0.4552259875    -1.0541184532
   17      H      -2.6499863436    -3.0614207114     0.2357278598
   18      H      -1.7606765859     3.6580960713     0.3804109994
   19      H      -0.6380491326     3.6862699260     1.7784608572
   20      H       4.8775595924    -0.6354855286     0.1870328682
   21      H       4.1050261416     0.9089293014     0.6643683200
   22      H      -0.4084761821    -4.0906724029     0.3911122002
   23      H       1.6178968141    -2.6650047598     0.2266840978
   24      C      -3.3016484628    -0.4591667516    -0.1222567981
   25      H      -3.4781946035    -0.0706649293    -1.1285240252
   26      H      -3.4333384140     0.3746248228     0.5729934499
   27      H      -4.0665994874    -1.2056603823     0.0975534177
 ----------------------------------------------------------------

   15    -727.5472315165      5.86E-09 Convergence criterion met
 Total energy in the final basis set = -727.5472315165

                    Orbital Energies (a.u.)
 --------------------------------------------------------------

 Alpha MOs
 -- Occupied --
-19.178 -19.168 -19.120 -19.112 -10.312 -10.306 -10.233 -10.222
-10.207 -10.207 -10.204 -10.192 -10.192 -10.191 -10.175  -1.120
 -1.110  -1.031  -1.024  -0.885  -0.801  -0.790  -0.747  -0.726
 -0.700  -0.653  -0.624  -0.580  -0.571  -0.543  -0.519  -0.501
 -0.495  -0.490  -0.479  -0.477  -0.462  -0.444  -0.434  -0.429
 -0.423  -0.416  -0.403  -0.393  -0.381  -0.371  -0.369  -0.366
 -0.357  -0.321  -0.307  -0.293  -0.290  -0.271  -0.261

          Ground-State Mulliken Net Atomic Charges

     Atom                 Charge (a.u.)
  ----------------------------------------
      1 C                     0.099060
      2 C                     0.767771
      3 C                    -0.051958
      4 C                    -0.936078
      5 O                    -0.104614
      6 O                    -0.225632
      7 O                     0.081187
      8 O                    -0.134350
      9 C                    -0.216384
     10 C                    -0.213890
     11 C                    -0.362011
     12 C                    -0.073471
     13 C                    -0.632778
     14 C                     0.465833
     15 H                     0.191592
     16 H                     0.187009
     17 H                     0.118445
     18 H                     0.161607
     19 H                     0.150055
     20 H                     0.153941
     21 H                     0.178512
     22 H                     0.183376
     23 H                     0.185269
     24 C                    -0.500779
     25 H                     0.193504
     26 H                     0.172515
     27 H                     0.162268
  ----------------------------------------
  Sum of atomic charges =     0.000000

                    Cartesian Multipole Moments
 -----------------------------------------------------------------
    Charge (ESU x 10^10)
                 0.0000
    Dipole Moment (Debye)
         X       0.7479      Y      -1.7065      Z       2.0214
       Tot       2.7491
    Quadrupole Moments (Debye-Ang)
        XX     -72.3532     XY       1.4279     YY     -79.2237
        XZ      -2.2495     YZ       5.3993     ZZ     -94.0236

 Frequency:        18.25                  63.61                  77.75
 Force Cnst:      0.0009                 0.0085                 0.0108
 Red. Mass:       4.8013                 3.5547                 3.0455
 IR Intens:        1.020                  1.149                  2.609
 Frequency:        94.75                 110.93                 121.68
 Force Cnst:      0.0102                 0.0114                 0.0128
 Red. Mass:       1.9343                 1.5742                 1.4695
 IR Intens:        1.188                  2.547                  0.021
 Frequency:       136.36                 142.55                 159.28
 Force Cnst:      0.0226                 0.0148                 0.0546
 Red. Mass:       2.0662                 1.2370                 3.6541
 IR Intens:        0.983                  1.040                  1.657
 Frequency:       183.51                 217.06                 238.60
 Force Cnst:      0.0908                 0.0948                 0.1706
 Red. Mass:       4.5765                 3.4134                 5.0853
 IR Intens:        0.037                  3.289                  3.970
 Frequency:       280.44                 298.63                 316.13
 Force Cnst:      0.2240                 0.2253                 0.3288
 Red. Mass:       4.8338                 4.2884                 5.5838
 IR Intens:        3.239                 10.370                  5.788
 Frequency:       354.47                 383.85                 431.84
 Force Cnst:      0.3115                 0.4791                 0.5085
 Red. Mass:       4.2083                 5.5191                 4.6281
 IR Intens:       16.002                  8.198                  1.228
 Frequency:       487.08                 506.21                 565.57
 Force Cnst:      0.6071                 0.6776                 0.8550
 Red. Mass:       4.3433                 4.4882                 4.5369
 IR Intens:        3.692                  2.773                  0.547
 Frequency:       590.69                 710.39                 733.79
 Force Cnst:      1.0064                 1.9202                 2.0549
 Red. Mass:       4.8958                 6.4579                 6.4774
 IR Intens:        5.596                  8.058                  3.506
 Frequency:       760.56                 781.43                 798.37
 Force Cnst:      1.2649                 0.7413                 2.0729
 Red. Mass:       3.7114                 2.0604                 5.5197
 IR Intens:       46.918                 41.270                  5.875
 Frequency:       829.56                 840.80                 895.06
 Force Cnst:      1.2805                 2.1193                 2.3002
 Red. Mass:       3.1581                 5.0882                 4.8730
 IR Intens:        0.877                  4.382                 12.533
 Frequency:       937.57                 977.78                 998.48
 Force Cnst:      0.7094                 3.5149                 0.7915
 Red. Mass:       1.3697                 6.2401                 1.3474
 IR Intens:        0.089                  9.500                  0.205
 Frequency:      1004.08                1043.92                1062.99
 Force Cnst:      1.4749                 1.7840                 1.0262
 Red. Mass:       2.4831                 2.7786                 1.5415
 IR Intens:        6.898                 22.021                  2.134
 Frequency:      1095.79                1138.45                1169.70
 Force Cnst:      2.2760                 1.7799                 1.0389
 Red. Mass:       3.2171                 2.3309                 1.2887
 IR Intens:       93.488                 85.718                  0.909
 Frequency:      1172.89                1173.42                1197.96
 Force Cnst:      1.0384                 1.9081                 1.1078
 Red. Mass:       1.2811                 2.3520                 1.3102
 IR Intens:        1.149                125.694                  1.824
 Frequency:      1210.71                1216.79                1268.51
 Force Cnst:      1.3672                 1.7197                 1.8362
 Red. Mass:       1.5831                 1.9714                 1.9368
 IR Intens:       29.763                130.336                 61.276
 Frequency:      1286.60                1295.08                1326.53
 Force Cnst:      5.8687                 3.5895                 7.7093
 Red. Mass:       6.0173                 3.6324                 7.4359
 IR Intens:      296.995                349.283                 18.045
 Frequency:      1418.23                1460.09                1468.96
 Force Cnst:      1.4629                 1.8717                 1.5491
 Red. Mass:       1.2344                 1.4901                 1.2184
 IR Intens:        4.202                 10.148                 10.119
 Frequency:      1474.50                1481.79                1482.26
 Force Cnst:      1.8920                 1.3636                 1.3531
 Red. Mass:       1.4770                 1.0540                 1.0453
 IR Intens:       56.881                  8.810                 11.250
 Frequency:      1488.63                1489.19                1495.21
 Force Cnst:      2.2698                 1.7260                 1.3804
 Red. Mass:       1.7385                 1.3209                 1.0480
 IR Intens:        6.642                  6.910                  7.254
 Frequency:      1497.91                1507.56                1616.16
 Force Cnst:      1.3927                 1.7541                10.3475
 Red. Mass:       1.0535                 1.3099                 6.7238
 IR Intens:       10.591                  3.185                 10.122
 Frequency:      1629.98                1766.56                1787.59
 Force Cnst:      9.0448                21.5786                22.3247
 Red. Mass:       5.7781                11.7358                11.8576
 IR Intens:        9.928                250.042                272.609
 Frequency:      3035.17                3050.15                3050.39
 Force Cnst:      5.6246                 5.6430                 5.6432
 Red. Mass:       1.0363                 1.0295                 1.0294
 IR Intens:       18.044                 30.603                 42.945
 Frequency:      3090.59                3111.35                3123.22
 Force Cnst:      6.1912                 6.2875                 6.3622
 Red. Mass:       1.1001                 1.1024                 1.1070
 IR Intens:        8.472                 15.317                 17.425
 Frequency:      3126.16                3156.26                3156.81
 Force Cnst:      6.3755                 6.4929                 6.4960
 Red. Mass:       1.1072                 1.1062                 1.1064
 IR Intens:       13.564                 14.206                 13.938
 Frequency:      3164.95                3184.56                3220.94
 Force Cnst:      6.4212                 6.5336                 6.6799
 Red. Mass:       1.0880                 1.0935                 1.0928
 IR Intens:        7.139                 15.389                  2.049

 STANDARD THERMODYNAMIC QUANTITIES AT   298.15 K  AND     1.00 ATM

   This Molecule has  0 Imaginary Frequencies
   Zero point vibrational energy:      133.296 kcal/mol

   Atom    1 Element C  Has Mass   12.00000
   Atom    2 Element C  Has Mass   12.00000
   Atom    3 Element C  Has Mass   12.00000
   Atom    4 Element C  Has Mass   12.00000
   Atom    5 Element O  Has Mass   15.99491
   Atom    6 Element O  Has Mass   15.99491
   Atom    7 Element O  Has Mass   15.99491
   Atom    8 Element O  Has Mass   15.99491
   Atom    9 Element C  Has Mass   12.00000
   Atom   10 Element C  Has Mass   12.00000
   Atom   11 Element C  Has Mass   12.00000
   Atom   12 Element C  Has Mass   12.00000
   Atom   13 Element C  Has Mass   12.00000
   Atom   14 Element C  Has Mass   12.00000
   Atom   15 Element H  Has Mass    1.00783
   Atom   16 Element H  Has Mass    1.00783
   Atom   17 Element H  Has Mass    1.00783
   Atom   18 Element H  Has Mass    1.00783
   Atom   19 Element H  Has Mass    1.00783
   Atom   20 Element H  Has Mass    1.00783
   Atom   21 Element H  Has Mass    1.00783
   Atom   22 Element H  Has Mass    1.00783
   Atom   23 Element H  Has Mass    1.00783
   Atom   24 Element C  Has Mass   12.00000
   Atom   25 Element H  Has Mass    1.00783
   Atom   26 Element H  Has Mass    1.00783
   Atom   27 Element H  Has Mass    1.00783
   Molecular Mass:   208.073600 amu
   Principal axes and moments of inertia in amu*Bohr^2:
                             1           2           3
    Eigenvalues --     2454.22417  3113.45281  5139.20587
          X               0.99986     0.01650    -0.00187
          Y              -0.01648     0.99982     0.00977
          Z               0.00203    -0.00973     0.99995
   Rotational Symmetry Number is   1
   The Molecule is an Asymmetric Top
   Translational Enthalpy:        0.889 kcal/mol
   Rotational Enthalpy:           0.889 kcal/mol
   Vibrational Enthalpy:        141.066 kcal/mol
   gas constant (RT):             0.592 kcal/mol
   Translational Entropy:        41.902  cal/mol.K
   Rotational Entropy:           32.040  cal/mol.K
   Vibrational Entropy:          51.833  cal/mol.K

   Total Enthalpy:              143.436 kcal/mol
   Total Entropy:               125.775  cal/mol.K

 Total job time:  5836.22s(wall), 31232.22s(cpu)
        *  Thank you very much for using Q-Chem.  Have a nice day.  *
