 Q-Chem 5.0, Q-Chem, Inc., Pleasanton, CA (2017)
 Q-Chem 5.0.0 for Intel X86 EM64T Linux

User input:
--------------------------------------------------------------
$molecule
0  1
C    0.469  -2.369   0.246
C   -0.100  -2.666   1.497
C    0.820  -0.970  -0.128
C   -0.250  -1.617   2.525
O    1.710  -0.973  -1.154
O    0.353   0.027   0.395
O    0.994  -1.244   2.918
O   -1.315  -1.271   3.005
C    0.990  -0.231   3.923
C    2.104   0.331  -1.586
C    0.633  -3.406  -0.690
C    0.237  -4.708  -0.384
C   -0.335  -4.993   0.854
C   -0.510  -3.982   1.810
H    0.475   0.666   3.564
H    1.246   0.871  -1.997
H   -0.645  -6.015   1.070
H    0.524  -0.605   4.840
H    2.028   0.031   4.144
H    2.851   0.214  -2.376
H    2.557   0.890  -0.761
H    0.365  -5.501  -1.118
H    1.053  -3.209  -1.674
C   -1.128  -4.326   3.139
H   -2.093  -3.824   3.253
H   -0.462  -4.036   3.958
H   -1.304  -5.403   3.231
$end

$opt
CONSTRAINT
tors    2    1    3    5    163.6
tors    1    2    4    7    -72.3
ENDCONSTRAINT
$end

$rem
JOBTYPE                   OPT
METHOD                    B3LYP
DFT_D                     D3_OP
BASIS                     STO-3G
GEOM_OPT_MAX_CYCLES       500
SYMMETRY                  False
THRESH                    12
SCF_CONVERGENCE           8
MAX_SUB_FILE_NUM          128
MEM_STATIC                400
MEM_TOTAL                 4000
$end

--------------------------------------------------------------

   15    -717.9257267684      8.11E-09 Convergence criterion met
 Total energy in the final basis set = -717.9257267684
   14    -717.9516329225      5.75E-09 Convergence criterion met
 Total energy in the final basis set = -717.9516329225
   14    -717.9543595083      1.49E-09 Convergence criterion met
 Total energy in the final basis set = -717.9543595083
   12    -717.9546211237      6.19E-09 Convergence criterion met
 Total energy in the final basis set = -717.9546211237
   11    -717.9546564241      6.42E-09 Convergence criterion met
 Total energy in the final basis set = -717.9546564241
   11    -717.9546805831      4.37E-09 Convergence criterion met
 Total energy in the final basis set = -717.9546805831
   11    -717.9546916410      2.41E-09 Convergence criterion met
 Total energy in the final basis set = -717.9546916410
   10    -717.9547034922      9.26E-09 Convergence criterion met
 **  OPTIMIZATION CONVERGED  **
 Total job time:  35.11s(wall), 824.09s(cpu)
        *  Thank you very much for using Q-Chem.  Have a nice day.  *

User input: 2 of 3

nid01146 10.128.4
Q-Chem Developer Version! Running on 10.128.4.*
                  Welcome to Q-Chem
     A Quantum Leap Into The Future Of Chemistry

 Q-Chem 5.0, Q-Chem, Inc., Pleasanton, CA (2017)

 Yihan Shao,  Zhengting Gan,  E. Epifanovsky,  A. T. B. Gilbert,  M. Wormit,
 J. Kussmann,  A. W. Lange,  A. Behn,  Jia Deng,  Xintian Feng,  D. Ghosh,
 M. Goldey,  P. R. Horn,  L. D. Jacobson,  I. Kaliman,  T. Kus,  A. Landau,
 Jie Liu,  E. I. Proynov,  R. M. Richard,  R. P. Steele,  E. J. Sundstrom,
 H. L. Woodcock III,  P. M. Zimmerman,  D. Zuev,  B. Albrecht,  E. Alguire,
 S. A. Baeppler,  Z. Benda,  Y. A. Bernard,  E. J. Berquist,  K. B. Bravaya,
 D. Casanova,  Chun-Min Chang,  Yunqing Chen,  A. Chien,  K. D. Closser,
 M. P. Coons,  S. Dasgupta,  M. Diedenhofen,  Hainam Do,  R. G. Edgar,
 Po-Tung Fang,  S. Fatehi,  Qingguo Feng,  Qinghui Ge,  A. Ghysels,
 J. Gomes,  J. Gonthier,  A. Gunina,  M. W. D. Hanson-Heine,
 P. H. P. Harbach,  A. W. Hauser,  J. E. Herr,  E. G. Hohenstein,
 Z. C. Holden,  Kerwin Hui,  T.-C. Jagau,  Hyunjun Ji,  B. Kaduk,
 K. Khistyaev,  Jaehoon Kim,  P. Klunzinger,  K. Koh,  D. Kosenkov,
 T. Kowalczyk,  C. M. Krauter,  A. Kunitsa,  Ka Un Lao,  A. Laurent,
 K. V. Lawler,  Joonho Lee,  D. Lefrancois,  S. Lehtola,  D. S. Levine,
 Yi-Pei Li,  You-Sheng Lin,  Fenglai Liu,  E. Livshits,  A. Luenser,
 P. Manohar,  E. Mansoor,  S. F. Manzer,  Shan-Ping Mao,  Yuezhi Mao,
 N. Mardirossian,  A. V. Marenich,  L. A. Martinez-Martinez,  S. A. Maurer,
 N. J. Mayhall,  S. C. McKenzie,  J.-M. Mewes,  A. F. Morrison,  K. Nanda,
 T. S. Nguyen-Beck,  R. Olivares-Amaya,  J. A. Parkhill,  T. M. Perrine,
 F. Plasser,  S. Prager,  A. Prociuk,  D. R. Rehn,  F. Rob,  M. Schneider,
 N. Sergueev,  S. M. Sharada,  S. Sharma,  D. W. Small,  T. Stauch,
 T. Stein,  Yu-Chuan Su,  A. J. W. Thom,  T. Tsuchimochi,  L. Vogt,
 O. Vydrov,  M. A. Watson,  J. Wenzel,  M. de Wergifosse,  T. A. Wesolowski,
 A. White,  J. Witte,  A. Yamada,  Jun Yang,  K. Yao,  S. Yeganeh,
 S. R. Yost,  Zhi-Qiang You,  A. Zech,  Igor Ying Zhang,  Xing Zhang,
 Yan Zhao,  Ying Zhu,  B. R. Brooks,  G. K. L. Chan,  C. J. Cramer,
 M. S. Gordon,  W. J. Hehre,  A. Klamt,  M. W. Schmidt,  C. D. Sherrill,
 D. G. Truhlar,  A. Aspuru-Guzik,  R. Baer,  A. T. Bell,  N. A. Besley,
 Jeng-Da Chai,  A. Dreuw,  B. D. Dunietz,  T. R. Furlani,  Chao-Ping Hsu,
 Yousung Jung,  Jing Kong,  D. S. Lambrecht,  WanZhen Liang,  C. Ochsenfeld,
 V. A. Rassolov,  L. V. Slipchenko,  J. E. Subotnik,  T. Van Voorhis,
 J. M. Herbert,  A. I. Krylov,  P. M. W. Gill,  M. Head-Gordon

 Contributors to earlier versions of Q-Chem not listed above:
 R. D. Adamson,  B. Austin,  J. Baker,  G. J. O. Beran,  K. Brandhorst,
 S. T. Brown,  E. F. C. Byrd,  A. K. Chakraborty,  C.-L. Cheng,
 Siu Hung Chien,  D. M. Chipman,  D. L. Crittenden,  H. Dachsel,
 R. A. DiStasio Jr.,  R. J. Doerksen,  A. D. Dutoi,  L. Fusti-Molnar,
 W. A. Goddard III,  A. Golubeva-Zadorozhnaya,  S. R. Gwaltney,  G. Hawkins,
 A. Heyden,  S. Hirata,  G. Kedziora,  F. J. Keil,  C. Kelley,  Jihan Kim,
 R. A. King,  R. Z. Khaliullin,  P. P. Korambath,  W. Kurlancheek,
 A. M. Lee,  M. S. Lee,  S. V. Levchenko,  Ching Yeh Lin,  D. Liotard,
 R. C. Lochan,  I. Lotan,  P. E. Maslen,  N. Nair,  D. P. O'Neill,
 D. Neuhauser,  E. Neuscamman,  C. M. Oana,  R. Olson,  B. Peters,
 R. Peverati,  P. A. Pieniazek,  Y. M. Rhee,  J. Ritchie,  M. A. Rohrdanz,
 E. Rosta,  N. J. Russ,  H. F. Schaefer III,  N. E. Schultz,  N. Shenvi,
 A. C. Simmonett,  A. Sodt,  D. Stuck,  K. S. Thanthiriwatte,  V. Vanovschi,
 Tao Wang,  A. Warshel,  C. F. Williams,  Q. Wu,  X. Xu,  W. Zhang

 Please cite Q-Chem as follows:
 Y. Shao et al., Mol. Phys. 113, 184-215 (2015)
 DOI: 10.1080/00268976.2014.952696

 Q-Chem 5.0.0 for Intel X86 EM64T Linux

 Parts of Q-Chem use Armadillo 5.200.1 (Boston Tea Smuggler).
 http://arma.sourceforge.net/

 Q-Chem begins on Wed Oct  4 18:05:02 2017

Host: nid01146
0

     Scratch files written to /global/cscratch1/sd/junteng/scratch/17/opt_11n01o-.save//
The previous job contains 0 fragments, simply inherited here

Checking the input file for inconsistencies... 	...done.

--------------------------------------------------------------
User input:
--------------------------------------------------------------

$molecule
   read
$end

$rem
JOBTYPE                   OPT
METHOD                    B3LYP
DFT_D                     D3_OP
BASIS                     6-311++G(d,p)
GEOM_OPT_MAX_CYCLES       500
GEOM_OPT_TOL_GRADIENT     1
GEOM_OPT_TOL_DISPLACEMENT 1
GEOM_OPT_TOL_ENERGY       1
SYMMETRY                  False
THRESH                    12
SCF_CONVERGENCE           8
MAX_SUB_FILE_NUM          128
MEM_STATIC                400
MEM_TOTAL                 4000
$end

--------------------------------------------------------------

    9    -727.5472512841      5.15E-09 Convergence criterion met
 Total energy in the final basis set = -727.5472512841
    9    -727.5472511617      4.13E-09 Convergence criterion met
 Total energy in the final basis set = -727.5472511617
    8    -727.5472511066      7.54E-09 Convergence criterion met
 Total energy in the final basis set = -727.5472511066
    7    -727.5472511022      6.02E-09 Convergence criterion met
 Total energy in the final basis set = -727.5472511022
    6    -727.5472511385      6.50E-09 Convergence criterion met
 Total energy in the final basis set = -727.5472511385
    4    -727.5472511452      9.43E-09 Convergence criterion met
 Total energy in the final basis set = -727.5472511452
 Final energy is   -727.547251145209
        *  Thank you very much for using Q-Chem.  Have a nice day.  *
 Q-Chem 5.0, Q-Chem, Inc., Pleasanton, CA (2017)
 Q-Chem 5.0.0 for Intel X86 EM64T Linux

             Standard Nuclear Orientation (Angstroms)
    I     Atom           X                Y                Z
 ----------------------------------------------------------------
    1      C       0.5031135883    -0.8445497977    -0.0074034840
    2      C      -0.7707313271    -0.2569168366    -0.0896716521
    3      C       1.7206256072     0.0051592988    -0.1473610268
    4      C      -0.9476473418     1.2247641418    -0.2839868829
    5      O       2.8543200172    -0.6816386319     0.1088254249
    6      O       1.7169952456     1.1728156298    -0.4643181062
    7      O      -0.7396734885     1.8903729275     0.8643372368
    8      O      -1.3105564446     1.7330313742    -1.3149396553
    9      C      -0.7656681885     3.3268757977     0.7656810564
   10      C       4.0821124927     0.0536437786    -0.0334623628
   11      C       0.6190970120    -2.2292889622     0.1643853303
   12      C      -0.5205190581    -3.0170304029     0.2537834741
   13      C      -1.7790679562    -2.4283513515     0.1671476803
   14      C      -1.9277452148    -1.0501151455    -0.0099189278
   15      H       0.0282818153     3.6597884796     0.0956752851
   16      H       4.1863046189     0.4281376903    -1.0528394660
   17      H      -2.6673395946    -3.0475482167     0.2369946672
   18      H      -1.7306531511     3.6698135556     0.3900397877
   19      H      -0.5937811381     3.6894114143     1.7766602194
   20      H       4.8719164573    -0.6578705459     0.1971193392
   21      H       4.1060427437     0.8934291833     0.6624513774
   22      H      -0.4310415192    -4.0889320229     0.3882004682
   23      H       1.6026600560    -2.6738800567     0.2217744193
   24      C      -3.3057620836    -0.4417506674    -0.1171352663
   25      H      -3.4818266633    -0.0501362744    -1.1222446291
   26      H      -3.4319921386     0.3912850771     0.5800524359
   27      H      -4.0740993049    -1.1847877990     0.1025292644
 ----------------------------------------------------------------

   15    -727.5472286021      5.84E-09 Convergence criterion met
 Total energy in the final basis set = -727.5472286021

                    Orbital Energies (a.u.)
 --------------------------------------------------------------

 Alpha MOs
 -- Occupied --
-19.178 -19.168 -19.120 -19.112 -10.312 -10.306 -10.233 -10.222
-10.207 -10.207 -10.204 -10.192 -10.192 -10.191 -10.175  -1.120
 -1.110  -1.031  -1.024  -0.885  -0.801  -0.790  -0.747  -0.726
 -0.700  -0.653  -0.624  -0.580  -0.571  -0.543  -0.519  -0.501
 -0.495  -0.490  -0.479  -0.477  -0.462  -0.444  -0.434  -0.429
 -0.423  -0.416  -0.403  -0.393  -0.381  -0.371  -0.369  -0.366
 -0.357  -0.321  -0.307  -0.293  -0.290  -0.271  -0.261

          Ground-State Mulliken Net Atomic Charges

     Atom                 Charge (a.u.)
  ----------------------------------------
      1 C                     0.101342
      2 C                     0.764193
      3 C                    -0.052447
      4 C                    -0.931655
      5 O                    -0.103685
      6 O                    -0.225960
      7 O                     0.080251
      8 O                    -0.135567
      9 C                    -0.217140
     10 C                    -0.213992
     11 C                    -0.362083
     12 C                    -0.073675
     13 C                    -0.629730
     14 C                     0.463813
     15 H                     0.191704
     16 H                     0.187135
     17 H                     0.118522
     18 H                     0.161544
     19 H                     0.150150
     20 H                     0.154046
     21 H                     0.178290
     22 H                     0.183355
     23 H                     0.184891
     24 C                    -0.501776
     25 H                     0.193683
     26 H                     0.172824
     27 H                     0.161968
  ----------------------------------------
  Sum of atomic charges =     0.000000

                    Cartesian Multipole Moments
 -----------------------------------------------------------------
    Charge (ESU x 10^10)
                 0.0000
    Dipole Moment (Debye)
         X       0.7558      Y      -1.7090      Z       2.0296
       Tot       2.7588
    Quadrupole Moments (Debye-Ang)
        XX     -72.3909     XY       1.4572     YY     -79.2169
        XZ      -2.2316     YZ       5.4488     ZZ     -94.0277

 Frequency:        17.57                  63.55                  78.01
 Force Cnst:      0.0009                 0.0085                 0.0109
 Red. Mass:       4.8300                 3.5568                 3.0308
 IR Intens:        0.996                  1.142                  2.641
 Frequency:        93.83                 111.02                 120.73
 Force Cnst:      0.0097                 0.0115                 0.0130
 Red. Mass:       1.8677                 1.5879                 1.5117
 IR Intens:        1.199                  2.497                  0.040
 Frequency:       136.46                 142.08                 158.99
 Force Cnst:      0.0218                 0.0149                 0.0548
 Red. Mass:       1.9879                 1.2493                 3.6782
 IR Intens:        0.966                  1.069                  1.678
 Frequency:       183.79                 217.08                 238.66
 Force Cnst:      0.0915                 0.0954                 0.1706
 Red. Mass:       4.5970                 3.4362                 5.0840
 IR Intens:        0.038                  3.289                  3.997
 Frequency:       280.68                 298.40                 316.04
 Force Cnst:      0.2234                 0.2264                 0.3277
 Red. Mass:       4.8120                 4.3158                 5.5678
 IR Intens:        3.308                 10.248                  5.820
 Frequency:       354.41                 383.60                 431.76
 Force Cnst:      0.3115                 0.4794                 0.5088
 Red. Mass:       4.2084                 5.5301                 4.6326
 IR Intens:       15.974                  8.086                  1.223
 Frequency:       486.60                 506.99                 565.29
 Force Cnst:      0.6026                 0.6822                 0.8526
 Red. Mass:       4.3198                 4.5049                 4.5285
 IR Intens:        3.790                  2.726                  0.542
 Frequency:       590.90                 710.34                 733.42
 Force Cnst:      1.0107                 1.9184                 2.0539
 Red. Mass:       4.9131                 6.4531                 6.4806
 IR Intens:        5.624                  8.143                  3.447
 Frequency:       760.55                 781.71                 798.35
 Force Cnst:      1.2494                 0.7470                 2.0688
 Red. Mass:       3.6661                 2.0749                 5.5091
 IR Intens:       47.225                 40.805                  5.910
 Frequency:       829.54                 840.78                 895.00
 Force Cnst:      1.2807                 2.1206                 2.2989
 Red. Mass:       3.1588                 5.0914                 4.8710
 IR Intens:        0.920                  4.389                 12.579
 Frequency:       937.54                 977.71                 998.45
 Force Cnst:      0.7094                 3.5081                 0.7918
 Red. Mass:       1.3698                 6.2288                 1.3481
 IR Intens:        0.096                  9.477                  0.201
 Frequency:      1003.92                1043.82                1062.90
 Force Cnst:      1.4703                 1.7888                 1.0263
 Red. Mass:       2.4761                 2.7866                 1.5418
 IR Intens:        6.854                 22.134                  2.117
 Frequency:      1095.78                1138.48                1169.61
 Force Cnst:      2.2877                 1.7766                 1.0387
 Red. Mass:       3.2337                 2.3264                 1.2887
 IR Intens:       93.655                 84.847                  0.832
 Frequency:      1172.83                1173.44                1198.02
 Force Cnst:      1.0382                 1.9138                 1.1087
 Red. Mass:       1.2810                 2.3589                 1.3111
 IR Intens:        1.137                126.537                  1.894
 Frequency:      1210.75                1216.81                1268.52
 Force Cnst:      1.3670                 1.7160                 1.8437
 Red. Mass:       1.5827                 1.9670                 1.9447
 IR Intens:       29.158                130.559                 64.333
 Frequency:      1286.52                1295.15                1326.51
 Force Cnst:      5.8401                 3.5681                 7.7074
 Red. Mass:       5.9888                 3.6103                 7.4342
 IR Intens:      293.943                349.138                 17.400
 Frequency:      1418.17                1459.95                1468.86
 Force Cnst:      1.4631                 1.8646                 1.5537
 Red. Mass:       1.2347                 1.4848                 1.2222
 IR Intens:        4.245                 10.161                  9.740
 Frequency:      1474.35                1481.53                1482.35
 Force Cnst:      1.8810                 1.3624                 1.3528
 Red. Mass:       1.4687                 1.0535                 1.0449
 IR Intens:       57.138                  9.281                 10.720
 Frequency:      1488.56                1489.13                1495.24
 Force Cnst:      1.8285                 2.1274                 1.3803
 Red. Mass:       1.4006                 1.6283                 1.0479
 IR Intens:        8.597                  5.110                  7.348
 Frequency:      1497.79                1507.47                1616.18
 Force Cnst:      1.3925                 1.7537                10.3513
 Red. Mass:       1.0535                 1.3098                 6.7262
 IR Intens:       10.541                  3.219                 10.004
 Frequency:      1629.95                1766.41                1787.52
 Force Cnst:      9.0308                21.5744                22.3170
 Red. Mass:       5.7694                11.7356                11.8545
 IR Intens:        9.923                249.872                272.644
 Frequency:      3035.24                3050.18                3050.45
 Force Cnst:      5.6251                 5.6433                 5.6432
 Red. Mass:       1.0363                 1.0295                 1.0293
 IR Intens:       18.037                 31.118                 42.395
 Frequency:      3090.63                3111.55                3123.22
 Force Cnst:      6.1910                 6.2883                 6.3623
 Red. Mass:       1.1001                 1.1024                 1.1070
 IR Intens:        8.522                 15.312                 17.429
 Frequency:      3126.22                3156.30                3156.98
 Force Cnst:      6.3757                 6.4930                 6.4969
 Red. Mass:       1.1072                 1.1062                 1.1064
 IR Intens:       13.555                 14.201                 13.926
 Frequency:      3165.07                3184.61                3220.92
 Force Cnst:      6.4217                 6.5338                 6.6798
 Red. Mass:       1.0880                 1.0935                 1.0928
 IR Intens:        7.097                 15.395                  2.059

 STANDARD THERMODYNAMIC QUANTITIES AT   298.15 K  AND     1.00 ATM

   This Molecule has  0 Imaginary Frequencies
   Zero point vibrational energy:      133.290 kcal/mol

   Atom    1 Element C  Has Mass   12.00000
   Atom    2 Element C  Has Mass   12.00000
   Atom    3 Element C  Has Mass   12.00000
   Atom    4 Element C  Has Mass   12.00000
   Atom    5 Element O  Has Mass   15.99491
   Atom    6 Element O  Has Mass   15.99491
   Atom    7 Element O  Has Mass   15.99491
   Atom    8 Element O  Has Mass   15.99491
   Atom    9 Element C  Has Mass   12.00000
   Atom   10 Element C  Has Mass   12.00000
   Atom   11 Element C  Has Mass   12.00000
   Atom   12 Element C  Has Mass   12.00000
   Atom   13 Element C  Has Mass   12.00000
   Atom   14 Element C  Has Mass   12.00000
   Atom   15 Element H  Has Mass    1.00783
   Atom   16 Element H  Has Mass    1.00783
   Atom   17 Element H  Has Mass    1.00783
   Atom   18 Element H  Has Mass    1.00783
   Atom   19 Element H  Has Mass    1.00783
   Atom   20 Element H  Has Mass    1.00783
   Atom   21 Element H  Has Mass    1.00783
   Atom   22 Element H  Has Mass    1.00783
   Atom   23 Element H  Has Mass    1.00783
   Atom   24 Element C  Has Mass   12.00000
   Atom   25 Element H  Has Mass    1.00783
   Atom   26 Element H  Has Mass    1.00783
   Atom   27 Element H  Has Mass    1.00783
   Molecular Mass:   208.073600 amu
   Principal axes and moments of inertia in amu*Bohr^2:
                             1           2           3
    Eigenvalues --     2453.99654  3111.91178  5137.74324
          X               0.99986     0.01653    -0.00183
          Y              -0.01651     0.99982     0.00981
          Z               0.00199    -0.00977     0.99995
   Rotational Symmetry Number is   1
   The Molecule is an Asymmetric Top
   Translational Enthalpy:        0.889 kcal/mol
   Rotational Enthalpy:           0.889 kcal/mol
   Vibrational Enthalpy:        141.064 kcal/mol
   gas constant (RT):             0.592 kcal/mol
   Translational Entropy:        41.902  cal/mol.K
   Rotational Entropy:           32.039  cal/mol.K
   Vibrational Entropy:          51.943  cal/mol.K

   Total Enthalpy:              143.434 kcal/mol
   Total Entropy:               125.885  cal/mol.K

 Total job time:  5851.40s(wall), 31364.22s(cpu)
        *  Thank you very much for using Q-Chem.  Have a nice day.  *
