 Q-Chem 5.0, Q-Chem, Inc., Pleasanton, CA (2017)
 Q-Chem 5.0.0 for Intel X86 EM64T Linux

User input:
--------------------------------------------------------------
$molecule
0  1
C    0.304  -2.425   0.241
C   -0.187  -2.670   1.539
C    0.664  -1.037  -0.131
C   -0.223  -1.586   2.547
O    1.892  -1.027  -0.706
O   -0.050  -0.071   0.073
O    1.036  -1.102   2.698
O   -1.208  -1.281   3.197
C    1.131  -0.051   3.659
C    2.346   0.277  -1.069
C    0.337  -3.468  -0.713
C   -0.078  -4.750  -0.324
C   -0.556  -4.992   0.965
C   -0.619  -3.961   1.912
H    0.496   0.792   3.371
H    1.683   0.717  -1.820
H   -0.885  -5.997   1.223
H    0.862  -0.417   4.655
H    2.169   0.291   3.685
H    3.345   0.180  -1.503
H    2.413   0.921  -0.186
H   -0.050  -5.576  -1.034
C   -1.153  -4.262   3.286
C    0.800  -3.263  -2.130
H    0.377  -2.346  -2.553
H    0.472  -4.085  -2.776
H    1.893  -3.221  -2.170
H   -2.134  -3.796   3.422
H   -0.464  -3.904   4.057
H   -1.273  -5.340   3.441
$end

$opt
CONSTRAINT
tors    2    1    3    5    135.2
tors    1    2    4    7    -62.3
ENDCONSTRAINT
$end

$rem
JOBTYPE                   OPT
METHOD                    B3LYP
DFT_D                     D3_OP
BASIS                     STO-3G
GEOM_OPT_MAX_CYCLES       500
SYMMETRY                  False
THRESH                    12
SCF_CONVERGENCE           8
MAX_SUB_FILE_NUM          128
MEM_STATIC                400
MEM_TOTAL                 4000
$end

--------------------------------------------------------------

   15    -756.7774928998      6.43E-09 Convergence criterion met
 Total energy in the final basis set = -756.7774928998
   14    -756.8041989130      5.98E-09 Convergence criterion met
 Total energy in the final basis set = -756.8041989130
   14    -756.8073624127      3.37E-09 Convergence criterion met
 Total energy in the final basis set = -756.8073624127
   13    -756.8077354680      3.76E-09 Convergence criterion met
 Total energy in the final basis set = -756.8077354680
   11    -756.8077854517      4.99E-09 Convergence criterion met
 Total energy in the final basis set = -756.8077854517
   11    -756.8078107888      3.50E-09 Convergence criterion met
 Total energy in the final basis set = -756.8078107888
   11    -756.8078283541      1.76E-09 Convergence criterion met
 Total energy in the final basis set = -756.8078283541
   11    -756.8078543194      2.38E-09 Convergence criterion met
 **  OPTIMIZATION CONVERGED  **
 Total job time:  146.64s(wall), 3231.10s(cpu)
        *  Thank you very much for using Q-Chem.  Have a nice day.  *

User input: 2 of 3

nid03057 10.128.12
Q-Chem Developer Version! Running on 10.128.12.*
                  Welcome to Q-Chem
     A Quantum Leap Into The Future Of Chemistry

 Q-Chem 5.0, Q-Chem, Inc., Pleasanton, CA (2017)

 Yihan Shao,  Zhengting Gan,  E. Epifanovsky,  A. T. B. Gilbert,  M. Wormit,
 J. Kussmann,  A. W. Lange,  A. Behn,  Jia Deng,  Xintian Feng,  D. Ghosh,
 M. Goldey,  P. R. Horn,  L. D. Jacobson,  I. Kaliman,  T. Kus,  A. Landau,
 Jie Liu,  E. I. Proynov,  R. M. Richard,  R. P. Steele,  E. J. Sundstrom,
 H. L. Woodcock III,  P. M. Zimmerman,  D. Zuev,  B. Albrecht,  E. Alguire,
 S. A. Baeppler,  Z. Benda,  Y. A. Bernard,  E. J. Berquist,  K. B. Bravaya,
 D. Casanova,  Chun-Min Chang,  Yunqing Chen,  A. Chien,  K. D. Closser,
 M. P. Coons,  S. Dasgupta,  M. Diedenhofen,  Hainam Do,  R. G. Edgar,
 Po-Tung Fang,  S. Fatehi,  Qingguo Feng,  Qinghui Ge,  A. Ghysels,
 J. Gomes,  J. Gonthier,  A. Gunina,  M. W. D. Hanson-Heine,
 P. H. P. Harbach,  A. W. Hauser,  J. E. Herr,  E. G. Hohenstein,
 Z. C. Holden,  Kerwin Hui,  T.-C. Jagau,  Hyunjun Ji,  B. Kaduk,
 K. Khistyaev,  Jaehoon Kim,  P. Klunzinger,  K. Koh,  D. Kosenkov,
 T. Kowalczyk,  C. M. Krauter,  A. Kunitsa,  Ka Un Lao,  A. Laurent,
 K. V. Lawler,  Joonho Lee,  D. Lefrancois,  S. Lehtola,  D. S. Levine,
 Yi-Pei Li,  You-Sheng Lin,  Fenglai Liu,  E. Livshits,  A. Luenser,
 P. Manohar,  E. Mansoor,  S. F. Manzer,  Shan-Ping Mao,  Yuezhi Mao,
 N. Mardirossian,  A. V. Marenich,  L. A. Martinez-Martinez,  S. A. Maurer,
 N. J. Mayhall,  S. C. McKenzie,  J.-M. Mewes,  A. F. Morrison,  K. Nanda,
 T. S. Nguyen-Beck,  R. Olivares-Amaya,  J. A. Parkhill,  T. M. Perrine,
 F. Plasser,  S. Prager,  A. Prociuk,  D. R. Rehn,  F. Rob,  M. Schneider,
 N. Sergueev,  S. M. Sharada,  S. Sharma,  D. W. Small,  T. Stauch,
 T. Stein,  Yu-Chuan Su,  A. J. W. Thom,  T. Tsuchimochi,  L. Vogt,
 O. Vydrov,  M. A. Watson,  J. Wenzel,  M. de Wergifosse,  T. A. Wesolowski,
 A. White,  J. Witte,  A. Yamada,  Jun Yang,  K. Yao,  S. Yeganeh,
 S. R. Yost,  Zhi-Qiang You,  A. Zech,  Igor Ying Zhang,  Xing Zhang,
 Yan Zhao,  Ying Zhu,  B. R. Brooks,  G. K. L. Chan,  C. J. Cramer,
 M. S. Gordon,  W. J. Hehre,  A. Klamt,  M. W. Schmidt,  C. D. Sherrill,
 D. G. Truhlar,  A. Aspuru-Guzik,  R. Baer,  A. T. Bell,  N. A. Besley,
 Jeng-Da Chai,  A. Dreuw,  B. D. Dunietz,  T. R. Furlani,  Chao-Ping Hsu,
 Yousung Jung,  Jing Kong,  D. S. Lambrecht,  WanZhen Liang,  C. Ochsenfeld,
 V. A. Rassolov,  L. V. Slipchenko,  J. E. Subotnik,  T. Van Voorhis,
 J. M. Herbert,  A. I. Krylov,  P. M. W. Gill,  M. Head-Gordon

 Contributors to earlier versions of Q-Chem not listed above:
 R. D. Adamson,  B. Austin,  J. Baker,  G. J. O. Beran,  K. Brandhorst,
 S. T. Brown,  E. F. C. Byrd,  A. K. Chakraborty,  C.-L. Cheng,
 Siu Hung Chien,  D. M. Chipman,  D. L. Crittenden,  H. Dachsel,
 R. A. DiStasio Jr.,  R. J. Doerksen,  A. D. Dutoi,  L. Fusti-Molnar,
 W. A. Goddard III,  A. Golubeva-Zadorozhnaya,  S. R. Gwaltney,  G. Hawkins,
 A. Heyden,  S. Hirata,  G. Kedziora,  F. J. Keil,  C. Kelley,  Jihan Kim,
 R. A. King,  R. Z. Khaliullin,  P. P. Korambath,  W. Kurlancheek,
 A. M. Lee,  M. S. Lee,  S. V. Levchenko,  Ching Yeh Lin,  D. Liotard,
 R. C. Lochan,  I. Lotan,  P. E. Maslen,  N. Nair,  D. P. O'Neill,
 D. Neuhauser,  E. Neuscamman,  C. M. Oana,  R. Olson,  B. Peters,
 R. Peverati,  P. A. Pieniazek,  Y. M. Rhee,  J. Ritchie,  M. A. Rohrdanz,
 E. Rosta,  N. J. Russ,  H. F. Schaefer III,  N. E. Schultz,  N. Shenvi,
 A. C. Simmonett,  A. Sodt,  D. Stuck,  K. S. Thanthiriwatte,  V. Vanovschi,
 Tao Wang,  A. Warshel,  C. F. Williams,  Q. Wu,  X. Xu,  W. Zhang

 Please cite Q-Chem as follows:
 Y. Shao et al., Mol. Phys. 113, 184-215 (2015)
 DOI: 10.1080/00268976.2014.952696

 Q-Chem 5.0.0 for Intel X86 EM64T Linux

 Parts of Q-Chem use Armadillo 5.200.1 (Boston Tea Smuggler).
 http://arma.sourceforge.net/

 Q-Chem begins on Wed Oct  4 18:28:52 2017

Host: nid03057
0

     Scratch files written to /global/cscratch1/sd/junteng/scratch/18/opt_11n11o-.save//
The previous job contains 0 fragments, simply inherited here

Checking the input file for inconsistencies... 	...done.

--------------------------------------------------------------
User input:
--------------------------------------------------------------

$molecule
   read
$end

$rem
JOBTYPE                   OPT
METHOD                    B3LYP
DFT_D                     D3_OP
BASIS                     6-311++G(d,p)
GEOM_OPT_MAX_CYCLES       500
GEOM_OPT_TOL_GRADIENT     1
GEOM_OPT_TOL_DISPLACEMENT 1
GEOM_OPT_TOL_ENERGY       1
SYMMETRY                  False
THRESH                    12
SCF_CONVERGENCE           8
MAX_SUB_FILE_NUM          128
MEM_STATIC                400
MEM_TOTAL                 4000
$end

--------------------------------------------------------------

    7    -766.8750641259      5.25E-09 Convergence criterion met
 Total energy in the final basis set = -766.8750641259
    6    -766.8750641849      7.66E-09 Convergence criterion met
 Total energy in the final basis set = -766.8750641849
    6    -766.8750642098      5.93E-09 Convergence criterion met
 Total energy in the final basis set = -766.8750642098
    5    -766.8750642112      9.33E-09 Convergence criterion met
 Total energy in the final basis set = -766.8750642112
    5    -766.8750642192      7.29E-09 Convergence criterion met
 Total energy in the final basis set = -766.8750642192
    5    -766.8750642146      5.92E-09 Convergence criterion met
 Total energy in the final basis set = -766.8750642146
 Final energy is   -766.875064214625
        *  Thank you very much for using Q-Chem.  Have a nice day.  *
 Q-Chem 5.0, Q-Chem, Inc., Pleasanton, CA (2017)
 Q-Chem 5.0.0 for Intel X86 EM64T Linux

             Standard Nuclear Orientation (Angstroms)
    I     Atom           X                Y                Z
 ----------------------------------------------------------------
    1      C       0.1510983851    -0.7431393829    -0.0928514483
    2      C      -0.9826184776     0.0874886445    -0.0291220374
    3      C       1.4950194017    -0.1388329888    -0.3782327308
    4      C      -0.8336852233     1.5718360293    -0.1426829589
    5      O       2.3778658852    -0.3959413133     0.6037155180
    6      O       1.7664700007     0.4745904771    -1.3822695141
    7      O       0.1950971630     2.0231234363     0.6062025585
    8      O      -1.5450637705     2.2931463213    -0.7991850788
    9      C       0.5211371468     3.4160167571     0.4523153468
   10      C       3.7069087812     0.1192421865     0.4011868157
   11      C       0.0300995627    -2.1395285176    -0.0139153790
   12      C      -1.2505842567    -2.6698295470     0.1490392354
   13      C      -2.3699591501    -1.8513343007     0.2266103415
   14      C      -2.2690811484    -0.4624517992     0.1286090623
   15      H       0.8283506089     3.6145791896    -0.5757349302
   16      H       4.1536354748    -0.3169828931    -0.4936977165
   17      H      -3.3494358310    -2.2990934502     0.3572781874
   18      H      -0.3374659571     4.0403342652     0.7022530618
   19      H       1.3426905080     3.5982365891     1.1415392341
   20      H       4.2664572130    -0.1662833371     1.2890457211
   21      H       3.6793857283     1.2045481304     0.2950917685
   22      H      -1.3723883691    -3.7463903306     0.2083290228
   23      C      -3.5213242302     0.3785607558     0.2017886757
   24      C       1.2204032927    -3.0628629668    -0.1263022630
   25      H       1.8573677136    -2.7973186327    -0.9741234978
   26      H       0.8900454560    -4.0934547846    -0.2672019297
   27      H       1.8404221336    -3.0207689166     0.7726398741
   28      H      -3.7328896287     0.8515891073    -0.7589929364
   29      H      -3.4316518793     1.1835036901     0.9352543334
   30      H      -4.3739619015    -0.2428392190     0.4819559799
 ----------------------------------------------------------------

   15    -766.8749135674      8.85E-09 Convergence criterion met
 Total energy in the final basis set = -766.8749135674

                    Orbital Energies (a.u.)
 --------------------------------------------------------------

 Alpha MOs
 -- Occupied --
-19.178 -19.173 -19.120 -19.116 -10.312 -10.308 -10.233 -10.228
-10.205 -10.204 -10.201 -10.200 -10.187 -10.185 -10.176 -10.168
 -1.121  -1.114  -1.031  -1.028  -0.885  -0.808  -0.792  -0.748
 -0.733  -0.726  -0.674  -0.648  -0.620  -0.576  -0.568  -0.532
 -0.519  -0.513  -0.489  -0.488  -0.480  -0.477  -0.469  -0.441
 -0.436  -0.428  -0.423  -0.415  -0.412  -0.405  -0.396  -0.387
 -0.381  -0.372  -0.360  -0.358  -0.357  -0.320  -0.312  -0.298
 -0.287  -0.265  -0.253

          Ground-State Mulliken Net Atomic Charges

     Atom                 Charge (a.u.)
  ----------------------------------------
      1 C                     0.435102
      2 C                     0.564265
      3 C                    -0.939002
      4 C                    -0.439322
      5 O                     0.047133
      6 O                    -0.122452
      7 O                    -0.012739
      8 O                    -0.197511
      9 C                    -0.224359
     10 C                    -0.213303
     11 C                     0.619988
     12 C                    -0.542118
     13 C                    -0.671160
     14 C                     0.513132
     15 H                     0.195879
     16 H                     0.184268
     17 H                     0.124624
     18 H                     0.175328
     19 H                     0.149826
     20 H                     0.158987
     21 H                     0.158702
     22 H                     0.132298
     23 C                    -0.561422
     24 C                    -0.573849
     25 H                     0.176970
     26 H                     0.151883
     27 H                     0.191730
     28 H                     0.203416
     29 H                     0.174184
     30 H                     0.139524
  ----------------------------------------
  Sum of atomic charges =     0.000000

                    Cartesian Multipole Moments
 -----------------------------------------------------------------
    Charge (ESU x 10^10)
                 0.0000
    Dipole Moment (Debye)
         X       1.5172      Y      -1.4761      Z       2.4774
       Tot       3.2586
    Quadrupole Moments (Debye-Ang)
        XX     -82.3253     XY       5.4879     YY     -84.5906
        XZ       0.4719     YZ       5.5957     ZZ    -102.1009

 Frequency:        21.04                  52.29                  68.11
 Force Cnst:      0.0014                 0.0066                 0.0108
 Red. Mass:       5.3767                 4.0781                 3.9438
 IR Intens:        0.384                  0.091                  3.225
 Frequency:        79.71                 111.58                 116.75
 Force Cnst:      0.0112                 0.0109                 0.0179
 Red. Mass:       2.9849                 1.4909                 2.2301
 IR Intens:        3.428                  0.301                  0.657
 Frequency:       125.48                 131.09                 136.14
 Force Cnst:      0.0215                 0.0130                 0.0117
 Red. Mass:       2.3210                 1.2830                 1.0720
 IR Intens:        4.718                  0.748                  0.097
 Frequency:       143.68                 150.59                 217.60
 Force Cnst:      0.0200                 0.0204                 0.1442
 Red. Mass:       1.6470                 1.5304                 5.1687
 IR Intens:        0.273                  0.521                  0.239
 Frequency:       240.01                 248.93                 291.32
 Force Cnst:      0.2022                 0.1655                 0.1550
 Red. Mass:       5.9583                 4.5334                 3.0996
 IR Intens:        0.730                  3.765                  0.909
 Frequency:       303.72                 313.09                 322.88
 Force Cnst:      0.2577                 0.2283                 0.2293
 Red. Mass:       4.7418                 3.9533                 3.7331
 IR Intens:        5.049                  9.910                  8.634
 Frequency:       368.39                 400.60                 423.28
 Force Cnst:      0.4619                 0.3669                 0.5310
 Red. Mass:       5.7774                 3.8806                 5.0305
 IR Intens:        5.101                  6.644                  1.056
 Frequency:       486.59                 494.08                 554.78
 Force Cnst:      0.6020                 0.5345                 0.7814
 Red. Mass:       4.3151                 3.7165                 4.3093
 IR Intens:        1.215                 10.040                  2.099
 Frequency:       616.31                 712.38                 726.21
 Force Cnst:      1.0602                 1.8441                 1.9506
 Red. Mass:       4.7375                 6.1675                 6.2777
 IR Intens:        7.189                  1.144                  0.484
 Frequency:       735.86                 798.75                 805.64
 Force Cnst:      2.0017                 2.1538                 2.3509
 Red. Mass:       6.2743                 5.7296                 6.1476
 IR Intens:       23.575                  6.438                 10.529
 Frequency:       814.10                 830.34                 890.35
 Force Cnst:      2.5343                 0.5305                 2.6291
 Red. Mass:       6.4902                 1.3059                 5.6291
 IR Intens:       10.587                 18.291                  5.038
 Frequency:       921.66                 968.61                 988.23
 Force Cnst:      2.1743                 0.7377                 1.5106
 Red. Mass:       4.3444                 1.3345                 2.6253
 IR Intens:        9.695                  0.142                  5.565
 Frequency:       996.81                1046.57                1055.36
 Force Cnst:      2.7935                 0.9949                 1.5030
 Red. Mass:       4.7717                 1.5417                 2.2904
 IR Intens:       12.126                  3.238                 56.335
 Frequency:      1058.98                1062.75                1133.72
 Force Cnst:      1.0925                 1.0162                 4.0500
 Red. Mass:       1.6535                 1.5271                 5.3481
 IR Intens:        8.841                  3.916                 86.896
 Frequency:      1169.38                1169.94                1183.78
 Force Cnst:      1.0352                 1.0372                 1.2661
 Red. Mass:       1.2849                 1.2861                 1.5335
 IR Intens:        0.305                  2.005                 92.985
 Frequency:      1202.13                1210.62                1222.44
 Force Cnst:      1.5564                 1.3695                 2.8044
 Red. Mass:       1.8280                 1.5860                 3.1852
 IR Intens:       21.951                 12.200                294.627
 Frequency:      1274.88                1286.73                1292.75
 Force Cnst:      1.8202                 5.9757                 4.1346
 Red. Mass:       1.9008                 6.1258                 4.1991
 IR Intens:       12.699                174.501                214.503
 Frequency:      1315.44                1418.21                1419.82
 Force Cnst:      6.5069                 1.4678                 1.4760
 Red. Mass:       6.3824                 1.2386                 1.2427
 IR Intens:       48.447                  1.184                  5.105
 Frequency:      1431.97                1465.09                1468.58
 Force Cnst:      3.5391                 1.5175                 1.5944
 Red. Mass:       2.9294                 1.1999                 1.2548
 IR Intens:       52.512                 11.176                 46.734
 Frequency:      1481.11                1481.79                1483.15
 Force Cnst:      1.4488                 1.3529                 1.3626
 Red. Mass:       1.1209                 1.0458                 1.0514
 IR Intens:        4.108                  2.849                 17.924
 Frequency:      1486.03                1490.91                1495.86
 Force Cnst:      1.4251                 1.4416                 1.3890
 Red. Mass:       1.0953                 1.1008                 1.0536
 IR Intens:        0.270                 10.650                 15.024
 Frequency:      1496.86                1501.32                1503.19
 Force Cnst:      1.3952                 1.7297                 2.4905
 Red. Mass:       1.0568                 1.3025                 1.8707
 IR Intens:        3.272                  5.454                 20.711
 Frequency:      1608.36                1632.82                1772.84
 Force Cnst:      8.1804                11.1293                21.8468
 Red. Mass:       5.3673                 7.0851                11.7977
 IR Intens:       13.427                  2.250                 99.132
 Frequency:      1778.32                3035.10                3040.87
 Force Cnst:     21.8290                 5.6222                 5.6428
 Red. Mass:      11.7155                 1.0359                 1.0357
 IR Intens:      419.575                 24.383                 23.177
 Frequency:      3050.32                3050.62                3090.73
 Force Cnst:      5.6432                 5.6445                 6.1939
 Red. Mass:       1.0294                 1.0294                 1.1005
 IR Intens:       16.559                 51.731                 10.635
 Frequency:      3099.23                3108.01                3112.30
 Force Cnst:      6.2261                 6.2730                 6.2932
 Red. Mass:       1.1002                 1.1022                 1.1027
 IR Intens:       12.844                 17.526                 12.600
 Frequency:      3122.69                3125.58                3156.34
 Force Cnst:      6.3587                 6.3732                 6.4943
 Red. Mass:       1.1068                 1.1073                 1.1064
 IR Intens:       18.079                 13.681                 13.074
 Frequency:      3158.12                3160.52                3177.58
 Force Cnst:      6.5013                 6.3983                 6.5119
 Red. Mass:       1.1064                 1.0872                 1.0946
 IR Intens:       12.722                  8.240                 20.506

 STANDARD THERMODYNAMIC QUANTITIES AT   298.15 K  AND     1.00 ATM

   This Molecule has  0 Imaginary Frequencies
   Zero point vibrational energy:      150.386 kcal/mol

   Atom    1 Element C  Has Mass   12.00000
   Atom    2 Element C  Has Mass   12.00000
   Atom    3 Element C  Has Mass   12.00000
   Atom    4 Element C  Has Mass   12.00000
   Atom    5 Element O  Has Mass   15.99491
   Atom    6 Element O  Has Mass   15.99491
   Atom    7 Element O  Has Mass   15.99491
   Atom    8 Element O  Has Mass   15.99491
   Atom    9 Element C  Has Mass   12.00000
   Atom   10 Element C  Has Mass   12.00000
   Atom   11 Element C  Has Mass   12.00000
   Atom   12 Element C  Has Mass   12.00000
   Atom   13 Element C  Has Mass   12.00000
   Atom   14 Element C  Has Mass   12.00000
   Atom   15 Element H  Has Mass    1.00783
   Atom   16 Element H  Has Mass    1.00783
   Atom   17 Element H  Has Mass    1.00783
   Atom   18 Element H  Has Mass    1.00783
   Atom   19 Element H  Has Mass    1.00783
   Atom   20 Element H  Has Mass    1.00783
   Atom   21 Element H  Has Mass    1.00783
   Atom   22 Element H  Has Mass    1.00783
   Atom   23 Element C  Has Mass   12.00000
   Atom   24 Element C  Has Mass   12.00000
   Atom   25 Element H  Has Mass    1.00783
   Atom   26 Element H  Has Mass    1.00783
   Atom   27 Element H  Has Mass    1.00783
   Atom   28 Element H  Has Mass    1.00783
   Atom   29 Element H  Has Mass    1.00783
   Atom   30 Element H  Has Mass    1.00783
   Molecular Mass:   222.089260 amu
   Principal axes and moments of inertia in amu*Bohr^2:
                             1           2           3
    Eigenvalues --     2853.74542  3197.17828  5563.30183
          X               0.99994     0.01123     0.00105
          Y              -0.01124     0.99990     0.00801
          Z              -0.00096    -0.00802     0.99997
   Rotational Symmetry Number is   1
   The Molecule is an Asymmetric Top
   Translational Enthalpy:        0.889 kcal/mol
   Rotational Enthalpy:           0.889 kcal/mol
   Vibrational Enthalpy:        159.269 kcal/mol
   gas constant (RT):             0.592 kcal/mol
   Translational Entropy:        42.096  cal/mol.K
   Rotational Entropy:           32.295  cal/mol.K
   Vibrational Entropy:          59.384  cal/mol.K

   Total Enthalpy:              161.639 kcal/mol
   Total Entropy:               133.775  cal/mol.K

 Total job time:  8405.16s(wall), 47402.76s(cpu)
        *  Thank you very much for using Q-Chem.  Have a nice day.  *
