 Q-Chem 5.0, Q-Chem, Inc., Pleasanton, CA (2017)
 Q-Chem 5.0.0 for Intel X86 EM64T Linux

User input:
--------------------------------------------------------------
$molecule
0  1
C         -0.91600        0.09800       -0.64100
C          0.64500       -0.10000       -0.73700
C         -1.29900        1.30400        0.20500
C          1.46500        1.03300       -0.15600
O         -2.01295        2.16494       -0.56304
O         -1.04409        1.51562        1.36765
O          1.37208        2.13955       -0.91917
O          2.12445        0.97800        0.86368
C          2.11795        3.26977       -0.44211
C         -2.29964        3.42982        0.05562
C         -1.33900       -1.28300       -0.07000
C         -1.04800       -2.35800       -1.16100
C          0.47900       -2.58100       -0.98600
C          0.81200       -1.46800        0.03000
O         -0.31600       -1.52000        0.90900
H         -1.33600        0.27000       -1.63500
H          0.94700       -0.21500       -1.77700
H          3.18744        3.04073       -0.42123
H         -1.36474        3.94335        0.29467
H         -1.61700       -3.26900       -0.95400
H         -1.32800       -2.01400       -2.16000
H          0.68700       -3.55500       -0.53100
H          1.05800       -2.50500       -1.91000
H          1.91044        4.07685       -1.14597
H          1.79591        3.54334        0.56631
H         -2.88048        3.29062        0.97150
H         -2.87338        3.99241       -0.68235
C         -2.71200       -1.37900        0.56600
C          2.08600       -1.62400        0.83300
O          3.16400       -1.34300       -0.04600
H          2.15500       -2.64900        1.23200
H          2.06700       -0.92200        1.67500
C          4.40400       -1.24200        0.62500
H          5.16000       -1.01400       -0.13100
H          4.67400       -2.18500        1.12700
H          4.38900       -0.43900        1.37800
O         -3.63900       -0.92700       -0.40900
H         -2.74800       -0.76100        1.46800
H         -2.91300       -2.42700        0.84500
C         -4.95200       -0.81800        0.10100
H         -5.58500       -0.45200       -0.71200
H         -4.99900       -0.11000        0.94400
H         -5.33900       -1.79300        0.44300
$end

$opt
CONSTRAINT
tors    1    2    4    8    109.6
tors    2    1    3    6    -59.7
ENDCONSTRAINT
$end

$rem
JOBTYPE                   OPT
METHOD                    B3LYP
DFT_D                     D3_OP
BASIS                     STO-3G
GEOM_OPT_MAX_CYCLES       500
SYMMETRY                  False
THRESH                    12
SCF_CONVERGENCE           8
MAX_SUB_FILE_NUM          128
MEM_STATIC                400
MEM_TOTAL                 4000
$end

--------------------------------------------------------------

   14   -1059.4028259388      5.05E-09 Convergence criterion met
 Total energy in the final basis set = -1059.4028259388
   13   -1059.4430091123      4.06E-09 Convergence criterion met
 Total energy in the final basis set = -1059.4430091123
   12   -1059.4525942089      9.69E-09 Convergence criterion met
 Total energy in the final basis set = -1059.4525942089
   12   -1059.4542522655      6.68E-09 Convergence criterion met
 Total energy in the final basis set = -1059.4542522655
   11   -1059.4547341756      7.40E-09 Convergence criterion met
 Total energy in the final basis set = -1059.4547341756
   12   -1059.4553816236      4.59E-09 Convergence criterion met
 Total energy in the final basis set = -1059.4553816236
   12   -1059.4558060427      4.83E-09 Convergence criterion met
 Total energy in the final basis set = -1059.4558060427
   12   -1059.4563424810      7.26E-09 Convergence criterion met
 **  OPTIMIZATION CONVERGED  **
 Total job time:  151.99s(wall), 3503.89s(cpu)
        *  Thank you very much for using Q-Chem.  Have a nice day.  *

User input: 2 of 3

nid03294 10.128.12
Q-Chem Developer Version! Running on 10.128.12.*
                  Welcome to Q-Chem
     A Quantum Leap Into The Future Of Chemistry

 Q-Chem 5.0, Q-Chem, Inc., Pleasanton, CA (2017)

 Yihan Shao,  Zhengting Gan,  E. Epifanovsky,  A. T. B. Gilbert,  M. Wormit,
 J. Kussmann,  A. W. Lange,  A. Behn,  Jia Deng,  Xintian Feng,  D. Ghosh,
 M. Goldey,  P. R. Horn,  L. D. Jacobson,  I. Kaliman,  T. Kus,  A. Landau,
 Jie Liu,  E. I. Proynov,  R. M. Richard,  R. P. Steele,  E. J. Sundstrom,
 H. L. Woodcock III,  P. M. Zimmerman,  D. Zuev,  B. Albrecht,  E. Alguire,
 S. A. Baeppler,  Z. Benda,  Y. A. Bernard,  E. J. Berquist,  K. B. Bravaya,
 D. Casanova,  Chun-Min Chang,  Yunqing Chen,  A. Chien,  K. D. Closser,
 M. P. Coons,  S. Dasgupta,  M. Diedenhofen,  Hainam Do,  R. G. Edgar,
 Po-Tung Fang,  S. Fatehi,  Qingguo Feng,  Qinghui Ge,  A. Ghysels,
 J. Gomes,  J. Gonthier,  A. Gunina,  M. W. D. Hanson-Heine,
 P. H. P. Harbach,  A. W. Hauser,  J. E. Herr,  E. G. Hohenstein,
 Z. C. Holden,  Kerwin Hui,  T.-C. Jagau,  Hyunjun Ji,  B. Kaduk,
 K. Khistyaev,  Jaehoon Kim,  P. Klunzinger,  K. Koh,  D. Kosenkov,
 T. Kowalczyk,  C. M. Krauter,  A. Kunitsa,  Ka Un Lao,  A. Laurent,
 K. V. Lawler,  Joonho Lee,  D. Lefrancois,  S. Lehtola,  D. S. Levine,
 Yi-Pei Li,  You-Sheng Lin,  Fenglai Liu,  E. Livshits,  A. Luenser,
 P. Manohar,  E. Mansoor,  S. F. Manzer,  Shan-Ping Mao,  Yuezhi Mao,
 N. Mardirossian,  A. V. Marenich,  L. A. Martinez-Martinez,  S. A. Maurer,
 N. J. Mayhall,  S. C. McKenzie,  J.-M. Mewes,  A. F. Morrison,  K. Nanda,
 T. S. Nguyen-Beck,  R. Olivares-Amaya,  J. A. Parkhill,  T. M. Perrine,
 F. Plasser,  S. Prager,  A. Prociuk,  D. R. Rehn,  F. Rob,  M. Schneider,
 N. Sergueev,  S. M. Sharada,  S. Sharma,  D. W. Small,  T. Stauch,
 T. Stein,  Yu-Chuan Su,  A. J. W. Thom,  T. Tsuchimochi,  L. Vogt,
 O. Vydrov,  M. A. Watson,  J. Wenzel,  M. de Wergifosse,  T. A. Wesolowski,
 A. White,  J. Witte,  A. Yamada,  Jun Yang,  K. Yao,  S. Yeganeh,
 S. R. Yost,  Zhi-Qiang You,  A. Zech,  Igor Ying Zhang,  Xing Zhang,
 Yan Zhao,  Ying Zhu,  B. R. Brooks,  G. K. L. Chan,  C. J. Cramer,
 M. S. Gordon,  W. J. Hehre,  A. Klamt,  M. W. Schmidt,  C. D. Sherrill,
 D. G. Truhlar,  A. Aspuru-Guzik,  R. Baer,  A. T. Bell,  N. A. Besley,
 Jeng-Da Chai,  A. Dreuw,  B. D. Dunietz,  T. R. Furlani,  Chao-Ping Hsu,
 Yousung Jung,  Jing Kong,  D. S. Lambrecht,  WanZhen Liang,  C. Ochsenfeld,
 V. A. Rassolov,  L. V. Slipchenko,  J. E. Subotnik,  T. Van Voorhis,
 J. M. Herbert,  A. I. Krylov,  P. M. W. Gill,  M. Head-Gordon

 Contributors to earlier versions of Q-Chem not listed above:
 R. D. Adamson,  B. Austin,  J. Baker,  G. J. O. Beran,  K. Brandhorst,
 S. T. Brown,  E. F. C. Byrd,  A. K. Chakraborty,  C.-L. Cheng,
 Siu Hung Chien,  D. M. Chipman,  D. L. Crittenden,  H. Dachsel,
 R. A. DiStasio Jr.,  R. J. Doerksen,  A. D. Dutoi,  L. Fusti-Molnar,
 W. A. Goddard III,  A. Golubeva-Zadorozhnaya,  S. R. Gwaltney,  G. Hawkins,
 A. Heyden,  S. Hirata,  G. Kedziora,  F. J. Keil,  C. Kelley,  Jihan Kim,
 R. A. King,  R. Z. Khaliullin,  P. P. Korambath,  W. Kurlancheek,
 A. M. Lee,  M. S. Lee,  S. V. Levchenko,  Ching Yeh Lin,  D. Liotard,
 R. C. Lochan,  I. Lotan,  P. E. Maslen,  N. Nair,  D. P. O'Neill,
 D. Neuhauser,  E. Neuscamman,  C. M. Oana,  R. Olson,  B. Peters,
 R. Peverati,  P. A. Pieniazek,  Y. M. Rhee,  J. Ritchie,  M. A. Rohrdanz,
 E. Rosta,  N. J. Russ,  H. F. Schaefer III,  N. E. Schultz,  N. Shenvi,
 A. C. Simmonett,  A. Sodt,  D. Stuck,  K. S. Thanthiriwatte,  V. Vanovschi,
 Tao Wang,  A. Warshel,  C. F. Williams,  Q. Wu,  X. Xu,  W. Zhang

 Please cite Q-Chem as follows:
 Y. Shao et al., Mol. Phys. 113, 184-215 (2015)
 DOI: 10.1080/00268976.2014.952696

 Q-Chem 5.0.0 for Intel X86 EM64T Linux

 Parts of Q-Chem use Armadillo 5.200.1 (Boston Tea Smuggler).
 http://arma.sourceforge.net/

 Q-Chem begins on Wed Oct 18 18:56:40 2017

Host: nid03294
0

     Scratch files written to /global/cscratch1/sd/junteng/scratch/14/opt_1331.save//
The previous job contains 0 fragments, simply inherited here

Checking the input file for inconsistencies... 	...done.

--------------------------------------------------------------
User input:
--------------------------------------------------------------

$molecule
   read
$end

$rem
JOBTYPE                   OPT
METHOD                    B3LYP
DFT_D                     D3_OP
BASIS                     6-311++G(d,p)
GEOM_OPT_MAX_CYCLES       500
GEOM_OPT_TOL_GRADIENT     1
GEOM_OPT_TOL_DISPLACEMENT 1
GEOM_OPT_TOL_ENERGY       1
SYMMETRY                  False
THRESH                    12
SCF_CONVERGENCE           8
MAX_SUB_FILE_NUM          128
MEM_STATIC                400
MEM_TOTAL                 4000
$end

--------------------------------------------------------------

    7   -1073.6337751333      4.05E-09 Convergence criterion met
 Total energy in the final basis set = -1073.6337751333
    7   -1073.6337750071      5.29E-09 Convergence criterion met
 Total energy in the final basis set = -1073.6337750071
    7   -1073.6337751676      6.78E-09 Convergence criterion met
 Total energy in the final basis set = -1073.6337751676
    7   -1073.6337749560      8.76E-09 Convergence criterion met
 Total energy in the final basis set = -1073.6337749560
    7   -1073.6337750795      4.96E-09 Convergence criterion met
 Total energy in the final basis set = -1073.6337750795
    2   -1073.6337750796      1.81E-09 Convergence criterion met
 Total energy in the final basis set = -1073.6337750796
 Final energy is   -1073.63377507960
        *  Thank you very much for using Q-Chem.  Have a nice day.  *
 Q-Chem 5.0, Q-Chem, Inc., Pleasanton, CA (2017)
 Q-Chem 5.0.0 for Intel X86 EM64T Linux

             Standard Nuclear Orientation (Angstroms)
    I     Atom           X                Y                Z
 ----------------------------------------------------------------
    1      C      -0.6581430401     0.1341629118     0.7107260112
    2      C       0.8832315233    -0.1910341536     0.6425874653
    3      C      -1.5584121145    -0.9230206165     0.1120076442
    4      C       1.1940827932    -1.4370577328    -0.1724213520
    5      O      -2.3320365726    -1.4891960497     1.0589979260
    6      O      -1.5986347678    -1.2379040890    -1.0542879533
    7      O       0.7441652109    -2.5228870588     0.5028846632
    8      O       1.7468637104    -1.5106544382    -1.2378418434
    9      C       0.8359011061    -3.7780260215    -0.1947835618
   10      C      -3.2338353665    -2.5106337565     0.6027912176
   11      C      -0.7016691170     1.5174392342    -0.0401156406
   12      C      -0.2740354476     2.5835708433     0.9900316909
   13      C       1.2337608279     2.2434285073     1.1500785000
   14      C       1.4322832381     1.1418521793     0.0678377009
   15      O       0.4358379280     1.4716003455    -0.9124488324
   16      H      -0.9658412490     0.2607626695     1.7455858804
   17      H       1.2636438156    -0.3795829315     1.6461968406
   18      H       1.8721912087    -4.0000938782    -0.4526996525
   19      H      -2.6809621710    -3.3342018328     0.1474380978
   20      H      -0.4141596334     3.5780727714     0.5619449427
   21      H      -0.8438934842     2.5274300582     1.9176636761
   22      H       1.8686636121     3.1010026391     0.9231546329
   23      H       1.4988613266     1.8897181140     2.1472706984
   24      H       0.4460043191    -4.5230027977     0.4958399791
   25      H       0.2347943297    -3.7411459058    -1.1049914391
   26      H      -3.9347452090    -2.1031248576    -0.1276770575
   27      H      -3.7622195062    -2.8496646670     1.4912240465
   28      C      -1.9426400407     1.8039051422    -0.8597905869
   29      C       2.8076277135     1.1178497216    -0.5695893594
   30      O       3.7014873739     0.5703514299     0.3897859721
   31      H       3.1033525462     2.1442614071    -0.8311750513
   32      H       2.7877965602     0.5098570352    -1.4766225472
   33      C       4.9879603808     0.3163726355    -0.1428477329
   34      H       5.5921773450    -0.1042753307     0.6615150437
   35      H       5.4632515969     1.2402442457    -0.5015865617
   36      H       4.9359431512    -0.4013335349    -0.9718007376
   37      O      -3.0665211481     1.5986972136    -0.0179530156
   38      H      -1.9693880762     1.1262772628    -1.7201593918
   39      H      -1.9134448638     2.8391844512    -1.2276325455
   40      C      -4.2974148451     1.6687984619    -0.7134223727
   41      H      -5.0890439466     1.4960708477     0.0160797578
   42      H      -4.3514229042     0.9019129456    -1.4978303254
   43      H      -4.4430383136     2.6559283242    -1.1733713625
 ----------------------------------------------------------------

   15   -1073.6338807581      3.44E-09 Convergence criterion met
 Total energy in the final basis set = -1073.6338807581

                    Orbital Energies (a.u.)
 --------------------------------------------------------------

 Alpha MOs
 -- Occupied --
-19.171 -19.167 -19.135 -19.130 -19.128 -19.112 -19.112 -10.303
-10.302 -10.240 -10.237 -10.228 -10.223 -10.219 -10.218 -10.212
-10.211 -10.202 -10.200 -10.174 -10.174  -1.114  -1.108  -1.067
 -1.045  -1.038  -1.024  -1.023  -0.829  -0.802  -0.781  -0.747
 -0.738  -0.723  -0.696  -0.659  -0.651  -0.633  -0.602  -0.577
 -0.558  -0.555  -0.529  -0.513  -0.510  -0.501  -0.491  -0.486
 -0.483  -0.481  -0.479  -0.474  -0.471  -0.461  -0.455  -0.454
 -0.427  -0.423  -0.419  -0.418  -0.411  -0.399  -0.392  -0.389
 -0.368  -0.368  -0.360  -0.355  -0.353  -0.352  -0.342  -0.328
 -0.327  -0.322  -0.312  -0.310  -0.288  -0.277  -0.273  -0.269
 -0.261

          Ground-State Mulliken Net Atomic Charges

     Atom                 Charge (a.u.)
  ----------------------------------------
      1 C                     0.475854
      2 C                     0.341638
      3 C                    -1.192964
      4 C                    -0.580042
      5 O                     0.105144
      6 O                    -0.086728
      7 O                     0.008873
      8 O                    -0.156124
      9 C                    -0.206550
     10 C                    -0.175790
     11 C                    -0.750431
     12 C                    -0.213070
     13 C                    -0.443482
     14 C                    -0.751363
     15 O                     0.100487
     16 H                     0.313891
     17 H                     0.309376
     18 H                     0.176185
     19 H                     0.157131
     20 H                     0.169464
     21 H                     0.169102
     22 H                     0.169221
     23 H                     0.168381
     24 H                     0.146829
     25 H                     0.200717
     26 H                     0.166773
     27 H                     0.155204
     28 C                     0.009719
     29 C                     0.103844
     30 O                    -0.034260
     31 H                     0.146944
     32 H                     0.230713
     33 C                    -0.230488
     34 H                     0.141319
     35 H                     0.132154
     36 H                     0.141850
     37 O                    -0.022459
     38 H                     0.250842
     39 H                     0.162117
     40 C                    -0.233490
     41 H                     0.144184
     42 H                     0.141940
     43 H                     0.137346
  ----------------------------------------
  Sum of atomic charges =     0.000000

                    Cartesian Multipole Moments
 -----------------------------------------------------------------
    Charge (ESU x 10^10)
                 0.0000
    Dipole Moment (Debye)
         X      -1.2650      Y      -0.2429      Z       1.7171
       Tot       2.1465
    Quadrupole Moments (Debye-Ang)
        XX    -109.8750     XY       2.3792     YY    -112.2456
        XZ       1.6165     YZ      -3.3275     ZZ    -132.5127

 Frequency:        31.47                  44.08                  46.10
 Force Cnst:      0.0027                 0.0041                 0.0045
 Red. Mass:       4.6535                 3.5630                 3.6094
 IR Intens:        0.507                  0.773                  0.907
 Frequency:        51.66                  68.11                  74.25
 Force Cnst:      0.0064                 0.0112                 0.0121
 Red. Mass:       4.0675                 4.1078                 3.7300
 IR Intens:        0.340                  3.972                  0.305
 Frequency:        91.19                 105.21                 109.67
 Force Cnst:      0.0121                 0.0112                 0.0168
 Red. Mass:       2.4788                 1.7231                 2.3703
 IR Intens:        1.295                  1.157                  6.057
 Frequency:       123.83                 142.21                 148.61
 Force Cnst:      0.0193                 0.0450                 0.0315
 Red. Mass:       2.1307                 3.7788                 2.4240
 IR Intens:        5.413                  2.358                  2.270
 Frequency:       154.63                 160.75                 187.78
 Force Cnst:      0.0423                 0.0211                 0.0620
 Red. Mass:       3.0050                 1.3859                 2.9846
 IR Intens:        0.925                  0.306                  0.950
 Frequency:       216.47                 219.21                 230.25
 Force Cnst:      0.0657                 0.0605                 0.0465
 Red. Mass:       2.3797                 2.1353                 1.4875
 IR Intens:        2.205                  0.305                  4.339
 Frequency:       240.24                 261.90                 273.76
 Force Cnst:      0.0883                 0.1375                 0.2235
 Red. Mass:       2.5959                 3.4023                 5.0610
 IR Intens:        3.291                  3.898                  0.883
 Frequency:       292.10                 303.33                 325.99
 Force Cnst:      0.1769                 0.1728                 0.2600
 Red. Mass:       3.5194                 3.1882                 4.1527
 IR Intens:        6.697                  2.773                 11.450
 Frequency:       342.99                 349.15                 360.86
 Force Cnst:      0.2261                 0.2290                 0.3243
 Red. Mass:       3.2617                 3.1881                 4.2264
 IR Intens:        2.899                  8.348                  4.067
 Frequency:       374.06                 397.21                 453.43
 Force Cnst:      0.2826                 0.3339                 0.4722
 Red. Mass:       3.4282                 3.5917                 3.8978
 IR Intens:       11.020                  3.733                 11.603
 Frequency:       502.28                 583.26                 633.05
 Force Cnst:      0.6832                 0.6847                 1.0164
 Red. Mass:       4.5963                 3.4163                 4.3046
 IR Intens:        5.890                 17.603                  5.808
 Frequency:       664.72                 699.18                 725.05
 Force Cnst:      1.2801                 1.6835                 1.3901
 Red. Mass:       4.9172                 5.8451                 4.4880
 IR Intens:        1.621                  1.750                  9.388
 Frequency:       727.08                 771.95                 812.94
 Force Cnst:      1.7575                 1.4580                 0.8384
 Red. Mass:       5.6425                 4.1528                 2.1531
 IR Intens:        1.441                  2.056                  0.819
 Frequency:       836.87                 851.91                 857.59
 Force Cnst:      1.9530                 1.1409                 1.9962
 Red. Mass:       4.7330                 2.6682                 4.6067
 IR Intens:       17.778                  2.375                  8.180
 Frequency:       878.10                 906.26                 920.53
 Force Cnst:      2.3620                 1.2055                 1.0911
 Red. Mass:       5.1992                 2.4913                 2.1854
 IR Intens:        6.546                  5.882                 17.961
 Frequency:       952.81                 964.37                 968.29
 Force Cnst:      2.2659                 1.6068                 3.0504
 Red. Mass:       4.2362                 2.9324                 5.5219
 IR Intens:       67.095                  9.967                  6.872
 Frequency:       971.19                 982.20                 986.39
 Force Cnst:      1.4168                 2.4271                 2.1450
 Red. Mass:       2.5495                 4.2700                 3.7417
 IR Intens:        8.424                 13.948                  7.409
 Frequency:      1032.37                1057.17                1067.83
 Force Cnst:      2.1062                 1.8591                 2.4187
 Red. Mass:       3.3541                 2.8233                 3.6002
 IR Intens:       12.200                 29.193                 56.246
 Frequency:      1093.44                1107.45                1135.13
 Force Cnst:      2.4708                 1.2005                 3.8957
 Red. Mass:       3.5075                 1.6614                 5.1315
 IR Intens:       13.554                  6.505                353.177
 Frequency:      1139.47                1148.74                1168.61
 Force Cnst:      3.8943                 1.4666                 1.3500
 Red. Mass:       5.0906                 1.8864                 1.6778
 IR Intens:       16.991                  9.769                 48.823
 Frequency:      1169.49                1172.60                1176.74
 Force Cnst:      1.0379                 1.0725                 1.2884
 Red. Mass:       1.2880                 1.3239                 1.5793
 IR Intens:        0.925                  6.425                 37.167
 Frequency:      1184.14                1195.02                1198.85
 Force Cnst:      1.3155                 1.4335                 1.6261
 Red. Mass:       1.5924                 1.7037                 1.9203
 IR Intens:       30.910                126.125                145.202
 Frequency:      1210.22                1212.43                1214.18
 Force Cnst:      1.2784                 1.3567                 1.3615
 Red. Mass:       1.4814                 1.5665                 1.5675
 IR Intens:        4.980                  4.935                  2.004
 Frequency:      1217.01                1222.31                1228.44
 Force Cnst:      1.5791                 1.6754                 1.4891
 Red. Mass:       1.8095                 1.9033                 1.6748
 IR Intens:      102.611                254.983                 15.551
 Frequency:      1244.97                1261.12                1266.56
 Force Cnst:      1.4249                 1.4044                 1.2055
 Red. Mass:       1.5603                 1.4987                 1.2754
 IR Intens:        3.875                 29.309                  7.170
 Frequency:      1294.20                1303.83                1327.29
 Force Cnst:      1.4390                 1.4851                 1.7232
 Red. Mass:       1.4582                 1.4827                 1.6602
 IR Intens:       13.312                 20.381                  2.645
 Frequency:      1344.49                1371.30                1409.83
 Force Cnst:      2.3533                 1.8159                 1.7651
 Red. Mass:       2.2096                 1.6390                 1.5073
 IR Intens:        5.686                120.967                 62.941
 Frequency:      1426.10                1435.18                1467.76
 Force Cnst:      1.8226                 1.9854                 1.5154
 Red. Mass:       1.5211                 1.6360                 1.1939
 IR Intens:        7.293                  2.604                 12.116
 Frequency:      1469.88                1474.47                1478.50
 Force Cnst:      1.5752                 1.4893                 1.5452
 Red. Mass:       1.2375                 1.1627                 1.1997
 IR Intens:       26.946                  1.425                  1.381
 Frequency:      1481.71                1484.99                1486.57
 Force Cnst:      1.3519                 1.3585                 1.3643
 Red. Mass:       1.0451                 1.0456                 1.0478
 IR Intens:        9.284                 10.768                  7.423
 Frequency:      1487.61                1488.34                1496.10
 Force Cnst:      1.3939                 1.3807                 1.3813
 Red. Mass:       1.0691                 1.0579                 1.0474
 IR Intens:        1.765                  8.181                  4.483
 Frequency:      1498.95                1503.55                1505.25
 Force Cnst:      1.3845                 1.4095                 1.4157
 Red. Mass:       1.0458                 1.0583                 1.0605
 IR Intens:       10.800                  9.393                 10.627
 Frequency:      1513.98                1527.34                1527.85
 Force Cnst:      1.4876                 1.4822                 1.4833
 Red. Mass:       1.1015                 1.0784                 1.0785
 IR Intens:        9.581                 10.164                 18.068
 Frequency:      1777.81                1808.22                2975.98
 Force Cnst:     19.5293                21.6437                 5.4326
 Red. Mass:      10.4873                11.2352                 1.0411
 IR Intens:       92.978                280.479                 76.606
 Frequency:      2976.79                2986.03                2991.76
 Force Cnst:      5.4167                 5.6002                 5.6029
 Red. Mass:       1.0375                 1.0660                 1.0624
 IR Intens:       48.018                 77.625                 72.448
 Frequency:      3025.48                3028.90                3046.33
 Force Cnst:      5.9558                 5.9559                 5.6305
 Red. Mass:       1.1043                 1.1019                 1.0298
 IR Intens:       52.110                 47.109                 31.222
 Frequency:      3048.52                3052.42                3060.32
 Force Cnst:      5.6361                 6.0298                 5.8566
 Red. Mass:       1.0293                 1.0984                 1.0614
 IR Intens:       38.697                 10.656                 26.012
 Frequency:      3069.21                3088.11                3098.46
 Force Cnst:      5.8969                 6.1363                 6.1998
 Red. Mass:       1.0625                 1.0921                 1.0961
 IR Intens:       35.568                  6.951                  2.097
 Frequency:      3106.41                3113.63                3114.87
 Force Cnst:      6.2223                 6.2700                 6.2733
 Red. Mass:       1.0944                 1.0977                 1.0974
 IR Intens:        4.255                 27.574                 21.369
 Frequency:      3116.56                3118.20                3123.54
 Force Cnst:      6.3317                 6.3136                 6.3645
 Red. Mass:       1.1064                 1.1021                 1.1072
 IR Intens:       25.519                 21.601                 15.847
 Frequency:      3131.01                3152.76                3153.87
 Force Cnst:      6.2895                 6.4797                 6.4802
 Red. Mass:       1.0889                 1.1064                 1.1057
 IR Intens:       14.608                 13.441                 15.400

 STANDARD THERMODYNAMIC QUANTITIES AT   298.15 K  AND     1.00 ATM

   This Molecule has  0 Imaginary Frequencies
   Zero point vibrational energy:      225.116 kcal/mol

   Atom    1 Element C  Has Mass   12.00000
   Atom    2 Element C  Has Mass   12.00000
   Atom    3 Element C  Has Mass   12.00000
   Atom    4 Element C  Has Mass   12.00000
   Atom    5 Element O  Has Mass   15.99491
   Atom    6 Element O  Has Mass   15.99491
   Atom    7 Element O  Has Mass   15.99491
   Atom    8 Element O  Has Mass   15.99491
   Atom    9 Element C  Has Mass   12.00000
   Atom   10 Element C  Has Mass   12.00000
   Atom   11 Element C  Has Mass   12.00000
   Atom   12 Element C  Has Mass   12.00000
   Atom   13 Element C  Has Mass   12.00000
   Atom   14 Element C  Has Mass   12.00000
   Atom   15 Element O  Has Mass   15.99491
   Atom   16 Element H  Has Mass    1.00783
   Atom   17 Element H  Has Mass    1.00783
   Atom   18 Element H  Has Mass    1.00783
   Atom   19 Element H  Has Mass    1.00783
   Atom   20 Element H  Has Mass    1.00783
   Atom   21 Element H  Has Mass    1.00783
   Atom   22 Element H  Has Mass    1.00783
   Atom   23 Element H  Has Mass    1.00783
   Atom   24 Element H  Has Mass    1.00783
   Atom   25 Element H  Has Mass    1.00783
   Atom   26 Element H  Has Mass    1.00783
   Atom   27 Element H  Has Mass    1.00783
   Atom   28 Element C  Has Mass   12.00000
   Atom   29 Element C  Has Mass   12.00000
   Atom   30 Element O  Has Mass   15.99491
   Atom   31 Element H  Has Mass    1.00783
   Atom   32 Element H  Has Mass    1.00783
   Atom   33 Element C  Has Mass   12.00000
   Atom   34 Element H  Has Mass    1.00783
   Atom   35 Element H  Has Mass    1.00783
   Atom   36 Element H  Has Mass    1.00783
   Atom   37 Element O  Has Mass   15.99491
   Atom   38 Element H  Has Mass    1.00783
   Atom   39 Element H  Has Mass    1.00783
   Atom   40 Element C  Has Mass   12.00000
   Atom   41 Element H  Has Mass    1.00783
   Atom   42 Element H  Has Mass    1.00783
   Atom   43 Element H  Has Mass    1.00783
   Molecular Mass:   302.136630 amu
   Principal axes and moments of inertia in amu*Bohr^2:
                             1           2           3
    Eigenvalues --     4081.36448  6657.28559  9487.62112
          X               0.99999     0.00428     0.00258
          Y              -0.00428     0.99999     0.00018
          Z              -0.00258    -0.00019     1.00000
   Rotational Symmetry Number is   1
   The Molecule is an Asymmetric Top
   Translational Enthalpy:        0.889 kcal/mol
   Rotational Enthalpy:           0.889 kcal/mol
   Vibrational Enthalpy:        237.415 kcal/mol
   gas constant (RT):             0.592 kcal/mol
   Translational Entropy:        43.014  cal/mol.K
   Rotational Entropy:           33.910  cal/mol.K
   Vibrational Entropy:          82.505  cal/mol.K

   Total Enthalpy:              239.785 kcal/mol
   Total Entropy:               159.429  cal/mol.K

 Total job time:  28215.08s(wall), 197128.09s(cpu)
        *  Thank you very much for using Q-Chem.  Have a nice day.  *
