 Q-Chem 5.0, Q-Chem, Inc., Pleasanton, CA (2017)
 Q-Chem 5.0.0 for Intel X86 EM64T Linux

User input:
--------------------------------------------------------------
$molecule
0  1
C    0.579  -1.978   0.499
C   -0.345  -1.987   1.740
C    0.941  -0.610  -0.048
C   -0.562  -0.630   2.386
O    2.215  -0.645  -0.542
O    0.210   0.366  -0.087
O    0.648  -0.161   2.826
O   -1.631  -0.088   2.617
C    0.572   1.116   3.461
C    2.652   0.593  -1.106
C   -0.242  -2.782  -0.524
C   -0.292  -4.259  -0.098
C   -1.265  -4.223   1.081
C   -1.594  -2.718   1.188
O   -1.591  -2.362  -0.216
H    1.516  -2.494   0.747
H    0.090  -2.606   2.538
H   -0.024   1.052   4.377
H    2.622   1.389  -0.356
H   -0.708  -4.895  -0.888
H    0.690  -4.657   0.174
H   -2.154  -4.811   0.825
H   -0.840  -4.639   1.999
H    1.587   1.422   3.729
H    0.156   1.863   2.777
H    2.039   0.852  -1.975
H    3.687   0.467  -1.436
C   -2.945  -2.478   1.828
H   -3.699  -3.155   1.411
H   -2.911  -2.635   2.910
H   -3.320  -1.473   1.614
C    0.085  -2.603  -1.994
H   -0.579  -3.214  -2.616
H   -0.074  -1.570  -2.320
H    1.119  -2.890  -2.210
$end

$opt
CONSTRAINT
tors    2    1    3    5    147.3
tors    1    2    4    7    -69.6
ENDCONSTRAINT
$end

$rem
JOBTYPE                   OPT
METHOD                    B3LYP
DFT_D                     D3_OP
BASIS                     STO-3G
GEOM_OPT_MAX_CYCLES       500
SYMMETRY                  False
THRESH                    12
SCF_CONVERGENCE           8
MAX_SUB_FILE_NUM          128
MEM_STATIC                400
MEM_TOTAL                 4000
$end

--------------------------------------------------------------

   14    -833.4099632771      3.41E-09 Convergence criterion met
 Total energy in the final basis set = -833.4099632771
   13    -833.4392670989      3.93E-09 Convergence criterion met
 Total energy in the final basis set = -833.4392670989
   13    -833.4466004235      3.51E-09 Convergence criterion met
 Total energy in the final basis set = -833.4466004235
   12    -833.4475542998      6.52E-09 Convergence criterion met
 Total energy in the final basis set = -833.4475542998
   12    -833.4479427710      3.51E-09 Convergence criterion met
 Total energy in the final basis set = -833.4479427710
   11    -833.4482911684      9.00E-09 Convergence criterion met
 Total energy in the final basis set = -833.4482911684
   11    -833.4485854531      5.76E-09 Convergence criterion met
 Total energy in the final basis set = -833.4485854531
   11    -833.4488656215      6.30E-09 Convergence criterion met
 **  OPTIMIZATION CONVERGED  **
 Total job time:  168.16s(wall), 2388.67s(cpu)
        *  Thank you very much for using Q-Chem.  Have a nice day.  *

User input: 2 of 3

nid04268 10.128.16
Q-Chem Developer Version! Running on 10.128.16.*
                  Welcome to Q-Chem
     A Quantum Leap Into The Future Of Chemistry

 Q-Chem 5.0, Q-Chem, Inc., Pleasanton, CA (2017)

 Yihan Shao,  Zhengting Gan,  E. Epifanovsky,  A. T. B. Gilbert,  M. Wormit,
 J. Kussmann,  A. W. Lange,  A. Behn,  Jia Deng,  Xintian Feng,  D. Ghosh,
 M. Goldey,  P. R. Horn,  L. D. Jacobson,  I. Kaliman,  T. Kus,  A. Landau,
 Jie Liu,  E. I. Proynov,  R. M. Richard,  R. P. Steele,  E. J. Sundstrom,
 H. L. Woodcock III,  P. M. Zimmerman,  D. Zuev,  B. Albrecht,  E. Alguire,
 S. A. Baeppler,  Z. Benda,  Y. A. Bernard,  E. J. Berquist,  K. B. Bravaya,
 D. Casanova,  Chun-Min Chang,  Yunqing Chen,  A. Chien,  K. D. Closser,
 M. P. Coons,  S. Dasgupta,  M. Diedenhofen,  Hainam Do,  R. G. Edgar,
 Po-Tung Fang,  S. Fatehi,  Qingguo Feng,  Qinghui Ge,  A. Ghysels,
 J. Gomes,  J. Gonthier,  A. Gunina,  M. W. D. Hanson-Heine,
 P. H. P. Harbach,  A. W. Hauser,  J. E. Herr,  E. G. Hohenstein,
 Z. C. Holden,  Kerwin Hui,  T.-C. Jagau,  Hyunjun Ji,  B. Kaduk,
 K. Khistyaev,  Jaehoon Kim,  P. Klunzinger,  K. Koh,  D. Kosenkov,
 T. Kowalczyk,  C. M. Krauter,  A. Kunitsa,  Ka Un Lao,  A. Laurent,
 K. V. Lawler,  Joonho Lee,  D. Lefrancois,  S. Lehtola,  D. S. Levine,
 Yi-Pei Li,  You-Sheng Lin,  Fenglai Liu,  E. Livshits,  A. Luenser,
 P. Manohar,  E. Mansoor,  S. F. Manzer,  Shan-Ping Mao,  Yuezhi Mao,
 N. Mardirossian,  A. V. Marenich,  L. A. Martinez-Martinez,  S. A. Maurer,
 N. J. Mayhall,  S. C. McKenzie,  J.-M. Mewes,  A. F. Morrison,  K. Nanda,
 T. S. Nguyen-Beck,  R. Olivares-Amaya,  J. A. Parkhill,  T. M. Perrine,
 F. Plasser,  S. Prager,  A. Prociuk,  D. R. Rehn,  F. Rob,  M. Schneider,
 N. Sergueev,  S. M. Sharada,  S. Sharma,  D. W. Small,  T. Stauch,
 T. Stein,  Yu-Chuan Su,  A. J. W. Thom,  T. Tsuchimochi,  L. Vogt,
 O. Vydrov,  M. A. Watson,  J. Wenzel,  M. de Wergifosse,  T. A. Wesolowski,
 A. White,  J. Witte,  A. Yamada,  Jun Yang,  K. Yao,  S. Yeganeh,
 S. R. Yost,  Zhi-Qiang You,  A. Zech,  Igor Ying Zhang,  Xing Zhang,
 Yan Zhao,  Ying Zhu,  B. R. Brooks,  G. K. L. Chan,  C. J. Cramer,
 M. S. Gordon,  W. J. Hehre,  A. Klamt,  M. W. Schmidt,  C. D. Sherrill,
 D. G. Truhlar,  A. Aspuru-Guzik,  R. Baer,  A. T. Bell,  N. A. Besley,
 Jeng-Da Chai,  A. Dreuw,  B. D. Dunietz,  T. R. Furlani,  Chao-Ping Hsu,
 Yousung Jung,  Jing Kong,  D. S. Lambrecht,  WanZhen Liang,  C. Ochsenfeld,
 V. A. Rassolov,  L. V. Slipchenko,  J. E. Subotnik,  T. Van Voorhis,
 J. M. Herbert,  A. I. Krylov,  P. M. W. Gill,  M. Head-Gordon

 Contributors to earlier versions of Q-Chem not listed above:
 R. D. Adamson,  B. Austin,  J. Baker,  G. J. O. Beran,  K. Brandhorst,
 S. T. Brown,  E. F. C. Byrd,  A. K. Chakraborty,  C.-L. Cheng,
 Siu Hung Chien,  D. M. Chipman,  D. L. Crittenden,  H. Dachsel,
 R. A. DiStasio Jr.,  R. J. Doerksen,  A. D. Dutoi,  L. Fusti-Molnar,
 W. A. Goddard III,  A. Golubeva-Zadorozhnaya,  S. R. Gwaltney,  G. Hawkins,
 A. Heyden,  S. Hirata,  G. Kedziora,  F. J. Keil,  C. Kelley,  Jihan Kim,
 R. A. King,  R. Z. Khaliullin,  P. P. Korambath,  W. Kurlancheek,
 A. M. Lee,  M. S. Lee,  S. V. Levchenko,  Ching Yeh Lin,  D. Liotard,
 R. C. Lochan,  I. Lotan,  P. E. Maslen,  N. Nair,  D. P. O'Neill,
 D. Neuhauser,  E. Neuscamman,  C. M. Oana,  R. Olson,  B. Peters,
 R. Peverati,  P. A. Pieniazek,  Y. M. Rhee,  J. Ritchie,  M. A. Rohrdanz,
 E. Rosta,  N. J. Russ,  H. F. Schaefer III,  N. E. Schultz,  N. Shenvi,
 A. C. Simmonett,  A. Sodt,  D. Stuck,  K. S. Thanthiriwatte,  V. Vanovschi,
 Tao Wang,  A. Warshel,  C. F. Williams,  Q. Wu,  X. Xu,  W. Zhang

 Please cite Q-Chem as follows:
 Y. Shao et al., Mol. Phys. 113, 184-215 (2015)
 DOI: 10.1080/00268976.2014.952696

 Q-Chem 5.0.0 for Intel X86 EM64T Linux

 Parts of Q-Chem use Armadillo 5.200.1 (Boston Tea Smuggler).
 http://arma.sourceforge.net/

 Q-Chem begins on Wed Oct  4 18:02:19 2017

Host: nid04268
0

     Scratch files written to /global/cscratch1/sd/junteng/scratch/15/opt_1111o-.save//
The previous job contains 0 fragments, simply inherited here

Checking the input file for inconsistencies... 	...done.

--------------------------------------------------------------
User input:
--------------------------------------------------------------

$molecule
   read
$end

$rem
JOBTYPE                   OPT
METHOD                    B3LYP
DFT_D                     D3_OP
BASIS                     6-311++G(d,p)
GEOM_OPT_MAX_CYCLES       500
GEOM_OPT_TOL_GRADIENT     1
GEOM_OPT_TOL_DISPLACEMENT 1
GEOM_OPT_TOL_ENERGY       1
SYMMETRY                  False
THRESH                    12
SCF_CONVERGENCE           8
MAX_SUB_FILE_NUM          128
MEM_STATIC                400
MEM_TOTAL                 4000
$end

--------------------------------------------------------------

   10    -844.5292682580      4.59E-09 Convergence criterion met
 Total energy in the final basis set = -844.5292682580
    9    -844.5292691235      9.87E-09 Convergence criterion met
 Total energy in the final basis set = -844.5292691235
    9    -844.5292689766      3.30E-09 Convergence criterion met
 Total energy in the final basis set = -844.5292689766
    7    -844.5292690890      7.05E-09 Convergence criterion met
 Total energy in the final basis set = -844.5292690890
    6    -844.5292690865      8.70E-09 Convergence criterion met
 Total energy in the final basis set = -844.5292690865
    6    -844.5292690877      4.09E-09 Convergence criterion met
 Total energy in the final basis set = -844.5292690877
 Final energy is   -844.529269087691
        *  Thank you very much for using Q-Chem.  Have a nice day.  *
 Q-Chem 5.0, Q-Chem, Inc., Pleasanton, CA (2017)
 Q-Chem 5.0.0 for Intel X86 EM64T Linux

             Standard Nuclear Orientation (Angstroms)
    I     Atom           X                Y                Z
 ----------------------------------------------------------------
    1      C       0.0303495246     0.6595953749     0.6499267195
    2      C       0.5104072777    -0.8321864949     0.6421440762
    3      C      -1.2582664531     0.9288603958    -0.0937612769
    4      C      -0.5097818040    -1.8067332058     0.0697932093
    5      O      -1.9752466789     1.8831216394     0.5431379368
    6      O      -1.6039514453     0.4256477709    -1.1334465229
    7      O      -1.6332213369    -1.7512520217     0.8285266042
    8      O      -0.3777223242    -2.5637652567    -0.8542040833
    9      C      -2.7472741247    -2.5291329276     0.3543371760
   10      C      -3.1963661930     2.2882608224    -0.1026201742
   11      C       1.2426460958     1.3695762126    -0.0672317633
   12      C       2.4101499864     1.4115612270     0.9515700693
   13      C       2.8695857605    -0.0685246618     0.9542485192
   14      C       1.8965828713    -0.7169319773    -0.0728136933
   15      O       1.6734418179     0.3686533130    -0.9950157018
   16      H      -0.0908729169     1.0384139027     1.6630427254
   17      H       0.6489438094    -1.1575953015     1.6763554475
   18      H      -2.4898612754    -3.5885852289     0.3156574129
   19      H      -3.8591846197     1.4322334237    -0.2365381528
   20      H       3.1961891043     2.0721611094     0.5803082343
   21      H       2.0976508347     1.7793298256     1.9307762392
   22      H       3.8944698816    -0.1650735732     0.5920959899
   23      H       2.8166354852    -0.5433819020     1.9361439368
   24      H      -3.5478609938    -2.3562585589     1.0706128610
   25      H      -3.0393574273    -2.1895257774    -0.6406774662
   26      H      -2.9842767016     2.7323397707    -1.0766417707
   27      H      -3.6467589226     3.0218675115     0.5623701556
   28      C       2.4598435009    -1.9234719064    -0.7922315226
   29      H       3.4547639136    -1.6816954303    -1.1735722826
   30      H       2.5489605282    -2.7686813263    -0.1043928421
   31      H       1.8168607948    -2.2237546484    -1.6150948822
   32      C       0.9421320198     2.6702828171    -0.7790953386
   33      H       1.8517696075     3.0524098626    -1.2468201067
   34      H       0.1926443580     2.5216975673    -1.5585186267
   35      H       0.5728335060     3.4179211562    -0.0726887394
 ----------------------------------------------------------------

   15    -844.5292010858      3.72E-09 Convergence criterion met
 Total energy in the final basis set = -844.5292010858

                    Orbital Energies (a.u.)
 --------------------------------------------------------------

 Alpha MOs
 -- Occupied --
-19.176 -19.166 -19.125 -19.117 -19.111 -10.306 -10.303 -10.243
-10.236 -10.232 -10.223 -10.203 -10.203 -10.177 -10.175 -10.168
-10.154  -1.117  -1.108  -1.059  -1.029  -1.023  -0.830  -0.803
 -0.782  -0.749  -0.725  -0.720  -0.670  -0.642  -0.601  -0.581
 -0.563  -0.553  -0.526  -0.508  -0.501  -0.491  -0.488  -0.480
 -0.473  -0.470  -0.456  -0.439  -0.433  -0.422  -0.419  -0.411
 -0.405  -0.396  -0.392  -0.373  -0.369  -0.365  -0.358  -0.355
 -0.352  -0.346  -0.331  -0.323  -0.318  -0.308  -0.289  -0.274
 -0.269

          Ground-State Mulliken Net Atomic Charges

     Atom                 Charge (a.u.)
  ----------------------------------------
      1 C                     0.685681
      2 C                     0.420256
      3 C                    -1.522972
      4 C                    -0.521312
      5 O                     0.041537
      6 O                    -0.151456
      7 O                    -0.018747
      8 O                    -0.172133
      9 C                    -0.176154
     10 C                    -0.186849
     11 C                    -0.172087
     12 C                    -0.290649
     13 C                    -0.440383
     14 C                    -0.751345
     15 O                     0.039439
     16 H                     0.294902
     17 H                     0.260945
     18 H                     0.169531
     19 H                     0.162244
     20 H                     0.170211
     21 H                     0.140829
     22 H                     0.174752
     23 H                     0.139417
     24 H                     0.148839
     25 H                     0.190371
     26 H                     0.178731
     27 H                     0.154194
     28 C                    -0.022490
     29 H                     0.141117
     30 H                     0.160051
     31 H                     0.207991
     32 C                    -0.015304
     33 H                     0.178281
     34 H                     0.218677
     35 H                     0.163885
  ----------------------------------------
  Sum of atomic charges =     0.000000

                    Cartesian Multipole Moments
 -----------------------------------------------------------------
    Charge (ESU x 10^10)
                 0.0000
    Dipole Moment (Debye)
         X      -0.8204      Y       2.0088      Z       3.5017
       Tot       4.1195
    Quadrupole Moments (Debye-Ang)
        XX     -89.2129     XY      -0.9915     YY     -97.8170
        XZ       1.5736     YZ      -4.7561     ZZ    -107.8299

 Frequency:        24.16                  37.99                  80.07
 Force Cnst:      0.0013                 0.0042                 0.0194
 Red. Mass:       3.8715                 4.8950                 5.1309
 IR Intens:        0.026                  0.837                  2.974
 Frequency:       100.19                 120.81                 146.91
 Force Cnst:      0.0206                 0.0151                 0.0299
 Red. Mass:       3.4834                 1.7541                 2.3508
 IR Intens:        2.054                  0.229                  1.726
 Frequency:       150.30                 151.15                 186.19
 Force Cnst:      0.0192                 0.0207                 0.0633
 Red. Mass:       1.4394                 1.5364                 3.1000
 IR Intens:        0.585                  0.479                  0.523
 Frequency:       219.14                 220.38                 226.81
 Force Cnst:      0.0500                 0.0587                 0.0549
 Red. Mass:       1.7675                 2.0508                 1.8101
 IR Intens:        2.074                  0.324                  3.257
 Frequency:       233.45                 246.92                 260.64
 Force Cnst:      0.0490                 0.0813                 0.1878
 Red. Mass:       1.5251                 2.2633                 4.6920
 IR Intens:        2.434                  1.768                  4.178
 Frequency:       281.22                 319.93                 325.22
 Force Cnst:      0.1708                 0.2437                 0.1608
 Red. Mass:       3.6660                 4.0413                 2.5802
 IR Intens:        1.136                 12.039                  0.378
 Frequency:       339.77                 367.48                 369.01
 Force Cnst:      0.2390                 0.3379                 0.3004
 Red. Mass:       3.5145                 4.2471                 3.7447
 IR Intens:        5.561                  4.089                  8.974
 Frequency:       422.80                 489.58                 572.30
 Force Cnst:      0.3042                 0.4723                 0.7412
 Red. Mass:       2.8883                 3.3443                 3.8408
 IR Intens:        3.827                 12.588                 11.389
 Frequency:       596.43                 613.45                 647.80
 Force Cnst:      0.9887                 0.8961                 1.1189
 Red. Mass:       4.7172                 4.0416                 4.5252
 IR Intens:        8.834                  3.909                  2.155
 Frequency:       674.32                 719.45                 754.79
 Force Cnst:      1.2850                 1.8099                 1.5478
 Red. Mass:       4.7965                 5.9347                 4.6111
 IR Intens:        0.975                  7.419                  2.882
 Frequency:       807.78                 825.15                 858.04
 Force Cnst:      1.2032                 1.0255                 1.3595
 Red. Mass:       3.1298                 2.5564                 3.1341
 IR Intens:        1.813                  8.251                  6.542
 Frequency:       862.16                 872.19                 887.55
 Force Cnst:      2.0685                 1.8888                 1.1483
 Red. Mass:       4.7232                 4.2141                 2.4740
 IR Intens:        6.957                 23.078                 18.408
 Frequency:       890.17                 914.11                 926.10
 Force Cnst:      1.1360                 1.1039                 1.3294
 Red. Mass:       2.4333                 2.2423                 2.6308
 IR Intens:        8.157                 11.626                 31.128
 Frequency:       967.93                 971.90                 985.76
 Force Cnst:      1.8320                 2.4784                 1.9222
 Red. Mass:       3.3189                 4.4531                 3.3575
 IR Intens:        7.504                  3.425                  5.429
 Frequency:      1010.84                1056.53                1065.02
 Force Cnst:      0.9540                 2.4579                 2.0143
 Red. Mass:       1.5847                 3.7372                 3.0141
 IR Intens:        2.011                 62.975                 53.161
 Frequency:      1109.79                1129.34                1137.19
 Force Cnst:      1.0828                 1.3134                 1.8746
 Red. Mass:       1.4922                 1.7479                 2.4603
 IR Intens:        7.262                 20.903                 23.926
 Frequency:      1165.70                1171.21                1172.20
 Force Cnst:      1.7344                 1.0457                 1.1089
 Red. Mass:       2.1664                 1.2939                 1.3697
 IR Intens:      111.691                  8.649                 13.949
 Frequency:      1181.05                1195.29                1204.94
 Force Cnst:      1.9329                 2.4285                 1.6128
 Red. Mass:       2.3518                 2.8849                 1.8854
 IR Intens:       57.816                369.218                  6.631
 Frequency:      1209.76                1212.36                1220.62
 Force Cnst:      1.3561                 1.6426                 1.5991
 Red. Mass:       1.5727                 1.8968                 1.8216
 IR Intens:       20.425                159.519                 17.357
 Frequency:      1245.82                1258.01                1263.24
 Force Cnst:      2.0270                 1.2615                 1.3939
 Red. Mass:       2.2166                 1.3530                 1.4825
 IR Intens:       37.796                  3.574                 26.002
 Frequency:      1286.01                1329.79                1343.52
 Force Cnst:      1.6691                 1.6257                 2.4315
 Red. Mass:       1.7129                 1.5604                 2.2863
 IR Intens:        8.292                  1.710                  6.188
 Frequency:      1370.59                1396.09                1416.84
 Force Cnst:      1.7427                 1.8129                 1.6287
 Red. Mass:       1.5745                 1.5786                 1.3771
 IR Intens:      100.931                 38.488                 24.396
 Frequency:      1428.90                1466.98                1468.75
 Force Cnst:      1.5933                 1.5036                 1.5302
 Red. Mass:       1.3244                 1.1859                 1.2039
 IR Intens:       12.056                 14.497                 14.042
 Frequency:      1482.26                1483.87                1484.13
 Force Cnst:      1.3742                 1.3581                 1.3557
 Red. Mass:       1.0615                 1.0469                 1.0446
 IR Intens:        4.376                  3.565                 14.552
 Frequency:      1488.36                1494.45                1495.75
 Force Cnst:      1.3864                 1.3946                 1.3813
 Red. Mass:       1.0623                 1.0598                 1.0479
 IR Intens:        5.443                  0.861                  7.739
 Frequency:      1499.15                1501.61                1507.70
 Force Cnst:      1.3839                 1.3981                 1.4160
 Red. Mass:       1.0451                 1.0524                 1.0573
 IR Intens:       14.164                  7.405                 11.236
 Frequency:      1511.59                1791.39                1811.80
 Force Cnst:      1.4672                20.8552                22.1248
 Red. Mass:       1.0899                11.0302                11.4396
 IR Intens:        7.571                 89.801                319.963
 Frequency:      3041.05                3042.50                3048.83
 Force Cnst:      5.6396                 5.6767                 5.6381
 Red. Mass:       1.0350                 1.0408                 1.0295
 IR Intens:       14.019                 16.946                 18.399
 Frequency:      3049.16                3053.41                3061.59
 Force Cnst:      5.6402                 5.8285                 5.9079
 Red. Mass:       1.0296                 1.0610                 1.0698
 IR Intens:       51.680                 29.973                 23.255
 Frequency:      3067.46                3090.51                3099.62
 Force Cnst:      5.9400                 6.2292                 6.2393
 Red. Mass:       1.0715                 1.1069                 1.1022
 IR Intens:       29.076                  0.185                 12.540
 Frequency:      3108.42                3110.51                3116.27
 Force Cnst:      6.2814                 6.2748                 6.3091
 Red. Mass:       1.1034                 1.1008                 1.1027
 IR Intens:       14.997                 29.003                 20.366
 Frequency:      3118.61                3122.10                3123.47
 Force Cnst:      6.2421                 6.3573                 6.3640
 Red. Mass:       1.0893                 1.1070                 1.1071
 IR Intens:       26.119                 20.209                 14.229
 Frequency:      3152.51                3156.18                3165.56
 Force Cnst:      6.4790                 6.4918                 6.4736
 Red. Mass:       1.1065                 1.1061                 1.0965
 IR Intens:       14.028                 14.397                  2.216

 STANDARD THERMODYNAMIC QUANTITIES AT   298.15 K  AND     1.00 ATM

   This Molecule has  0 Imaginary Frequencies
   Zero point vibrational energy:      183.648 kcal/mol

   Atom    1 Element C  Has Mass   12.00000
   Atom    2 Element C  Has Mass   12.00000
   Atom    3 Element C  Has Mass   12.00000
   Atom    4 Element C  Has Mass   12.00000
   Atom    5 Element O  Has Mass   15.99491
   Atom    6 Element O  Has Mass   15.99491
   Atom    7 Element O  Has Mass   15.99491
   Atom    8 Element O  Has Mass   15.99491
   Atom    9 Element C  Has Mass   12.00000
   Atom   10 Element C  Has Mass   12.00000
   Atom   11 Element C  Has Mass   12.00000
   Atom   12 Element C  Has Mass   12.00000
   Atom   13 Element C  Has Mass   12.00000
   Atom   14 Element C  Has Mass   12.00000
   Atom   15 Element O  Has Mass   15.99491
   Atom   16 Element H  Has Mass    1.00783
   Atom   17 Element H  Has Mass    1.00783
   Atom   18 Element H  Has Mass    1.00783
   Atom   19 Element H  Has Mass    1.00783
   Atom   20 Element H  Has Mass    1.00783
   Atom   21 Element H  Has Mass    1.00783
   Atom   22 Element H  Has Mass    1.00783
   Atom   23 Element H  Has Mass    1.00783
   Atom   24 Element H  Has Mass    1.00783
   Atom   25 Element H  Has Mass    1.00783
   Atom   26 Element H  Has Mass    1.00783
   Atom   27 Element H  Has Mass    1.00783
   Atom   28 Element C  Has Mass   12.00000
   Atom   29 Element H  Has Mass    1.00783
   Atom   30 Element H  Has Mass    1.00783
   Atom   31 Element H  Has Mass    1.00783
   Atom   32 Element C  Has Mass   12.00000
   Atom   33 Element H  Has Mass    1.00783
   Atom   34 Element H  Has Mass    1.00783
   Atom   35 Element H  Has Mass    1.00783
   Molecular Mass:   242.115490 amu
   Principal axes and moments of inertia in amu*Bohr^2:
                             1           2           3
    Eigenvalues --     2978.60117  3615.13529  5612.84196
          X               0.99991    -0.01194     0.00561
          Y               0.01197     0.99992    -0.00470
          Z              -0.00555     0.00477     0.99997
   Rotational Symmetry Number is   1
   The Molecule is an Asymmetric Top
   Translational Enthalpy:        0.889 kcal/mol
   Rotational Enthalpy:           0.889 kcal/mol
   Vibrational Enthalpy:        192.700 kcal/mol
   gas constant (RT):             0.592 kcal/mol
   Translational Entropy:        42.354  cal/mol.K
   Rotational Entropy:           32.469  cal/mol.K
   Vibrational Entropy:          58.061  cal/mol.K

   Total Enthalpy:              195.069 kcal/mol
   Total Entropy:               132.883  cal/mol.K

 Total job time:  14181.23s(wall), 84559.81s(cpu)
        *  Thank you very much for using Q-Chem.  Have a nice day.  *
