 Q-Chem 5.0, Q-Chem, Inc., Pleasanton, CA (2017)
 Q-Chem 5.0.0 for Intel X86 EM64T Linux

User input:
--------------------------------------------------------------
$molecule
0  1
C    0.579  -1.978   0.499
C   -0.345  -1.987   1.740
C    0.941  -0.610  -0.048
C   -0.562  -0.630   2.386
O    2.215  -0.645  -0.542
O    0.210   0.366  -0.087
O    0.648  -0.161   2.826
O   -1.631  -0.088   2.617
C    0.572   1.116   3.461
C    2.652   0.593  -1.106
C   -0.242  -2.782  -0.524
C   -0.292  -4.259  -0.098
C   -1.265  -4.223   1.081
C   -1.594  -2.718   1.188
O   -1.591  -2.362  -0.216
H    1.516  -2.494   0.747
H    0.090  -2.606   2.538
H   -0.024   1.052   4.377
H    2.622   1.389  -0.356
H   -0.708  -4.895  -0.888
H    0.690  -4.657   0.174
H   -2.154  -4.811   0.825
H   -0.840  -4.639   1.999
H    1.587   1.422   3.729
H    0.156   1.863   2.777
H    2.039   0.852  -1.975
H    3.687   0.467  -1.436
C   -2.945  -2.478   1.828
H   -3.699  -3.155   1.411
H   -2.911  -2.635   2.910
H   -3.320  -1.473   1.614
C    0.085  -2.603  -1.994
H   -0.579  -3.214  -2.616
H   -0.074  -1.570  -2.320
H    1.119  -2.890  -2.210
$end

$opt
CONSTRAINT
tors    2    1    3    5    142.3
tors    1    2    4    7    -64.6
ENDCONSTRAINT
$end

$rem
JOBTYPE                   OPT
METHOD                    B3LYP
DFT_D                     D3_OP
BASIS                     STO-3G
GEOM_OPT_MAX_CYCLES       500
SYMMETRY                  False
THRESH                    12
SCF_CONVERGENCE           8
MAX_SUB_FILE_NUM          128
MEM_STATIC                400
MEM_TOTAL                 4000
$end

--------------------------------------------------------------

   14    -833.4099632771      3.41E-09 Convergence criterion met
 Total energy in the final basis set = -833.4099632771
   13    -833.4399745664      4.12E-09 Convergence criterion met
 Total energy in the final basis set = -833.4399745664
   13    -833.4465504915      3.88E-09 Convergence criterion met
 Total energy in the final basis set = -833.4465504915
   12    -833.4473600479      1.98E-09 Convergence criterion met
 Total energy in the final basis set = -833.4473600479
   12    -833.4476921536      3.70E-09 Convergence criterion met
 Total energy in the final basis set = -833.4476921536
   12    -833.4479627981      2.89E-09 Convergence criterion met
 Total energy in the final basis set = -833.4479627981
   11    -833.4481974722      5.27E-09 Convergence criterion met
 Total energy in the final basis set = -833.4481974722
   12    -833.4484534457      3.13E-09 Convergence criterion met
 **  OPTIMIZATION CONVERGED  **
 Total job time:  154.68s(wall), 3149.48s(cpu)
        *  Thank you very much for using Q-Chem.  Have a nice day.  *

User input: 2 of 3

nid04271 10.128.16
Q-Chem Developer Version! Running on 10.128.16.*
                  Welcome to Q-Chem
     A Quantum Leap Into The Future Of Chemistry

 Q-Chem 5.0, Q-Chem, Inc., Pleasanton, CA (2017)

 Yihan Shao,  Zhengting Gan,  E. Epifanovsky,  A. T. B. Gilbert,  M. Wormit,
 J. Kussmann,  A. W. Lange,  A. Behn,  Jia Deng,  Xintian Feng,  D. Ghosh,
 M. Goldey,  P. R. Horn,  L. D. Jacobson,  I. Kaliman,  T. Kus,  A. Landau,
 Jie Liu,  E. I. Proynov,  R. M. Richard,  R. P. Steele,  E. J. Sundstrom,
 H. L. Woodcock III,  P. M. Zimmerman,  D. Zuev,  B. Albrecht,  E. Alguire,
 S. A. Baeppler,  Z. Benda,  Y. A. Bernard,  E. J. Berquist,  K. B. Bravaya,
 D. Casanova,  Chun-Min Chang,  Yunqing Chen,  A. Chien,  K. D. Closser,
 M. P. Coons,  S. Dasgupta,  M. Diedenhofen,  Hainam Do,  R. G. Edgar,
 Po-Tung Fang,  S. Fatehi,  Qingguo Feng,  Qinghui Ge,  A. Ghysels,
 J. Gomes,  J. Gonthier,  A. Gunina,  M. W. D. Hanson-Heine,
 P. H. P. Harbach,  A. W. Hauser,  J. E. Herr,  E. G. Hohenstein,
 Z. C. Holden,  Kerwin Hui,  T.-C. Jagau,  Hyunjun Ji,  B. Kaduk,
 K. Khistyaev,  Jaehoon Kim,  P. Klunzinger,  K. Koh,  D. Kosenkov,
 T. Kowalczyk,  C. M. Krauter,  A. Kunitsa,  Ka Un Lao,  A. Laurent,
 K. V. Lawler,  Joonho Lee,  D. Lefrancois,  S. Lehtola,  D. S. Levine,
 Yi-Pei Li,  You-Sheng Lin,  Fenglai Liu,  E. Livshits,  A. Luenser,
 P. Manohar,  E. Mansoor,  S. F. Manzer,  Shan-Ping Mao,  Yuezhi Mao,
 N. Mardirossian,  A. V. Marenich,  L. A. Martinez-Martinez,  S. A. Maurer,
 N. J. Mayhall,  S. C. McKenzie,  J.-M. Mewes,  A. F. Morrison,  K. Nanda,
 T. S. Nguyen-Beck,  R. Olivares-Amaya,  J. A. Parkhill,  T. M. Perrine,
 F. Plasser,  S. Prager,  A. Prociuk,  D. R. Rehn,  F. Rob,  M. Schneider,
 N. Sergueev,  S. M. Sharada,  S. Sharma,  D. W. Small,  T. Stauch,
 T. Stein,  Yu-Chuan Su,  A. J. W. Thom,  T. Tsuchimochi,  L. Vogt,
 O. Vydrov,  M. A. Watson,  J. Wenzel,  M. de Wergifosse,  T. A. Wesolowski,
 A. White,  J. Witte,  A. Yamada,  Jun Yang,  K. Yao,  S. Yeganeh,
 S. R. Yost,  Zhi-Qiang You,  A. Zech,  Igor Ying Zhang,  Xing Zhang,
 Yan Zhao,  Ying Zhu,  B. R. Brooks,  G. K. L. Chan,  C. J. Cramer,
 M. S. Gordon,  W. J. Hehre,  A. Klamt,  M. W. Schmidt,  C. D. Sherrill,
 D. G. Truhlar,  A. Aspuru-Guzik,  R. Baer,  A. T. Bell,  N. A. Besley,
 Jeng-Da Chai,  A. Dreuw,  B. D. Dunietz,  T. R. Furlani,  Chao-Ping Hsu,
 Yousung Jung,  Jing Kong,  D. S. Lambrecht,  WanZhen Liang,  C. Ochsenfeld,
 V. A. Rassolov,  L. V. Slipchenko,  J. E. Subotnik,  T. Van Voorhis,
 J. M. Herbert,  A. I. Krylov,  P. M. W. Gill,  M. Head-Gordon

 Contributors to earlier versions of Q-Chem not listed above:
 R. D. Adamson,  B. Austin,  J. Baker,  G. J. O. Beran,  K. Brandhorst,
 S. T. Brown,  E. F. C. Byrd,  A. K. Chakraborty,  C.-L. Cheng,
 Siu Hung Chien,  D. M. Chipman,  D. L. Crittenden,  H. Dachsel,
 R. A. DiStasio Jr.,  R. J. Doerksen,  A. D. Dutoi,  L. Fusti-Molnar,
 W. A. Goddard III,  A. Golubeva-Zadorozhnaya,  S. R. Gwaltney,  G. Hawkins,
 A. Heyden,  S. Hirata,  G. Kedziora,  F. J. Keil,  C. Kelley,  Jihan Kim,
 R. A. King,  R. Z. Khaliullin,  P. P. Korambath,  W. Kurlancheek,
 A. M. Lee,  M. S. Lee,  S. V. Levchenko,  Ching Yeh Lin,  D. Liotard,
 R. C. Lochan,  I. Lotan,  P. E. Maslen,  N. Nair,  D. P. O'Neill,
 D. Neuhauser,  E. Neuscamman,  C. M. Oana,  R. Olson,  B. Peters,
 R. Peverati,  P. A. Pieniazek,  Y. M. Rhee,  J. Ritchie,  M. A. Rohrdanz,
 E. Rosta,  N. J. Russ,  H. F. Schaefer III,  N. E. Schultz,  N. Shenvi,
 A. C. Simmonett,  A. Sodt,  D. Stuck,  K. S. Thanthiriwatte,  V. Vanovschi,
 Tao Wang,  A. Warshel,  C. F. Williams,  Q. Wu,  X. Xu,  W. Zhang

 Please cite Q-Chem as follows:
 Y. Shao et al., Mol. Phys. 113, 184-215 (2015)
 DOI: 10.1080/00268976.2014.952696

 Q-Chem 5.0.0 for Intel X86 EM64T Linux

 Parts of Q-Chem use Armadillo 5.200.1 (Boston Tea Smuggler).
 http://arma.sourceforge.net/

 Q-Chem begins on Wed Oct  4 18:02:05 2017

Host: nid04271
0

     Scratch files written to /global/cscratch1/sd/junteng/scratch/15/opt_1111-o.save//
The previous job contains 0 fragments, simply inherited here

Checking the input file for inconsistencies... 	...done.

--------------------------------------------------------------
User input:
--------------------------------------------------------------

$molecule
   read
$end

$rem
JOBTYPE                   OPT
METHOD                    B3LYP
DFT_D                     D3_OP
BASIS                     6-311++G(d,p)
GEOM_OPT_MAX_CYCLES       500
GEOM_OPT_TOL_GRADIENT     1
GEOM_OPT_TOL_DISPLACEMENT 1
GEOM_OPT_TOL_ENERGY       1
SYMMETRY                  False
THRESH                    12
SCF_CONVERGENCE           8
MAX_SUB_FILE_NUM          128
MEM_STATIC                400
MEM_TOTAL                 4000
$end

--------------------------------------------------------------

    7    -844.5292591485      7.44E-09 Convergence criterion met
 Total energy in the final basis set = -844.5292591485
    7    -844.5292590336      7.69E-09 Convergence criterion met
 Total energy in the final basis set = -844.5292590336
    7    -844.5292591522      7.97E-09 Convergence criterion met
 Total energy in the final basis set = -844.5292591522
    7    -844.5292590291      8.25E-09 Convergence criterion met
 Total energy in the final basis set = -844.5292590291
    7    -844.5292590944      4.19E-09 Convergence criterion met
 Total energy in the final basis set = -844.5292590944
    2    -844.5292590944      4.35E-09 Convergence criterion met
 Total energy in the final basis set = -844.5292590944
 Final energy is   -844.529259094379
        *  Thank you very much for using Q-Chem.  Have a nice day.  *
 Q-Chem 5.0, Q-Chem, Inc., Pleasanton, CA (2017)
 Q-Chem 5.0.0 for Intel X86 EM64T Linux

             Standard Nuclear Orientation (Angstroms)
    I     Atom           X                Y                Z
 ----------------------------------------------------------------
    1      C       0.0301668684     0.6600317885     0.6495975138
    2      C       0.5108635899    -0.8315924039     0.6428289216
    3      C      -1.2590876822     0.9282913022    -0.0933430948
    4      C      -0.5083169961    -1.8067000127     0.0696432887
    5      O      -1.9769568703     1.8811500307     0.5446509597
    6      O      -1.6045192372     0.4256128185    -1.1333700273
    7      O      -1.6323279748    -1.7521883137     0.8275977827
    8      O      -0.3752001746    -2.5632383712    -0.8546102948
    9      C      -2.7456628456    -2.5303154956     0.3521267945
   10      C      -3.1989030935     2.2852477705    -0.1001654491
   11      C       1.2418010030     1.3700293361    -0.0688131483
   12      C       2.4093557832     1.4146156342     0.9497086798
   13      C       2.8692721238    -0.0653135267     0.9553502031
   14      C       1.8973936448    -0.7159674733    -0.0713181221
   15      O       1.6735457462     0.3681644698    -0.9951471201
   16      H      -0.0905390005     1.0394833211     1.6625353618
   17      H       0.6487837148    -1.1566340132     1.6772278144
   18      H      -2.4876825905    -3.5896033491     0.3127789134
   19      H      -3.8601435509     1.4282321166    -0.2355407341
   20      H       3.1950525301     2.0747849114     0.5769054044
   21      H       2.0969264629     1.7843146753     1.9282164772
   22      H       3.8944778661    -0.1620678086     0.5942118266
   23      H       2.8156852783    -0.5383518182     1.9380746234
   24      H      -3.5468065875    -2.3584358418     1.0680193328
   25      H      -3.0373003485    -2.1901349795    -0.6428176178
   26      H      -2.9877186700     2.7314674963    -1.0734024325
   27      H      -3.6505182103     3.0168390983     0.5662126166
   28      C       2.4621801599    -1.9229404943    -0.7887700848
   29      H       3.4571449906    -1.6808227316    -1.1698010498
   30      H       2.5517208587    -2.7671505061    -0.0997410192
   31      H       1.8200104626    -2.2249214925    -1.6116550540
   32      C       0.9400168813     2.6693979259    -0.7825709059
   33      H       1.8491798098     3.0512802762    -1.2513818688
   34      H       0.1902160734     2.5190598457    -1.5613382767
   35      H       0.5707023747     3.4179496212    -0.0771222973
 ----------------------------------------------------------------

   15    -844.5292024862      3.72E-09 Convergence criterion met
 Total energy in the final basis set = -844.5292024862

                    Orbital Energies (a.u.)
 --------------------------------------------------------------

 Alpha MOs
 -- Occupied --
-19.176 -19.166 -19.125 -19.117 -19.111 -10.306 -10.303 -10.242
-10.236 -10.232 -10.223 -10.203 -10.203 -10.177 -10.175 -10.168
-10.154  -1.117  -1.108  -1.059  -1.029  -1.023  -0.830  -0.803
 -0.782  -0.749  -0.725  -0.720  -0.670  -0.642  -0.601  -0.581
 -0.563  -0.553  -0.526  -0.508  -0.501  -0.491  -0.488  -0.480
 -0.473  -0.470  -0.456  -0.439  -0.433  -0.422  -0.419  -0.411
 -0.405  -0.396  -0.392  -0.373  -0.369  -0.365  -0.358  -0.355
 -0.352  -0.346  -0.331  -0.323  -0.318  -0.308  -0.289  -0.274
 -0.269

          Ground-State Mulliken Net Atomic Charges

     Atom                 Charge (a.u.)
  ----------------------------------------
      1 C                     0.688471
      2 C                     0.419371
      3 C                    -1.524407
      4 C                    -0.522310
      5 O                     0.041755
      6 O                    -0.151486
      7 O                    -0.018806
      8 O                    -0.172081
      9 C                    -0.176137
     10 C                    -0.186761
     11 C                    -0.173655
     12 C                    -0.291162
     13 C                    -0.439710
     14 C                    -0.750918
     15 O                     0.039307
     16 H                     0.294927
     17 H                     0.260994
     18 H                     0.169552
     19 H                     0.162232
     20 H                     0.170205
     21 H                     0.140844
     22 H                     0.174726
     23 H                     0.139409
     24 H                     0.148825
     25 H                     0.190395
     26 H                     0.178668
     27 H                     0.154210
     28 C                    -0.022365
     29 H                     0.141156
     30 H                     0.159961
     31 H                     0.207960
     32 C                    -0.014061
     33 H                     0.178396
     34 H                     0.218722
     35 H                     0.163774
  ----------------------------------------
  Sum of atomic charges =     0.000000

                    Cartesian Multipole Moments
 -----------------------------------------------------------------
    Charge (ESU x 10^10)
                 0.0000
    Dipole Moment (Debye)
         X      -0.8228      Y       2.0079      Z       3.5019
       Tot       4.1197
    Quadrupole Moments (Debye-Ang)
        XX     -89.2079     XY      -0.9789     YY     -97.8165
        XZ       1.5784     YZ      -4.7510     ZZ    -107.8344

 Frequency:        24.29                  37.93                  80.03
 Force Cnst:      0.0013                 0.0041                 0.0193
 Red. Mass:       3.8722                 4.8937                 5.1190
 IR Intens:        0.026                  0.839                  2.983
 Frequency:       100.13                 121.27                 146.86
 Force Cnst:      0.0206                 0.0154                 0.0277
 Red. Mass:       3.4900                 1.7789                 2.1814
 IR Intens:        2.057                  0.227                  1.619
 Frequency:       150.24                 151.37                 186.16
 Force Cnst:      0.0190                 0.0217                 0.0632
 Red. Mass:       1.4323                 1.6062                 3.0951
 IR Intens:        0.699                  0.472                  0.516
 Frequency:       219.50                 220.40                 226.52
 Force Cnst:      0.0596                 0.0497                 0.0537
 Red. Mass:       2.0979                 1.7362                 1.7747
 IR Intens:        2.036                  0.429                  3.089
 Frequency:       233.37                 247.01                 260.59
 Force Cnst:      0.0498                 0.0811                 0.1878
 Red. Mass:       1.5519                 2.2572                 4.6950
 IR Intens:        2.516                  1.790                  4.164
 Frequency:       281.16                 320.01                 325.24
 Force Cnst:      0.1708                 0.2437                 0.1614
 Red. Mass:       3.6680                 4.0386                 2.5896
 IR Intens:        1.145                 12.119                  0.364
 Frequency:       339.82                 367.49                 369.24
 Force Cnst:      0.2390                 0.3383                 0.3003
 Red. Mass:       3.5128                 4.2520                 3.7385
 IR Intens:        5.510                  4.085                  8.959
 Frequency:       422.84                 489.49                 572.39
 Force Cnst:      0.3042                 0.4719                 0.7413
 Red. Mass:       2.8879                 3.3429                 3.8405
 IR Intens:        3.839                 12.590                 11.390
 Frequency:       596.46                 613.47                 647.85
 Force Cnst:      0.9880                 0.8963                 1.1185
 Red. Mass:       4.7135                 4.0423                 4.5230
 IR Intens:        8.818                  3.908                  2.134
 Frequency:       674.41                 719.48                 754.85
 Force Cnst:      1.2861                 1.8109                 1.5463
 Red. Mass:       4.7993                 5.9374                 4.6060
 IR Intens:        0.987                  7.422                  2.874
 Frequency:       807.83                 825.13                 858.11
 Force Cnst:      1.2015                 1.0277                 1.3560
 Red. Mass:       3.1250                 2.5619                 3.1256
 IR Intens:        1.800                  8.334                  6.447
 Frequency:       862.16                 872.13                 887.58
 Force Cnst:      2.0811                 1.8914                 1.1496
 Red. Mass:       4.7518                 4.2205                 2.4768
 IR Intens:        7.060                 23.080                 18.478
 Frequency:       890.28                 914.23                 926.19
 Force Cnst:      1.1357                 1.1025                 1.3271
 Red. Mass:       2.4320                 2.2388                 2.6258
 IR Intens:        8.188                 11.626                 30.931
 Frequency:       967.99                 971.88                 985.77
 Force Cnst:      1.8318                 2.4742                 1.9235
 Red. Mass:       3.3180                 4.4459                 3.3596
 IR Intens:        7.538                  3.404                  5.433
 Frequency:      1010.83                1056.46                1065.00
 Force Cnst:      0.9540                 2.4563                 2.0148
 Red. Mass:       1.5846                 3.7353                 3.0150
 IR Intens:        2.022                 62.768                 53.231
 Frequency:      1109.78                1129.36                1137.28
 Force Cnst:      1.0828                 1.3147                 1.8708
 Red. Mass:       1.4922                 1.7495                 2.4549
 IR Intens:        7.265                 21.250                 23.665
 Frequency:      1165.62                1171.17                1172.20
 Force Cnst:      1.7354                 1.0462                 1.1087
 Red. Mass:       2.1678                 1.2946                 1.3695
 IR Intens:      111.627                  8.917                 13.793
 Frequency:      1181.08                1195.27                1204.92
 Force Cnst:      1.9280                 2.4242                 1.6139
 Red. Mass:       2.3459                 2.8799                 1.8867
 IR Intens:       57.719                369.081                  6.777
 Frequency:      1209.77                1212.37                1220.66
 Force Cnst:      1.3542                 1.6421                 1.6013
 Red. Mass:       1.5705                 1.8962                 1.8240
 IR Intens:       19.852                159.951                 17.207
 Frequency:      1245.87                1257.88                1263.22
 Force Cnst:      2.0284                 1.2613                 1.3967
 Red. Mass:       2.2180                 1.3529                 1.4856
 IR Intens:       37.805                  3.457                 26.158
 Frequency:      1286.12                1329.84                1343.56
 Force Cnst:      1.6678                 1.6260                 2.4306
 Red. Mass:       1.7114                 1.5605                 2.2853
 IR Intens:        8.331                  1.686                  6.261
 Frequency:      1370.49                1396.13                1417.08
 Force Cnst:      1.7442                 1.8146                 1.6274
 Red. Mass:       1.5761                 1.5801                 1.3755
 IR Intens:      101.007                 38.773                 24.320
 Frequency:      1428.88                1466.94                1468.75
 Force Cnst:      1.5940                 1.5036                 1.5302
 Red. Mass:       1.3251                 1.1859                 1.2039
 IR Intens:       12.024                 14.433                 14.145
 Frequency:      1482.36                1483.88                1484.09
 Force Cnst:      1.3744                 1.3579                 1.3561
 Red. Mass:       1.0616                 1.0467                 1.0450
 IR Intens:        4.333                  2.478                 15.643
 Frequency:      1488.35                1494.46                1495.77
 Force Cnst:      1.3862                 1.3945                 1.3812
 Red. Mass:       1.0621                 1.0597                 1.0478
 IR Intens:        5.438                  0.883                  7.753
 Frequency:      1499.15                1501.59                1507.86
 Force Cnst:      1.3839                 1.3981                 1.4179
 Red. Mass:       1.0451                 1.0524                 1.0584
 IR Intens:       14.245                  7.387                 11.166
 Frequency:      1511.64                1791.40                1811.78
 Force Cnst:      1.4658                20.8525                22.1219
 Red. Mass:       1.0888                11.0287                11.4384
 IR Intens:        7.592                 89.708                319.889
 Frequency:      3041.09                3042.43                3048.84
 Force Cnst:      5.6400                 5.6764                 5.6382
 Red. Mass:       1.0351                 1.0408                 1.0295
 IR Intens:       14.172                 16.871                 18.210
 Frequency:      3049.17                3053.46                3061.64
 Force Cnst:      5.6401                 5.8283                 5.9076
 Red. Mass:       1.0296                 1.0610                 1.0697
 IR Intens:       51.856                 30.085                 23.271
 Frequency:      3067.56                3090.53                3099.48
 Force Cnst:      5.9413                 6.2292                 6.2387
 Red. Mass:       1.0716                 1.1069                 1.1022
 IR Intens:       28.929                  0.218                 12.640
 Frequency:      3108.46                3110.52                3116.46
 Force Cnst:      6.2816                 6.2749                 6.3099
 Red. Mass:       1.1034                 1.1007                 1.1027
 IR Intens:       14.804                 29.138                 20.324
 Frequency:      3118.63                3122.13                3123.48
 Force Cnst:      6.2422                 6.3575                 6.3640
 Red. Mass:       1.0893                 1.1070                 1.1071
 IR Intens:       26.049                 20.230                 14.176
 Frequency:      3152.51                3156.22                3165.50
 Force Cnst:      6.4790                 6.4920                 6.4733
 Red. Mass:       1.1065                 1.1061                 1.0965
 IR Intens:       14.028                 14.393                  2.201

 STANDARD THERMODYNAMIC QUANTITIES AT   298.15 K  AND     1.00 ATM

   This Molecule has  0 Imaginary Frequencies
   Zero point vibrational energy:      183.652 kcal/mol

   Atom    1 Element C  Has Mass   12.00000
   Atom    2 Element C  Has Mass   12.00000
   Atom    3 Element C  Has Mass   12.00000
   Atom    4 Element C  Has Mass   12.00000
   Atom    5 Element O  Has Mass   15.99491
   Atom    6 Element O  Has Mass   15.99491
   Atom    7 Element O  Has Mass   15.99491
   Atom    8 Element O  Has Mass   15.99491
   Atom    9 Element C  Has Mass   12.00000
   Atom   10 Element C  Has Mass   12.00000
   Atom   11 Element C  Has Mass   12.00000
   Atom   12 Element C  Has Mass   12.00000
   Atom   13 Element C  Has Mass   12.00000
   Atom   14 Element C  Has Mass   12.00000
   Atom   15 Element O  Has Mass   15.99491
   Atom   16 Element H  Has Mass    1.00783
   Atom   17 Element H  Has Mass    1.00783
   Atom   18 Element H  Has Mass    1.00783
   Atom   19 Element H  Has Mass    1.00783
   Atom   20 Element H  Has Mass    1.00783
   Atom   21 Element H  Has Mass    1.00783
   Atom   22 Element H  Has Mass    1.00783
   Atom   23 Element H  Has Mass    1.00783
   Atom   24 Element H  Has Mass    1.00783
   Atom   25 Element H  Has Mass    1.00783
   Atom   26 Element H  Has Mass    1.00783
   Atom   27 Element H  Has Mass    1.00783
   Atom   28 Element C  Has Mass   12.00000
   Atom   29 Element H  Has Mass    1.00783
   Atom   30 Element H  Has Mass    1.00783
   Atom   31 Element H  Has Mass    1.00783
   Atom   32 Element C  Has Mass   12.00000
   Atom   33 Element H  Has Mass    1.00783
   Atom   34 Element H  Has Mass    1.00783
   Atom   35 Element H  Has Mass    1.00783
   Molecular Mass:   242.115490 amu
   Principal axes and moments of inertia in amu*Bohr^2:
                             1           2           3
    Eigenvalues --     2977.61029  3615.86491  5612.82750
          X               0.99991    -0.01182     0.00562
          Y               0.01185     0.99992    -0.00471
          Z              -0.00556     0.00478     0.99997
   Rotational Symmetry Number is   1
   The Molecule is an Asymmetric Top
   Translational Enthalpy:        0.889 kcal/mol
   Rotational Enthalpy:           0.889 kcal/mol
   Vibrational Enthalpy:        192.702 kcal/mol
   gas constant (RT):             0.592 kcal/mol
   Translational Entropy:        42.354  cal/mol.K
   Rotational Entropy:           32.469  cal/mol.K
   Vibrational Entropy:          58.044  cal/mol.K

   Total Enthalpy:              195.072 kcal/mol
   Total Entropy:               132.867  cal/mol.K

 Total job time:  14028.65s(wall), 84442.06s(cpu)
        *  Thank you very much for using Q-Chem.  Have a nice day.  *
