 Q-Chem 5.0, Q-Chem, Inc., Pleasanton, CA (2017)
 Q-Chem 5.0.0 for Intel X86 EM64T Linux

User input:
--------------------------------------------------------------
$molecule
0  1
C    0.469  -2.369   0.246
C   -0.100  -2.666   1.497
C    0.820  -0.970  -0.128
C   -0.250  -1.617   2.525
O    1.710  -0.973  -1.154
O    0.353   0.027   0.395
O    0.994  -1.244   2.918
O   -1.315  -1.271   3.005
C    0.990  -0.231   3.923
C    2.104   0.331  -1.586
C    0.633  -3.406  -0.690
C    0.237  -4.708  -0.384
C   -0.335  -4.993   0.854
C   -0.510  -3.982   1.810
H    0.475   0.666   3.564
H    1.246   0.871  -1.997
H   -0.645  -6.015   1.070
H    0.524  -0.605   4.840
H    2.028   0.031   4.144
H    2.851   0.214  -2.376
H    2.557   0.890  -0.761
H    0.365  -5.501  -1.118
H    1.053  -3.209  -1.674
C   -1.128  -4.326   3.139
H   -2.093  -3.824   3.253
H   -0.462  -4.036   3.958
H   -1.304  -5.403   3.231
$end

$opt
CONSTRAINT
tors    2    1    3    5    158.6
tors    1    2    4    7    -72.3
ENDCONSTRAINT
$end

$rem
JOBTYPE                   OPT
METHOD                    B3LYP
DFT_D                     D3_OP
BASIS                     STO-3G
GEOM_OPT_MAX_CYCLES       500
SYMMETRY                  False
THRESH                    12
SCF_CONVERGENCE           8
MAX_SUB_FILE_NUM          128
MEM_STATIC                400
MEM_TOTAL                 4000
$end

--------------------------------------------------------------

   15    -717.9257267684      8.11E-09 Convergence criterion met
 Total energy in the final basis set = -717.9257267684
   14    -717.9515453592      4.96E-09 Convergence criterion met
 Total energy in the final basis set = -717.9515453592
   14    -717.9540883750      1.98E-09 Convergence criterion met
 Total energy in the final basis set = -717.9540883750
   12    -717.9543333472      6.10E-09 Convergence criterion met
 Total energy in the final basis set = -717.9543333472
   11    -717.9543552907      4.76E-09 Convergence criterion met
 Total energy in the final basis set = -717.9543552907
   11    -717.9543679073      2.62E-09 Convergence criterion met
 Total energy in the final basis set = -717.9543679073
   11    -717.9543780184      2.60E-09 Convergence criterion met
 Total energy in the final basis set = -717.9543780184
   10    -717.9543910000      8.59E-09 Convergence criterion met
 **  OPTIMIZATION CONVERGED  **
 Total job time:  32.68s(wall), 762.39s(cpu)
        *  Thank you very much for using Q-Chem.  Have a nice day.  *

User input: 2 of 3

nid01132 10.128.4
Q-Chem Developer Version! Running on 10.128.4.*
                  Welcome to Q-Chem
     A Quantum Leap Into The Future Of Chemistry

 Q-Chem 5.0, Q-Chem, Inc., Pleasanton, CA (2017)

 Yihan Shao,  Zhengting Gan,  E. Epifanovsky,  A. T. B. Gilbert,  M. Wormit,
 J. Kussmann,  A. W. Lange,  A. Behn,  Jia Deng,  Xintian Feng,  D. Ghosh,
 M. Goldey,  P. R. Horn,  L. D. Jacobson,  I. Kaliman,  T. Kus,  A. Landau,
 Jie Liu,  E. I. Proynov,  R. M. Richard,  R. P. Steele,  E. J. Sundstrom,
 H. L. Woodcock III,  P. M. Zimmerman,  D. Zuev,  B. Albrecht,  E. Alguire,
 S. A. Baeppler,  Z. Benda,  Y. A. Bernard,  E. J. Berquist,  K. B. Bravaya,
 D. Casanova,  Chun-Min Chang,  Yunqing Chen,  A. Chien,  K. D. Closser,
 M. P. Coons,  S. Dasgupta,  M. Diedenhofen,  Hainam Do,  R. G. Edgar,
 Po-Tung Fang,  S. Fatehi,  Qingguo Feng,  Qinghui Ge,  A. Ghysels,
 J. Gomes,  J. Gonthier,  A. Gunina,  M. W. D. Hanson-Heine,
 P. H. P. Harbach,  A. W. Hauser,  J. E. Herr,  E. G. Hohenstein,
 Z. C. Holden,  Kerwin Hui,  T.-C. Jagau,  Hyunjun Ji,  B. Kaduk,
 K. Khistyaev,  Jaehoon Kim,  P. Klunzinger,  K. Koh,  D. Kosenkov,
 T. Kowalczyk,  C. M. Krauter,  A. Kunitsa,  Ka Un Lao,  A. Laurent,
 K. V. Lawler,  Joonho Lee,  D. Lefrancois,  S. Lehtola,  D. S. Levine,
 Yi-Pei Li,  You-Sheng Lin,  Fenglai Liu,  E. Livshits,  A. Luenser,
 P. Manohar,  E. Mansoor,  S. F. Manzer,  Shan-Ping Mao,  Yuezhi Mao,
 N. Mardirossian,  A. V. Marenich,  L. A. Martinez-Martinez,  S. A. Maurer,
 N. J. Mayhall,  S. C. McKenzie,  J.-M. Mewes,  A. F. Morrison,  K. Nanda,
 T. S. Nguyen-Beck,  R. Olivares-Amaya,  J. A. Parkhill,  T. M. Perrine,
 F. Plasser,  S. Prager,  A. Prociuk,  D. R. Rehn,  F. Rob,  M. Schneider,
 N. Sergueev,  S. M. Sharada,  S. Sharma,  D. W. Small,  T. Stauch,
 T. Stein,  Yu-Chuan Su,  A. J. W. Thom,  T. Tsuchimochi,  L. Vogt,
 O. Vydrov,  M. A. Watson,  J. Wenzel,  M. de Wergifosse,  T. A. Wesolowski,
 A. White,  J. Witte,  A. Yamada,  Jun Yang,  K. Yao,  S. Yeganeh,
 S. R. Yost,  Zhi-Qiang You,  A. Zech,  Igor Ying Zhang,  Xing Zhang,
 Yan Zhao,  Ying Zhu,  B. R. Brooks,  G. K. L. Chan,  C. J. Cramer,
 M. S. Gordon,  W. J. Hehre,  A. Klamt,  M. W. Schmidt,  C. D. Sherrill,
 D. G. Truhlar,  A. Aspuru-Guzik,  R. Baer,  A. T. Bell,  N. A. Besley,
 Jeng-Da Chai,  A. Dreuw,  B. D. Dunietz,  T. R. Furlani,  Chao-Ping Hsu,
 Yousung Jung,  Jing Kong,  D. S. Lambrecht,  WanZhen Liang,  C. Ochsenfeld,
 V. A. Rassolov,  L. V. Slipchenko,  J. E. Subotnik,  T. Van Voorhis,
 J. M. Herbert,  A. I. Krylov,  P. M. W. Gill,  M. Head-Gordon

 Contributors to earlier versions of Q-Chem not listed above:
 R. D. Adamson,  B. Austin,  J. Baker,  G. J. O. Beran,  K. Brandhorst,
 S. T. Brown,  E. F. C. Byrd,  A. K. Chakraborty,  C.-L. Cheng,
 Siu Hung Chien,  D. M. Chipman,  D. L. Crittenden,  H. Dachsel,
 R. A. DiStasio Jr.,  R. J. Doerksen,  A. D. Dutoi,  L. Fusti-Molnar,
 W. A. Goddard III,  A. Golubeva-Zadorozhnaya,  S. R. Gwaltney,  G. Hawkins,
 A. Heyden,  S. Hirata,  G. Kedziora,  F. J. Keil,  C. Kelley,  Jihan Kim,
 R. A. King,  R. Z. Khaliullin,  P. P. Korambath,  W. Kurlancheek,
 A. M. Lee,  M. S. Lee,  S. V. Levchenko,  Ching Yeh Lin,  D. Liotard,
 R. C. Lochan,  I. Lotan,  P. E. Maslen,  N. Nair,  D. P. O'Neill,
 D. Neuhauser,  E. Neuscamman,  C. M. Oana,  R. Olson,  B. Peters,
 R. Peverati,  P. A. Pieniazek,  Y. M. Rhee,  J. Ritchie,  M. A. Rohrdanz,
 E. Rosta,  N. J. Russ,  H. F. Schaefer III,  N. E. Schultz,  N. Shenvi,
 A. C. Simmonett,  A. Sodt,  D. Stuck,  K. S. Thanthiriwatte,  V. Vanovschi,
 Tao Wang,  A. Warshel,  C. F. Williams,  Q. Wu,  X. Xu,  W. Zhang

 Please cite Q-Chem as follows:
 Y. Shao et al., Mol. Phys. 113, 184-215 (2015)
 DOI: 10.1080/00268976.2014.952696

 Q-Chem 5.0.0 for Intel X86 EM64T Linux

 Parts of Q-Chem use Armadillo 5.200.1 (Boston Tea Smuggler).
 http://arma.sourceforge.net/

 Q-Chem begins on Wed Oct  4 18:05:00 2017

Host: nid01132
0

     Scratch files written to /global/cscratch1/sd/junteng/scratch/17/opt_11n01--.save//
The previous job contains 0 fragments, simply inherited here

Checking the input file for inconsistencies... 	...done.

--------------------------------------------------------------
User input:
--------------------------------------------------------------

$molecule
   read
$end

$rem
JOBTYPE                   OPT
METHOD                    B3LYP
DFT_D                     D3_OP
BASIS                     6-311++G(d,p)
GEOM_OPT_MAX_CYCLES       500
GEOM_OPT_TOL_GRADIENT     1
GEOM_OPT_TOL_DISPLACEMENT 1
GEOM_OPT_TOL_ENERGY       1
SYMMETRY                  False
THRESH                    12
SCF_CONVERGENCE           8
MAX_SUB_FILE_NUM          128
MEM_STATIC                400
MEM_TOTAL                 4000
$end

--------------------------------------------------------------

    9    -727.5472191847      7.62E-09 Convergence criterion met
 Total energy in the final basis set = -727.5472191847
    9    -727.5472190840      3.82E-09 Convergence criterion met
 Total energy in the final basis set = -727.5472190840
    8    -727.5472192088      3.36E-09 Convergence criterion met
 Total energy in the final basis set = -727.5472192088
    7    -727.5472191840      3.71E-09 Convergence criterion met
 Total energy in the final basis set = -727.5472191840
    6    -727.5472192052      6.75E-09 Convergence criterion met
 Total energy in the final basis set = -727.5472192052
    4    -727.5472192056      5.73E-09 Convergence criterion met
 Total energy in the final basis set = -727.5472192056
 Final energy is   -727.547219205557
        *  Thank you very much for using Q-Chem.  Have a nice day.  *
 Q-Chem 5.0, Q-Chem, Inc., Pleasanton, CA (2017)
 Q-Chem 5.0.0 for Intel X86 EM64T Linux

             Standard Nuclear Orientation (Angstroms)
    I     Atom           X                Y                Z
 ----------------------------------------------------------------
    1      C       0.4983650250    -0.8465369708    -0.0060161294
    2      C      -0.7730993170    -0.2535585789    -0.0880527120
    3      C       1.7193981441    -0.0022535341    -0.1489809635
    4      C      -0.9436291659     1.2289881052    -0.2813588299
    5      O       2.8500786522    -0.6921116620     0.1120839410
    6      O       1.7206455702     1.1634650453    -0.4729720406
    7      O      -0.7237068306     1.8939738055     0.8650794867
    8      O      -1.3109685424     1.7389582099    -1.3099295934
    9      C      -0.7407341494     3.3306224757     0.7652315432
   10      C       4.0809891076     0.0369061173    -0.0354944027
   11      C       0.6085985936    -2.2318466575     0.1649884073
   12      C      -0.5342377201    -3.0150508401     0.2534985379
   13      C      -1.7902857830    -2.4211684828     0.1666123704
   14      C      -1.9332621933    -1.0421202407    -0.0091981859
   15      H       0.0490806710     3.6573563347     0.0873835044
   16      H       4.1852525104     0.4059162632    -1.0568552352
   17      H      -2.6812130932    -3.0367329003     0.2345623820
   18      H      -1.7067468072     3.6800048916     0.3982550623
   19      H      -0.5569522316     3.6929040806     1.7741998852
   20      H       4.8679233940    -0.6769865211     0.1975264894
   21      H       4.1096100287     0.8800594273     0.6561745875
   22      H      -0.4490145439    -4.0874181495     0.3869835850
   23      H       1.5902944436    -2.6806374564     0.2216059336
   24      C      -3.3089230671    -0.4286944869    -0.1169540066
   25      H      -3.4815582158    -0.0332579316    -1.1211256526
   26      H      -3.4340154817     0.4026131186     0.5825754157
   27      H      -4.0801283159    -1.1698257839     0.0989659193
 ----------------------------------------------------------------

   15    -727.5472249582      5.82E-09 Convergence criterion met
 Total energy in the final basis set = -727.5472249582

                    Orbital Energies (a.u.)
 --------------------------------------------------------------

 Alpha MOs
 -- Occupied --
-19.178 -19.168 -19.120 -19.112 -10.312 -10.306 -10.233 -10.222
-10.207 -10.207 -10.204 -10.192 -10.192 -10.191 -10.174  -1.120
 -1.110  -1.031  -1.024  -0.885  -0.801  -0.790  -0.747  -0.726
 -0.700  -0.653  -0.624  -0.580  -0.571  -0.543  -0.519  -0.501
 -0.495  -0.490  -0.479  -0.477  -0.462  -0.444  -0.434  -0.429
 -0.423  -0.416  -0.403  -0.393  -0.381  -0.371  -0.369  -0.366
 -0.357  -0.321  -0.307  -0.293  -0.290  -0.271  -0.261

          Ground-State Mulliken Net Atomic Charges

     Atom                 Charge (a.u.)
  ----------------------------------------
      1 C                     0.104845
      2 C                     0.761820
      3 C                    -0.052909
      4 C                    -0.926680
      5 O                    -0.103099
      6 O                    -0.226186
      7 O                     0.079477
      8 O                    -0.136865
      9 C                    -0.217798
     10 C                    -0.214042
     11 C                    -0.363378
     12 C                    -0.074693
     13 C                    -0.626636
     14 C                     0.461056
     15 H                     0.191861
     16 H                     0.187235
     17 H                     0.118556
     18 H                     0.161445
     19 H                     0.150288
     20 H                     0.154089
     21 H                     0.178158
     22 H                     0.183325
     23 H                     0.184691
     24 C                    -0.503053
     25 H                     0.193845
     26 H                     0.173010
     27 H                     0.161640
  ----------------------------------------
  Sum of atomic charges =     0.000000

                    Cartesian Multipole Moments
 -----------------------------------------------------------------
    Charge (ESU x 10^10)
                 0.0000
    Dipole Moment (Debye)
         X       0.7631      Y      -1.7121      Z       2.0251
       Tot       2.7595
    Quadrupole Moments (Debye-Ang)
        XX     -72.4210     XY       1.4794     YY     -79.2085
        XZ      -2.2229     YZ       5.4793     ZZ     -94.0260

 Frequency:        16.81                  63.44                  78.30
 Force Cnst:      0.0008                 0.0084                 0.0109
 Red. Mass:       4.8634                 3.5559                 3.0242
 IR Intens:        0.983                  1.144                  2.668
 Frequency:        93.60                 111.07                 120.52
 Force Cnst:      0.0097                 0.0114                 0.0130
 Red. Mass:       1.8711                 1.5743                 1.5205
 IR Intens:        1.212                  2.445                  0.046
 Frequency:       136.45                 142.07                 158.81
 Force Cnst:      0.0218                 0.0148                 0.0548
 Red. Mass:       1.9909                 1.2442                 3.6849
 IR Intens:        0.983                  1.058                  1.706
 Frequency:       184.11                 217.06                 238.75
 Force Cnst:      0.0920                 0.0958                 0.1706
 Red. Mass:       4.6065                 3.4501                 5.0800
 IR Intens:        0.034                  3.285                  4.031
 Frequency:       280.89                 298.33                 316.00
 Force Cnst:      0.2233                 0.2270                 0.3274
 Red. Mass:       4.8026                 4.3300                 5.5643
 IR Intens:        3.327                 10.200                  5.840
 Frequency:       354.41                 383.46                 431.71
 Force Cnst:      0.3113                 0.4801                 0.5092
 Red. Mass:       4.2061                 5.5413                 4.6374
 IR Intens:       15.905                  8.063                  1.220
 Frequency:       486.44                 507.46                 565.01
 Force Cnst:      0.5995                 0.6855                 0.8500
 Red. Mass:       4.3001                 4.5182                 4.5193
 IR Intens:        3.848                  2.703                  0.528
 Frequency:       591.11                 710.26                 733.14
 Force Cnst:      1.0145                 1.9165                 2.0525
 Red. Mass:       4.9279                 6.4479                 6.4813
 IR Intens:        5.661                  8.227                  3.411
 Frequency:       760.49                 781.93                 798.36
 Force Cnst:      1.2337                 0.7525                 2.0680
 Red. Mass:       3.6206                 2.0888                 5.5069
 IR Intens:       47.569                 40.321                  5.930
 Frequency:       829.53                 840.81                 895.00
 Force Cnst:      1.2810                 2.1223                 2.2978
 Red. Mass:       3.1596                 5.0953                 4.8688
 IR Intens:        0.988                  4.389                 12.610
 Frequency:       937.45                 977.53                 998.42
 Force Cnst:      0.7094                 3.5088                 0.7921
 Red. Mass:       1.3701                 6.2323                 1.3487
 IR Intens:        0.102                  9.493                  0.193
 Frequency:      1003.87                1043.84                1062.75
 Force Cnst:      1.4690                 1.7899                 1.0261
 Red. Mass:       2.4741                 2.7881                 1.5420
 IR Intens:        6.876                 22.210                  2.115
 Frequency:      1095.78                1138.55                1169.46
 Force Cnst:      2.3008                 1.7714                 1.0384
 Red. Mass:       3.2522                 2.3193                 1.2887
 IR Intens:       93.993                 83.938                  0.774
 Frequency:      1172.76                1173.50                1198.10
 Force Cnst:      1.0385                 1.9148                 1.1098
 Red. Mass:       1.2815                 2.3600                 1.3122
 IR Intens:        1.248                126.771                  1.973
 Frequency:      1210.82                1216.89                1268.55
 Force Cnst:      1.3667                 1.7134                 1.8507
 Red. Mass:       1.5822                 1.9638                 1.9519
 IR Intens:       28.675                130.558                 67.321
 Frequency:      1286.50                1295.25                1326.54
 Force Cnst:      5.8245                 3.5462                 7.7052
 Red. Mass:       5.9730                 3.5876                 7.4318
 IR Intens:      292.171                348.714                 16.781
 Frequency:      1418.16                1459.83                1468.75
 Force Cnst:      1.4633                 1.8587                 1.5560
 Red. Mass:       1.2349                 1.4803                 1.2242
 IR Intens:        4.300                 10.119                  9.508
 Frequency:      1474.20                1481.36                1482.29
 Force Cnst:      1.8692                 1.3614                 1.3527
 Red. Mass:       1.4598                 1.0530                 1.0449
 IR Intens:       57.259                  9.288                 10.668
 Frequency:      1488.46                1489.16                1495.26
 Force Cnst:      1.6558                 2.4486                 1.3802
 Red. Mass:       1.2685                 1.8740                 1.0478
 IR Intens:        9.568                  4.361                  7.433
 Frequency:      1497.68                1507.45                1616.24
 Force Cnst:      1.3923                 1.7514                10.3592
 Red. Mass:       1.0535                 1.3081                 6.7308
 IR Intens:       10.500                  3.292                  9.895
 Frequency:      1629.90                1766.28                1787.35
 Force Cnst:      9.0147                21.5697                22.3046
 Red. Mass:       5.7594                11.7348                11.8502
 IR Intens:        9.915                249.871                272.438
 Frequency:      3035.18                3050.14                3050.56
 Force Cnst:      5.6253                 5.6435                 5.6432
 Red. Mass:       1.0364                 1.0296                 1.0292
 IR Intens:       18.037                 33.250                 40.241
 Frequency:      3090.47                3111.75                3123.14
 Force Cnst:      6.1899                 6.2889                 6.3620
 Red. Mass:       1.1000                 1.1023                 1.1070
 IR Intens:        8.589                 15.309                 17.424
 Frequency:      3126.34                3156.36                3157.25
 Force Cnst:      6.3762                 6.4932                 6.4982
 Red. Mass:       1.1072                 1.1062                 1.1064
 IR Intens:       13.557                 14.205                 13.899
 Frequency:      3165.22                3184.65                3220.97
 Force Cnst:      6.4222                 6.5341                 6.6799
 Red. Mass:       1.0880                 1.0935                 1.0928
 IR Intens:        7.050                 15.413                  2.061

 STANDARD THERMODYNAMIC QUANTITIES AT   298.15 K  AND     1.00 ATM

   This Molecule has  0 Imaginary Frequencies
   Zero point vibrational energy:      133.288 kcal/mol

   Atom    1 Element C  Has Mass   12.00000
   Atom    2 Element C  Has Mass   12.00000
   Atom    3 Element C  Has Mass   12.00000
   Atom    4 Element C  Has Mass   12.00000
   Atom    5 Element O  Has Mass   15.99491
   Atom    6 Element O  Has Mass   15.99491
   Atom    7 Element O  Has Mass   15.99491
   Atom    8 Element O  Has Mass   15.99491
   Atom    9 Element C  Has Mass   12.00000
   Atom   10 Element C  Has Mass   12.00000
   Atom   11 Element C  Has Mass   12.00000
   Atom   12 Element C  Has Mass   12.00000
   Atom   13 Element C  Has Mass   12.00000
   Atom   14 Element C  Has Mass   12.00000
   Atom   15 Element H  Has Mass    1.00783
   Atom   16 Element H  Has Mass    1.00783
   Atom   17 Element H  Has Mass    1.00783
   Atom   18 Element H  Has Mass    1.00783
   Atom   19 Element H  Has Mass    1.00783
   Atom   20 Element H  Has Mass    1.00783
   Atom   21 Element H  Has Mass    1.00783
   Atom   22 Element H  Has Mass    1.00783
   Atom   23 Element H  Has Mass    1.00783
   Atom   24 Element C  Has Mass   12.00000
   Atom   25 Element H  Has Mass    1.00783
   Atom   26 Element H  Has Mass    1.00783
   Atom   27 Element H  Has Mass    1.00783
   Molecular Mass:   208.073600 amu
   Principal axes and moments of inertia in amu*Bohr^2:
                             1           2           3
    Eigenvalues --     2454.02916  3110.62362  5137.05025
          X               0.99986     0.01657    -0.00180
          Y              -0.01655     0.99981     0.00983
          Z               0.00197    -0.00979     0.99995
   Rotational Symmetry Number is   1
   The Molecule is an Asymmetric Top
   Translational Enthalpy:        0.889 kcal/mol
   Rotational Enthalpy:           0.889 kcal/mol
   Vibrational Enthalpy:        141.063 kcal/mol
   gas constant (RT):             0.592 kcal/mol
   Translational Entropy:        41.902  cal/mol.K
   Rotational Entropy:           32.039  cal/mol.K
   Vibrational Entropy:          52.033  cal/mol.K

   Total Enthalpy:              143.433 kcal/mol
   Total Entropy:               125.974  cal/mol.K

 Total job time:  5906.96s(wall), 31278.81s(cpu)
        *  Thank you very much for using Q-Chem.  Have a nice day.  *
