 Q-Chem 5.0, Q-Chem, Inc., Pleasanton, CA (2017)
 Q-Chem 5.0.0 for Intel X86 EM64T Linux

User input:
--------------------------------------------------------------
$molecule
0  1
C          1.00100        0.54800       -0.44700
C         -0.58500        0.51700       -0.66900
C          1.58400       -0.68200        0.24700
C         -1.28900       -0.63000        0.05700
O          2.92935       -0.72311        0.09292
O          0.96847       -1.45282        0.94928
O         -0.90757       -1.82877       -0.44459
O         -2.14693       -0.53696        0.90949
C         -1.58236       -2.96656        0.11675
C          3.56634       -1.88974        0.63077
C          1.18700        1.83900        0.44000
C          0.50800        1.60700        1.78200
C         -0.81400        1.63700        1.57600
C         -1.03300        1.85800        0.08600
C          0.15900        2.78600       -0.22000
C          1.82300        0.68400       -1.75400
C         -1.01500        0.54200       -2.14600
H         -1.41709       -3.01541        1.19792
H          3.20214       -2.78088        0.11220
H         -1.59700        1.39300        2.28600
H         -1.15075       -3.83660       -0.37899
H         -2.65818       -2.90554       -0.07057
H          4.63450       -1.75171        0.45310
H          3.36394       -1.98548        1.70092
H         -2.02900        2.18500       -0.22000
H          2.22700        2.16700        0.48200
H         -0.57700        1.39100       -2.67500
H         -0.70800       -0.37300       -2.66300
H         -2.10200        0.62100       -2.22000
H          2.89100        0.67000       -1.50700
H          1.63100       -0.14300       -2.43900
H          1.62100        1.62400       -2.27400
H          0.08000        3.74500        0.29900
H          0.32400        2.97000       -1.28600
H          1.03300        1.34000        2.69000
$end

$opt
CONSTRAINT
tors    1    2    4    8    119.3
tors    2    1    3    6    -21.9
ENDCONSTRAINT
$end

$rem
JOBTYPE                   OPT
METHOD                    B3LYP
DFT_D                     D3_OP
BASIS                     STO-3G
GEOM_OPT_MAX_CYCLES       500
SYMMETRY                  False
THRESH                    12
SCF_CONVERGENCE           8
MAX_SUB_FILE_NUM          128
MEM_STATIC                400
MEM_TOTAL                 4000
$end

--------------------------------------------------------------

   15    -796.8200620363      2.92E-09 Convergence criterion met
 Total energy in the final basis set = -796.8200620363
   13    -796.8483579144      9.44E-09 Convergence criterion met
 Total energy in the final basis set = -796.8483579144
   14    -796.8551264113      4.10E-09 Convergence criterion met
 Total energy in the final basis set = -796.8551264113
   13    -796.8574383875      2.81E-09 Convergence criterion met
 Total energy in the final basis set = -796.8574383875
   13    -796.8580384057      2.12E-09 Convergence criterion met
 Total energy in the final basis set = -796.8580384057
   12    -796.8582837574      6.25E-09 Convergence criterion met
 Total energy in the final basis set = -796.8582837574
   11    -796.8583383683      5.41E-09 Convergence criterion met
 Total energy in the final basis set = -796.8583383683
   11    -796.8583598335      3.24E-09 Convergence criterion met
 **  OPTIMIZATION CONVERGED  **
 Total job time:  64.32s(wall), 1519.15s(cpu)
        *  Thank you very much for using Q-Chem.  Have a nice day.  *

User input: 2 of 3

nid00339 10.128.1
Q-Chem Developer Version! Running on 10.128.1.*
                  Welcome to Q-Chem
     A Quantum Leap Into The Future Of Chemistry

 Q-Chem 5.0, Q-Chem, Inc., Pleasanton, CA (2017)

 Yihan Shao,  Zhengting Gan,  E. Epifanovsky,  A. T. B. Gilbert,  M. Wormit,
 J. Kussmann,  A. W. Lange,  A. Behn,  Jia Deng,  Xintian Feng,  D. Ghosh,
 M. Goldey,  P. R. Horn,  L. D. Jacobson,  I. Kaliman,  T. Kus,  A. Landau,
 Jie Liu,  E. I. Proynov,  R. M. Richard,  R. P. Steele,  E. J. Sundstrom,
 H. L. Woodcock III,  P. M. Zimmerman,  D. Zuev,  B. Albrecht,  E. Alguire,
 S. A. Baeppler,  Z. Benda,  Y. A. Bernard,  E. J. Berquist,  K. B. Bravaya,
 D. Casanova,  Chun-Min Chang,  Yunqing Chen,  A. Chien,  K. D. Closser,
 M. P. Coons,  S. Dasgupta,  M. Diedenhofen,  Hainam Do,  R. G. Edgar,
 Po-Tung Fang,  S. Fatehi,  Qingguo Feng,  Qinghui Ge,  A. Ghysels,
 J. Gomes,  J. Gonthier,  A. Gunina,  M. W. D. Hanson-Heine,
 P. H. P. Harbach,  A. W. Hauser,  J. E. Herr,  E. G. Hohenstein,
 Z. C. Holden,  Kerwin Hui,  T.-C. Jagau,  Hyunjun Ji,  B. Kaduk,
 K. Khistyaev,  Jaehoon Kim,  P. Klunzinger,  K. Koh,  D. Kosenkov,
 T. Kowalczyk,  C. M. Krauter,  A. Kunitsa,  Ka Un Lao,  A. Laurent,
 K. V. Lawler,  Joonho Lee,  D. Lefrancois,  S. Lehtola,  D. S. Levine,
 Yi-Pei Li,  You-Sheng Lin,  Fenglai Liu,  E. Livshits,  A. Luenser,
 P. Manohar,  E. Mansoor,  S. F. Manzer,  Shan-Ping Mao,  Yuezhi Mao,
 N. Mardirossian,  A. V. Marenich,  L. A. Martinez-Martinez,  S. A. Maurer,
 N. J. Mayhall,  S. C. McKenzie,  J.-M. Mewes,  A. F. Morrison,  K. Nanda,
 T. S. Nguyen-Beck,  R. Olivares-Amaya,  J. A. Parkhill,  T. M. Perrine,
 F. Plasser,  S. Prager,  A. Prociuk,  D. R. Rehn,  F. Rob,  M. Schneider,
 N. Sergueev,  S. M. Sharada,  S. Sharma,  D. W. Small,  T. Stauch,
 T. Stein,  Yu-Chuan Su,  A. J. W. Thom,  T. Tsuchimochi,  L. Vogt,
 O. Vydrov,  M. A. Watson,  J. Wenzel,  M. de Wergifosse,  T. A. Wesolowski,
 A. White,  J. Witte,  A. Yamada,  Jun Yang,  K. Yao,  S. Yeganeh,
 S. R. Yost,  Zhi-Qiang You,  A. Zech,  Igor Ying Zhang,  Xing Zhang,
 Yan Zhao,  Ying Zhu,  B. R. Brooks,  G. K. L. Chan,  C. J. Cramer,
 M. S. Gordon,  W. J. Hehre,  A. Klamt,  M. W. Schmidt,  C. D. Sherrill,
 D. G. Truhlar,  A. Aspuru-Guzik,  R. Baer,  A. T. Bell,  N. A. Besley,
 Jeng-Da Chai,  A. Dreuw,  B. D. Dunietz,  T. R. Furlani,  Chao-Ping Hsu,
 Yousung Jung,  Jing Kong,  D. S. Lambrecht,  WanZhen Liang,  C. Ochsenfeld,
 V. A. Rassolov,  L. V. Slipchenko,  J. E. Subotnik,  T. Van Voorhis,
 J. M. Herbert,  A. I. Krylov,  P. M. W. Gill,  M. Head-Gordon

 Contributors to earlier versions of Q-Chem not listed above:
 R. D. Adamson,  B. Austin,  J. Baker,  G. J. O. Beran,  K. Brandhorst,
 S. T. Brown,  E. F. C. Byrd,  A. K. Chakraborty,  C.-L. Cheng,
 Siu Hung Chien,  D. M. Chipman,  D. L. Crittenden,  H. Dachsel,
 R. A. DiStasio Jr.,  R. J. Doerksen,  A. D. Dutoi,  L. Fusti-Molnar,
 W. A. Goddard III,  A. Golubeva-Zadorozhnaya,  S. R. Gwaltney,  G. Hawkins,
 A. Heyden,  S. Hirata,  G. Kedziora,  F. J. Keil,  C. Kelley,  Jihan Kim,
 R. A. King,  R. Z. Khaliullin,  P. P. Korambath,  W. Kurlancheek,
 A. M. Lee,  M. S. Lee,  S. V. Levchenko,  Ching Yeh Lin,  D. Liotard,
 R. C. Lochan,  I. Lotan,  P. E. Maslen,  N. Nair,  D. P. O'Neill,
 D. Neuhauser,  E. Neuscamman,  C. M. Oana,  R. Olson,  B. Peters,
 R. Peverati,  P. A. Pieniazek,  Y. M. Rhee,  J. Ritchie,  M. A. Rohrdanz,
 E. Rosta,  N. J. Russ,  H. F. Schaefer III,  N. E. Schultz,  N. Shenvi,
 A. C. Simmonett,  A. Sodt,  D. Stuck,  K. S. Thanthiriwatte,  V. Vanovschi,
 Tao Wang,  A. Warshel,  C. F. Williams,  Q. Wu,  X. Xu,  W. Zhang

 Please cite Q-Chem as follows:
 Y. Shao et al., Mol. Phys. 113, 184-215 (2015)
 DOI: 10.1080/00268976.2014.952696

 Q-Chem 5.0.0 for Intel X86 EM64T Linux

 Parts of Q-Chem use Armadillo 5.200.1 (Boston Tea Smuggler).
 http://arma.sourceforge.net/

 Q-Chem begins on Wed Oct 18 12:23:31 2017

Host: nid00339
0

     Scratch files written to /global/cscratch1/sd/junteng/scratch/17/opt_11d11.save//
The previous job contains 0 fragments, simply inherited here

Checking the input file for inconsistencies... 	...done.

--------------------------------------------------------------
User input:
--------------------------------------------------------------

$molecule
   read
$end

$rem
JOBTYPE                   OPT
METHOD                    B3LYP
DFT_D                     D3_OP
BASIS                     6-311++G(d,p)
GEOM_OPT_MAX_CYCLES       500
GEOM_OPT_TOL_GRADIENT     1
GEOM_OPT_TOL_DISPLACEMENT 1
GEOM_OPT_TOL_ENERGY       1
SYMMETRY                  False
THRESH                    12
SCF_CONVERGENCE           8
MAX_SUB_FILE_NUM          128
MEM_STATIC                400
MEM_TOTAL                 4000
$end

--------------------------------------------------------------

    7    -807.3616859841      6.15E-09 Convergence criterion met
 Total energy in the final basis set = -807.3616859841
    7    -807.3616859633      6.89E-09 Convergence criterion met
 Total energy in the final basis set = -807.3616859633
    7    -807.3616859937      7.81E-09 Convergence criterion met
 Total energy in the final basis set = -807.3616859937
    7    -807.3616859479      8.92E-09 Convergence criterion met
 Total energy in the final basis set = -807.3616859479
    6    -807.3616859798      8.59E-09 Convergence criterion met
 Total energy in the final basis set = -807.3616859798
    4    -807.3616859805      5.67E-09 Convergence criterion met
 Total energy in the final basis set = -807.3616859805
 Final energy is   -807.361685980538
        *  Thank you very much for using Q-Chem.  Have a nice day.  *
 Q-Chem 5.0, Q-Chem, Inc., Pleasanton, CA (2017)
 Q-Chem 5.0.0 for Intel X86 EM64T Linux

             Standard Nuclear Orientation (Angstroms)
    I     Atom           X                Y                Z
 ----------------------------------------------------------------
    1      C      -0.6306095031     0.3964333458     0.6866025872
    2      C       0.9088402189     0.7087715755     0.3798696106
    3      C      -1.1571804844    -0.8854591878     0.0371839222
    4      C       1.6927780858    -0.4217069345    -0.2917075017
    5      O      -2.4615416716    -1.0701337032     0.3535564700
    6      O      -0.5710498756    -1.6228268934    -0.7150951445
    7      O       1.8631759677    -1.4617284951     0.5520312925
    8      O       2.2014270350    -0.3618578127    -1.3835515995
    9      C       2.4862485535    -2.6254949729    -0.0161616369
   10      C      -3.1160622853    -2.1757315183    -0.2926938077
   11      C      -1.3561365817     1.6087898602    -0.0688729359
   12      C      -1.1846275095     1.3632399819    -1.5595565168
   13      C       0.1045785331     1.5611984575    -1.8488132655
   14      C       0.8059531310     1.9712639765    -0.5640875217
   15      C      -0.3385518534     2.7457722818     0.1300786372
   16      C      -0.9897195376     0.3911132615     2.1827053390
   17      C       1.7403361222     1.0772879788     1.6351840995
   18      H       1.8651601652    -3.0127916062    -0.8253146498
   19      H      -2.6387824758    -3.1179667702    -0.0195615153
   20      H       0.6086328932     1.3655259839    -2.7831185300
   21      H       2.5538355270    -3.3467491782     0.7957690974
   22      H       3.4783625980    -2.3838589901    -0.4001498914
   23      H      -4.1442858365    -2.1502676716     0.0620211379
   24      H      -3.0803551272    -2.0585453772    -1.3771887005
   25      H       1.7618954707     2.4782494245    -0.6882915805
   26      H      -2.3731700849     1.7628475102     0.2879367856
   27      H       1.3696294789     1.9776188513     2.1233432008
   28      H       1.7538751315     0.2663510452     2.3616368878
   29      H       2.7730614822     1.2702222287     1.3322144325
   30      H      -2.0648197163     0.2656798945     2.3062129617
   31      H      -0.4901872554    -0.4259107360     2.7083154181
   32      H      -0.7002457157     1.3265171343     2.6612920416
   33      H      -0.6216426247     3.6465941052    -0.4166253196
   34      H      -0.1509748791     3.0050541065     1.1727030023
   35      H      -1.9511620138     0.9709366453    -2.2151089823
 ----------------------------------------------------------------

   15    -807.3615518201      3.39E-09 Convergence criterion met
 Total energy in the final basis set = -807.3615518201

                    Orbital Energies (a.u.)
 --------------------------------------------------------------

 Alpha MOs
 -- Occupied --
-19.173 -19.158 -19.117 -19.102 -10.305 -10.293 -10.231 -10.215
-10.213 -10.207 -10.190 -10.183 -10.173 -10.169 -10.169 -10.165
-10.164  -1.116  -1.100  -1.028  -1.014  -0.898  -0.804  -0.783
 -0.732  -0.722  -0.708  -0.687  -0.674  -0.609  -0.582  -0.567
 -0.548  -0.532  -0.529  -0.514  -0.493  -0.489  -0.477  -0.474
 -0.459  -0.453  -0.438  -0.433  -0.418  -0.410  -0.405  -0.398
 -0.393  -0.386  -0.380  -0.371  -0.368  -0.357  -0.352  -0.349
 -0.339  -0.332  -0.317  -0.315  -0.298  -0.282  -0.269  -0.244

          Ground-State Mulliken Net Atomic Charges

     Atom                 Charge (a.u.)
  ----------------------------------------
      1 C                    -0.006173
      2 C                    -0.065439
      3 C                    -0.448914
      4 C                    -0.551665
      5 O                     0.036402
      6 O                    -0.162399
      7 O                     0.023644
      8 O                    -0.126098
      9 C                    -0.169641
     10 C                    -0.196158
     11 C                     0.422229
     12 C                    -0.424939
     13 C                    -0.409579
     14 C                     0.370169
     15 C                    -0.745189
     16 C                    -0.410480
     17 C                    -0.282056
     18 H                     0.191255
     19 H                     0.174027
     20 H                     0.176334
     21 H                     0.146570
     22 H                     0.169573
     23 H                     0.151567
     24 H                     0.172889
     25 H                     0.268969
     26 H                     0.266563
     27 H                     0.135092
     28 H                     0.166200
     29 H                     0.185628
     30 H                     0.185733
     31 H                     0.190168
     32 H                     0.130682
     33 H                     0.190723
     34 H                     0.096075
     35 H                     0.148240
  ----------------------------------------
  Sum of atomic charges =     0.000000

                    Cartesian Multipole Moments
 -----------------------------------------------------------------
    Charge (ESU x 10^10)
                 0.0000
    Dipole Moment (Debye)
         X      -1.9525      Y      -0.2063      Z       2.2898
       Tot       3.0163
    Quadrupole Moments (Debye-Ang)
        XX     -96.5432     XY       2.5112     YY     -95.5887
        XZ       5.0709     YZ       0.4675     ZZ    -105.1451

 Frequency:       -37.86                  72.13                  81.73
 Force Cnst:      0.0027                 0.0092                 0.0047
 Red. Mass:       3.2471                 2.9867                 1.2060
 IR Intens:        0.601                  0.289                  0.060
 Frequency:        85.83                 108.32                 114.04
 Force Cnst:      0.0080                 0.0171                 0.0199
 Red. Mass:       1.8425                 2.4722                 2.6000
 IR Intens:        1.599                  1.988                  0.208
 Frequency:       136.45                 148.85                 198.65
 Force Cnst:      0.0394                 0.0493                 0.1037
 Red. Mass:       3.5875                 3.7778                 4.4614
 IR Intens:        1.390                  1.243                  0.941
 Frequency:       228.15                 246.31                 258.69
 Force Cnst:      0.1259                 0.0396                 0.1492
 Red. Mass:       4.1064                 1.1080                 3.7849
 IR Intens:        6.253                  0.268                  6.094
 Frequency:       271.53                 272.83                 295.21
 Force Cnst:      0.1876                 0.1370                 0.0635
 Red. Mass:       4.3193                 3.1230                 1.2359
 IR Intens:        3.209                  4.125                  0.531
 Frequency:       310.34                 340.16                 349.33
 Force Cnst:      0.1922                 0.2131                 0.2447
 Red. Mass:       3.3867                 3.1264                 3.4031
 IR Intens:        1.232                  7.518                 11.611
 Frequency:       371.92                 373.49                 406.20
 Force Cnst:      0.4101                 0.2089                 0.3839
 Red. Mass:       5.0315                 2.5411                 3.9491
 IR Intens:        9.747                  3.404                  2.950
 Frequency:       429.97                 460.49                 495.34
 Force Cnst:      0.3444                 0.5180                 0.3953
 Red. Mass:       3.1618                 4.1461                 2.7346
 IR Intens:        0.593                  2.807                  4.072
 Frequency:       561.49                 622.46                 714.21
 Force Cnst:      0.5377                 0.7611                 0.8016
 Red. Mass:       2.8948                 3.3341                 2.6672
 IR Intens:        3.301                  4.720                 26.964
 Frequency:       736.36                 745.83                 765.38
 Force Cnst:      1.3205                 1.1245                 1.1677
 Red. Mass:       4.1333                 3.4310                 3.3832
 IR Intens:       12.414                 12.905                 10.183
 Frequency:       776.46                 805.99                 815.21
 Force Cnst:      1.7735                 1.5556                 1.9602
 Red. Mass:       4.9928                 4.0644                 5.0063
 IR Intens:        2.336                 10.833                  2.159
 Frequency:       853.98                 880.22                 888.23
 Force Cnst:      1.5743                 1.1744                 1.1085
 Red. Mass:       3.6639                 2.5726                 2.3847
 IR Intens:        1.204                 19.069                  6.169
 Frequency:       905.33                 923.33                 930.72
 Force Cnst:      1.3680                 1.0603                 1.1319
 Red. Mass:       2.8328                 2.1108                 2.2178
 IR Intens:       10.998                 10.027                  2.922
 Frequency:       958.54                 977.35                 988.94
 Force Cnst:      0.7675                 1.4672                 0.9123
 Red. Mass:       1.4178                 2.6069                 1.5833
 IR Intens:        2.986                  1.318                  1.845
 Frequency:      1004.73                1012.69                1034.71
 Force Cnst:      1.9078                 2.0349                 1.0815
 Red. Mass:       3.2076                 3.3678                 1.7145
 IR Intens:        1.613                 15.942                  2.913
 Frequency:      1063.57                1088.21                1105.01
 Force Cnst:      2.3496                 1.3481                 1.1043
 Red. Mass:       3.5254                 1.9322                 1.5350
 IR Intens:       12.390                 17.690                  4.420
 Frequency:      1128.59                1139.09                1143.22
 Force Cnst:      1.0931                 1.6549                 1.9318
 Red. Mass:       1.4566                 2.1648                 2.5087
 IR Intens:       27.637                145.703                197.946
 Frequency:      1158.18                1167.73                1171.47
 Force Cnst:      1.7789                 1.4582                 1.0975
 Red. Mass:       2.2509                 1.8151                 1.3574
 IR Intens:       54.937                 14.620                 12.086
 Frequency:      1171.55                1196.58                1207.52
 Force Cnst:      1.0416                 1.9323                 1.3273
 Red. Mass:       1.2880                 2.2906                 1.5451
 IR Intens:        3.295                 33.343                 22.445
 Frequency:      1212.22                1250.64                1276.56
 Force Cnst:      1.3670                 3.3046                 1.8108
 Red. Mass:       1.5789                 3.5859                 1.8860
 IR Intens:       31.649                217.861                 56.253
 Frequency:      1280.86                1283.48                1288.45
 Force Cnst:      1.8805                 1.5011                 1.7665
 Red. Mass:       1.9454                 1.5466                 1.8060
 IR Intens:       34.299                 15.646                 12.804
 Frequency:      1293.38                1352.91                1408.98
 Force Cnst:      1.8419                 1.9076                 1.4121
 Red. Mass:       1.8688                 1.7689                 1.2073
 IR Intens:       30.823                  7.818                  0.723
 Frequency:      1420.32                1463.36                1467.14
 Force Cnst:      1.4171                 1.4953                 1.4887
 Red. Mass:       1.1923                 1.1851                 1.1738
 IR Intens:        8.782                  9.580                  8.488
 Frequency:      1478.84                1480.92                1490.69
 Force Cnst:      1.3472                 1.3498                 1.3748
 Red. Mass:       1.0456                 1.0446                 1.0501
 IR Intens:        7.210                 10.414                 14.824
 Frequency:      1496.40                1497.35                1497.61
 Force Cnst:      1.4246                 1.3977                 1.3846
 Red. Mass:       1.0799                 1.0581                 1.0478
 IR Intens:        4.270                 12.759                  5.100
 Frequency:      1502.74                1517.45                1526.95
 Force Cnst:      1.4124                 1.4259                 1.4547
 Red. Mass:       1.0615                 1.0510                 1.0589
 IR Intens:        3.275                  0.643                 30.503
 Frequency:      1638.36                1781.00                1787.50
 Force Cnst:      9.0947                22.2331                22.4909
 Red. Mass:       5.7507                11.8966                11.9472
 IR Intens:        3.902                153.795                276.538
 Frequency:      3044.52                3047.59                3047.93
 Force Cnst:      5.6741                 5.6342                 5.6331
 Red. Mass:       1.0390                 1.0296                 1.0292
 IR Intens:       12.130                 30.696                 49.296
 Frequency:      3050.65                3068.11                3106.87
 Force Cnst:      5.6954                 5.8745                 6.2449
 Red. Mass:       1.0387                 1.0592                 1.0981
 IR Intens:       21.219                 31.136                  7.967
 Frequency:      3110.24                3112.57                3114.08
 Force Cnst:      6.2136                 6.2444                 6.2859
 Red. Mass:       1.0902                 1.0940                 1.1002
 IR Intens:       44.058                  7.169                 26.047
 Frequency:      3118.70                3119.38                3122.23
 Force Cnst:      6.2911                 6.3455                 6.3577
 Red. Mass:       1.0978                 1.1068                 1.1069
 IR Intens:       39.034                 19.105                 15.729
 Frequency:      3133.16                3140.60                3151.32
 Force Cnst:      6.3712                 6.4097                 6.4734
 Red. Mass:       1.1016                 1.1030                 1.1064
 IR Intens:       15.798                 22.151                 15.658
 Frequency:      3153.14                3199.27                3239.92
 Force Cnst:      6.4791                 6.5760                 6.8172
 Red. Mass:       1.1061                 1.0905                 1.1023
 IR Intens:       14.728                  7.007                  4.016

 STANDARD THERMODYNAMIC QUANTITIES AT   298.15 K  AND     1.00 ATM

   This Molecule has  1 Imaginary Frequencies
   Zero point vibrational energy:      183.662 kcal/mol

   Atom    1 Element C  Has Mass   12.00000
   Atom    2 Element C  Has Mass   12.00000
   Atom    3 Element C  Has Mass   12.00000
   Atom    4 Element C  Has Mass   12.00000
   Atom    5 Element O  Has Mass   15.99491
   Atom    6 Element O  Has Mass   15.99491
   Atom    7 Element O  Has Mass   15.99491
   Atom    8 Element O  Has Mass   15.99491
   Atom    9 Element C  Has Mass   12.00000
   Atom   10 Element C  Has Mass   12.00000
   Atom   11 Element C  Has Mass   12.00000
   Atom   12 Element C  Has Mass   12.00000
   Atom   13 Element C  Has Mass   12.00000
   Atom   14 Element C  Has Mass   12.00000
   Atom   15 Element C  Has Mass   12.00000
   Atom   16 Element C  Has Mass   12.00000
   Atom   17 Element C  Has Mass   12.00000
   Atom   18 Element H  Has Mass    1.00783
   Atom   19 Element H  Has Mass    1.00783
   Atom   20 Element H  Has Mass    1.00783
   Atom   21 Element H  Has Mass    1.00783
   Atom   22 Element H  Has Mass    1.00783
   Atom   23 Element H  Has Mass    1.00783
   Atom   24 Element H  Has Mass    1.00783
   Atom   25 Element H  Has Mass    1.00783
   Atom   26 Element H  Has Mass    1.00783
   Atom   27 Element H  Has Mass    1.00783
   Atom   28 Element H  Has Mass    1.00783
   Atom   29 Element H  Has Mass    1.00783
   Atom   30 Element H  Has Mass    1.00783
   Atom   31 Element H  Has Mass    1.00783
   Atom   32 Element H  Has Mass    1.00783
   Atom   33 Element H  Has Mass    1.00783
   Atom   34 Element H  Has Mass    1.00783
   Atom   35 Element H  Has Mass    1.00783
   Molecular Mass:   238.120580 amu
   Principal axes and moments of inertia in amu*Bohr^2:
                             1           2           3
    Eigenvalues --     3023.83077  3367.92414  4475.75285
          X               0.99949     0.02743     0.01645
          Y              -0.02785     0.99928     0.02561
          Z              -0.01574    -0.02605     0.99954
   Rotational Symmetry Number is   1
   The Molecule is an Asymmetric Top
   Translational Enthalpy:        0.889 kcal/mol
   Rotational Enthalpy:           0.889 kcal/mol
   Vibrational Enthalpy:        191.988 kcal/mol
   gas constant (RT):             0.592 kcal/mol
   Translational Entropy:        42.304  cal/mol.K
   Rotational Entropy:           32.188  cal/mol.K
   Vibrational Entropy:          50.006  cal/mol.K

   Total Enthalpy:              194.357 kcal/mol
   Total Entropy:               124.498  cal/mol.K

 Total job time:  14789.53s(wall), 89446.63s(cpu)
        *  Thank you very much for using Q-Chem.  Have a nice day.  *
