 Q-Chem 5.0, Q-Chem, Inc., Pleasanton, CA (2017)
 Q-Chem 5.0.0 for Intel X86 EM64T Linux

User input:
--------------------------------------------------------------
$molecule
0  1
C    0.656  -1.997   0.550
C   -0.379  -2.055   1.685
C    1.075  -0.633   0.035
C   -0.743  -0.756   2.367
O    2.254  -0.766  -0.643
O    0.466   0.414   0.178
O    0.380  -0.211   2.923
O   -1.879  -0.339   2.537
C    0.159   1.039   3.578
C    2.798   0.433  -1.203
C   -0.074  -2.721  -0.584
C   -0.239  -4.209  -0.268
C   -1.341  -4.194   0.796
C   -1.585  -2.694   0.978
O   -1.425  -2.250  -0.391
H    1.566  -2.528   0.855
H   -0.041  -2.721   2.491
H   -0.505   1.690   2.999
H    2.061   1.233  -1.326
H    0.286  -2.514  -1.595
H   -0.592  -4.755  -1.150
H    0.687  -4.677   0.078
H   -2.237  -4.682   0.398
H   -1.053  -4.703   1.720
H   -2.574  -2.451   1.372
H   -0.249   0.863   4.578
H    1.124   1.543   3.677
H    3.204   0.190  -2.189
H    3.617   0.777  -0.565
$end

$opt
CONSTRAINT
tors    2    1    3    5    157.3
tors    1    2    4    7    -61.6
ENDCONSTRAINT
$end

$rem
JOBTYPE                   OPT
METHOD                    B3LYP
DFT_D                     D3_OP
BASIS                     STO-3G
GEOM_OPT_MAX_CYCLES       500
SYMMETRY                  False
THRESH                    12
SCF_CONVERGENCE           8
MAX_SUB_FILE_NUM          128
MEM_STATIC                400
MEM_TOTAL                 4000
$end

--------------------------------------------------------------

   14    -755.6953363584      6.30E-09 Convergence criterion met
 Total energy in the final basis set = -755.6953363584
   13    -755.7255011132      4.07E-09 Convergence criterion met
 Total energy in the final basis set = -755.7255011132
   13    -755.7316476877      4.92E-09 Convergence criterion met
 Total energy in the final basis set = -755.7316476877
   12    -755.7324013516      5.28E-09 Convergence criterion met
 Total energy in the final basis set = -755.7324013516
   12    -755.7326191896      1.65E-09 Convergence criterion met
 Total energy in the final basis set = -755.7326191896
   11    -755.7326849480      6.61E-09 Convergence criterion met
 Total energy in the final basis set = -755.7326849480
   11    -755.7327173650      3.46E-09 Convergence criterion met
 Total energy in the final basis set = -755.7327173650
   11    -755.7327643307      2.99E-09 Convergence criterion met
 **  OPTIMIZATION CONVERGED  **
 Total job time:  72.13s(wall), 1687.39s(cpu)
        *  Thank you very much for using Q-Chem.  Have a nice day.  *

User input: 2 of 3

nid04576 10.128.18
Q-Chem Developer Version! Running on 10.128.18.*
                  Welcome to Q-Chem
     A Quantum Leap Into The Future Of Chemistry

 Q-Chem 5.0, Q-Chem, Inc., Pleasanton, CA (2017)

 Yihan Shao,  Zhengting Gan,  E. Epifanovsky,  A. T. B. Gilbert,  M. Wormit,
 J. Kussmann,  A. W. Lange,  A. Behn,  Jia Deng,  Xintian Feng,  D. Ghosh,
 M. Goldey,  P. R. Horn,  L. D. Jacobson,  I. Kaliman,  T. Kus,  A. Landau,
 Jie Liu,  E. I. Proynov,  R. M. Richard,  R. P. Steele,  E. J. Sundstrom,
 H. L. Woodcock III,  P. M. Zimmerman,  D. Zuev,  B. Albrecht,  E. Alguire,
 S. A. Baeppler,  Z. Benda,  Y. A. Bernard,  E. J. Berquist,  K. B. Bravaya,
 D. Casanova,  Chun-Min Chang,  Yunqing Chen,  A. Chien,  K. D. Closser,
 M. P. Coons,  S. Dasgupta,  M. Diedenhofen,  Hainam Do,  R. G. Edgar,
 Po-Tung Fang,  S. Fatehi,  Qingguo Feng,  Qinghui Ge,  A. Ghysels,
 J. Gomes,  J. Gonthier,  A. Gunina,  M. W. D. Hanson-Heine,
 P. H. P. Harbach,  A. W. Hauser,  J. E. Herr,  E. G. Hohenstein,
 Z. C. Holden,  Kerwin Hui,  T.-C. Jagau,  Hyunjun Ji,  B. Kaduk,
 K. Khistyaev,  Jaehoon Kim,  P. Klunzinger,  K. Koh,  D. Kosenkov,
 T. Kowalczyk,  C. M. Krauter,  A. Kunitsa,  Ka Un Lao,  A. Laurent,
 K. V. Lawler,  Joonho Lee,  D. Lefrancois,  S. Lehtola,  D. S. Levine,
 Yi-Pei Li,  You-Sheng Lin,  Fenglai Liu,  E. Livshits,  A. Luenser,
 P. Manohar,  E. Mansoor,  S. F. Manzer,  Shan-Ping Mao,  Yuezhi Mao,
 N. Mardirossian,  A. V. Marenich,  L. A. Martinez-Martinez,  S. A. Maurer,
 N. J. Mayhall,  S. C. McKenzie,  J.-M. Mewes,  A. F. Morrison,  K. Nanda,
 T. S. Nguyen-Beck,  R. Olivares-Amaya,  J. A. Parkhill,  T. M. Perrine,
 F. Plasser,  S. Prager,  A. Prociuk,  D. R. Rehn,  F. Rob,  M. Schneider,
 N. Sergueev,  S. M. Sharada,  S. Sharma,  D. W. Small,  T. Stauch,
 T. Stein,  Yu-Chuan Su,  A. J. W. Thom,  T. Tsuchimochi,  L. Vogt,
 O. Vydrov,  M. A. Watson,  J. Wenzel,  M. de Wergifosse,  T. A. Wesolowski,
 A. White,  J. Witte,  A. Yamada,  Jun Yang,  K. Yao,  S. Yeganeh,
 S. R. Yost,  Zhi-Qiang You,  A. Zech,  Igor Ying Zhang,  Xing Zhang,
 Yan Zhao,  Ying Zhu,  B. R. Brooks,  G. K. L. Chan,  C. J. Cramer,
 M. S. Gordon,  W. J. Hehre,  A. Klamt,  M. W. Schmidt,  C. D. Sherrill,
 D. G. Truhlar,  A. Aspuru-Guzik,  R. Baer,  A. T. Bell,  N. A. Besley,
 Jeng-Da Chai,  A. Dreuw,  B. D. Dunietz,  T. R. Furlani,  Chao-Ping Hsu,
 Yousung Jung,  Jing Kong,  D. S. Lambrecht,  WanZhen Liang,  C. Ochsenfeld,
 V. A. Rassolov,  L. V. Slipchenko,  J. E. Subotnik,  T. Van Voorhis,
 J. M. Herbert,  A. I. Krylov,  P. M. W. Gill,  M. Head-Gordon

 Contributors to earlier versions of Q-Chem not listed above:
 R. D. Adamson,  B. Austin,  J. Baker,  G. J. O. Beran,  K. Brandhorst,
 S. T. Brown,  E. F. C. Byrd,  A. K. Chakraborty,  C.-L. Cheng,
 Siu Hung Chien,  D. M. Chipman,  D. L. Crittenden,  H. Dachsel,
 R. A. DiStasio Jr.,  R. J. Doerksen,  A. D. Dutoi,  L. Fusti-Molnar,
 W. A. Goddard III,  A. Golubeva-Zadorozhnaya,  S. R. Gwaltney,  G. Hawkins,
 A. Heyden,  S. Hirata,  G. Kedziora,  F. J. Keil,  C. Kelley,  Jihan Kim,
 R. A. King,  R. Z. Khaliullin,  P. P. Korambath,  W. Kurlancheek,
 A. M. Lee,  M. S. Lee,  S. V. Levchenko,  Ching Yeh Lin,  D. Liotard,
 R. C. Lochan,  I. Lotan,  P. E. Maslen,  N. Nair,  D. P. O'Neill,
 D. Neuhauser,  E. Neuscamman,  C. M. Oana,  R. Olson,  B. Peters,
 R. Peverati,  P. A. Pieniazek,  Y. M. Rhee,  J. Ritchie,  M. A. Rohrdanz,
 E. Rosta,  N. J. Russ,  H. F. Schaefer III,  N. E. Schultz,  N. Shenvi,
 A. C. Simmonett,  A. Sodt,  D. Stuck,  K. S. Thanthiriwatte,  V. Vanovschi,
 Tao Wang,  A. Warshel,  C. F. Williams,  Q. Wu,  X. Xu,  W. Zhang

 Please cite Q-Chem as follows:
 Y. Shao et al., Mol. Phys. 113, 184-215 (2015)
 DOI: 10.1080/00268976.2014.952696

 Q-Chem 5.0.0 for Intel X86 EM64T Linux

 Parts of Q-Chem use Armadillo 5.200.1 (Boston Tea Smuggler).
 http://arma.sourceforge.net/

 Q-Chem begins on Wed Oct  4 17:31:06 2017

Host: nid04576
0

     Scratch files written to /global/cscratch1/sd/junteng/scratch/13/opt_1001-o.save//
The previous job contains 0 fragments, simply inherited here

Checking the input file for inconsistencies... 	...done.

--------------------------------------------------------------
User input:
--------------------------------------------------------------

$molecule
   read
$end

$rem
JOBTYPE                   OPT
METHOD                    B3LYP
DFT_D                     D3_OP
BASIS                     6-311++G(d,p)
GEOM_OPT_MAX_CYCLES       500
GEOM_OPT_TOL_GRADIENT     1
GEOM_OPT_TOL_DISPLACEMENT 1
GEOM_OPT_TOL_ENERGY       1
SYMMETRY                  False
THRESH                    12
SCF_CONVERGENCE           8
MAX_SUB_FILE_NUM          128
MEM_STATIC                400
MEM_TOTAL                 4000
$end

--------------------------------------------------------------

    9    -765.8625856615      5.63E-09 Convergence criterion met
 Total energy in the final basis set = -765.8625856615
    9    -765.8625861219      4.36E-09 Convergence criterion met
 Total energy in the final basis set = -765.8625861219
    7    -765.8625861061      8.29E-09 Convergence criterion met
 Total energy in the final basis set = -765.8625861061
    6    -765.8625861540      8.04E-09 Convergence criterion met
 Total energy in the final basis set = -765.8625861540
    4    -765.8625861396      9.87E-09 Convergence criterion met
 Total energy in the final basis set = -765.8625861396
    4    -765.8625861435      9.07E-09 Convergence criterion met
 Total energy in the final basis set = -765.8625861435
 Final energy is   -765.862586143486
        *  Thank you very much for using Q-Chem.  Have a nice day.  *
 Q-Chem 5.0, Q-Chem, Inc., Pleasanton, CA (2017)
 Q-Chem 5.0.0 for Intel X86 EM64T Linux

             Standard Nuclear Orientation (Angstroms)
    I     Atom           X                Y                Z
 ----------------------------------------------------------------
    1      C       0.3772142682    -0.6449312225    -0.6000529921
    2      C       0.6154537499     0.8956460955    -0.4816404413
    3      C      -0.8726598132    -1.1762082857     0.0679515378
    4      C      -0.5560042833     1.7281077574     0.0097087287
    5      O      -1.1916639334    -2.3835252220    -0.4546585625
    6      O      -1.4842085786    -0.6620389585     0.9692011344
    7      O      -1.6033080726     1.5866173760    -0.8319387665
    8      O      -0.5451726688     2.4732447455     0.9543612093
    9      C      -2.8241277204     2.2360906038    -0.4337505501
   10      C      -2.3167874948    -3.0530525821     0.1452685933
   11      C       1.6272711365    -1.1697549466     0.1784182012
   12      C       2.9065395686    -0.9029076183    -0.6491375622
   13      C       3.1131877457     0.6231938462    -0.3989953177
   14      C       1.8610726465     0.9510814575     0.4392275441
   15      O       1.7235438327    -0.2304161009     1.2495824893
   16      H       0.3810828423    -0.9866139195    -1.6341957298
   17      H       0.8491309824     1.2879507457    -1.4754763400
   18      H      -3.1620599808     1.8321809125     0.5217961727
   19      H      -3.2228785498    -2.4576593655     0.0227861166
   20      H       1.5224490326    -2.1785690880     0.5722660181
   21      H       3.7390922184    -1.4894673977    -0.2586639239
   22      H       2.7794818679    -1.1553487993    -1.7038120640
   23      H       4.0158953226     0.8107178086     0.1840412533
   24      H       3.1722895054     1.2072350312    -1.3195622334
   25      H       1.9087654424     1.8294010849     1.0757935659
   26      H      -2.6759553917     3.3131328133    -0.3435244839
   27      H      -3.5418161545     2.0129106259    -1.2204753799
   28      H      -2.1391213374    -3.2212667467     1.2084831441
   29      H      -2.4068392562    -3.9992490588    -0.3838225971
 ----------------------------------------------------------------

   15    -765.8625206082      3.39E-09 Convergence criterion met
 Total energy in the final basis set = -765.8625206082

                    Orbital Energies (a.u.)
 --------------------------------------------------------------

 Alpha MOs
 -- Occupied --
-19.177 -19.167 -19.131 -19.120 -19.111 -10.309 -10.302 -10.240
-10.232 -10.229 -10.222 -10.207 -10.203 -10.183 -10.180  -1.118
 -1.108  -1.064  -1.031  -1.023  -0.832  -0.785  -0.777  -0.738
 -0.725  -0.654  -0.605  -0.597  -0.577  -0.559  -0.546  -0.520
 -0.504  -0.492  -0.487  -0.485  -0.478  -0.471  -0.459  -0.431
 -0.421  -0.420  -0.412  -0.397  -0.386  -0.374  -0.368  -0.366
 -0.360  -0.358  -0.339  -0.333  -0.320  -0.307  -0.291  -0.281
 -0.273

          Ground-State Mulliken Net Atomic Charges

     Atom                 Charge (a.u.)
  ----------------------------------------
      1 C                     0.031113
      2 C                     0.099713
      3 C                    -0.647298
      4 C                    -0.400938
      5 O                    -0.028535
      6 O                    -0.202869
      7 O                    -0.045106
      8 O                    -0.220426
      9 C                    -0.192069
     10 C                    -0.236910
     11 C                     0.353492
     12 C                    -0.465439
     13 C                    -0.469578
     14 C                    -0.141824
     15 O                    -0.140961
     16 H                     0.284111
     17 H                     0.235042
     18 H                     0.190373
     19 H                     0.172394
     20 H                     0.267502
     21 H                     0.179905
     22 H                     0.123957
     23 H                     0.192304
     24 H                     0.125277
     25 H                     0.286513
     26 H                     0.165798
     27 H                     0.148992
     28 H                     0.184285
     29 H                     0.151181
  ----------------------------------------
  Sum of atomic charges =     0.000000

                    Cartesian Multipole Moments
 -----------------------------------------------------------------
    Charge (ESU x 10^10)
                 0.0000
    Dipole Moment (Debye)
         X       0.0177      Y      -2.1150      Z      -3.7277
       Tot       4.2860
    Quadrupole Moments (Debye-Ang)
        XX     -76.8075     XY       2.3135     YY     -83.5554
        XZ      -0.8435     YZ      -5.1617     ZZ     -95.2134

 Frequency:        23.82                  60.80                  83.86
 Force Cnst:      0.0015                 0.0076                 0.0143
 Red. Mass:       4.5483                 3.4810                 3.4416
 IR Intens:        0.504                  0.688                  3.804
 Frequency:        86.66                 101.04                 132.36
 Force Cnst:      0.0146                 0.0080                 0.0187
 Red. Mass:       3.2960                 1.3358                 1.8122
 IR Intens:        0.114                  1.406                  0.303
 Frequency:       138.01                 143.82                 196.73
 Force Cnst:      0.0195                 0.0426                 0.0975
 Red. Mass:       1.7397                 3.4934                 4.2747
 IR Intens:        0.839                  2.294                  0.285
 Frequency:       216.80                 242.68                 275.64
 Force Cnst:      0.1444                 0.1164                 0.2228
 Red. Mass:       5.2131                 3.3550                 4.9769
 IR Intens:        2.387                  3.285                  8.209
 Frequency:       293.59                 328.67                 335.07
 Force Cnst:      0.1585                 0.2288                 0.2810
 Red. Mass:       3.1206                 3.5950                 4.2480
 IR Intens:        5.528                  5.784                 11.042
 Frequency:       372.62                 469.73                 563.43
 Force Cnst:      0.4725                 0.6361                 0.8180
 Red. Mass:       5.7758                 4.8933                 4.3735
 IR Intens:        9.972                  9.591                 22.044
 Frequency:       627.48                 657.83                 684.52
 Force Cnst:      1.4668                 1.1687                 1.5455
 Red. Mass:       6.3228                 4.5838                 5.5982
 IR Intens:       14.081                  1.362                  4.099
 Frequency:       741.62                 796.59                 816.06
 Force Cnst:      1.7886                 1.5769                 0.9117
 Red. Mass:       5.5196                 4.2179                 2.3235
 IR Intens:        7.632                  6.998                  5.768
 Frequency:       828.07                 835.90                 860.73
 Force Cnst:      1.3807                 1.8699                 1.6157
 Red. Mass:       3.4176                 4.5422                 3.7014
 IR Intens:       20.040                  3.473                  2.067
 Frequency:       897.64                 909.11                 915.36
 Force Cnst:      1.2637                 1.3549                 1.5192
 Red. Mass:       2.6619                 2.7825                 3.0774
 IR Intens:        3.547                 11.400                  4.256
 Frequency:       934.61                 957.75                 974.93
 Force Cnst:      1.6901                 3.0945                 1.3224
 Red. Mass:       3.2841                 5.7257                 2.3614
 IR Intens:       26.177                 33.800                 16.429
 Frequency:       984.34                1014.81                1025.92
 Force Cnst:      2.5249                 2.0175                 2.2917
 Red. Mass:       4.4230                 3.3251                 3.6956
 IR Intens:        3.585                 30.690                 18.042
 Frequency:      1068.17                1072.62                1073.62
 Force Cnst:      2.2931                 1.3479                 1.6951
 Red. Mass:       3.4111                 1.9885                 2.4961
 IR Intens:       34.544                 19.222                 16.856
 Frequency:      1162.75                1171.82                1172.71
 Force Cnst:      1.0135                 1.0908                 1.0626
 Red. Mass:       1.2723                 1.3482                 1.3114
 IR Intens:       56.901                 23.394                 15.225
 Frequency:      1177.22                1200.07                1207.91
 Force Cnst:      1.7614                 1.2885                 1.4730
 Red. Mass:       2.1573                 1.5185                 1.7135
 IR Intens:      218.058                  4.377                 91.007
 Frequency:      1211.52                1215.86                1229.81
 Force Cnst:      1.3811                 1.7614                 1.0912
 Red. Mass:       1.5971                 2.0223                 1.2245
 IR Intens:       58.923                265.956                 21.319
 Frequency:      1242.00                1248.12                1281.86
 Force Cnst:      1.3864                 1.4271                 1.2195
 Red. Mass:       1.5254                 1.5548                 1.2597
 IR Intens:       25.976                 25.935                  4.403
 Frequency:      1286.98                1313.74                1319.99
 Force Cnst:      1.5170                 1.4315                 1.4928
 Red. Mass:       1.5546                 1.4077                 1.4542
 IR Intens:       16.523                  1.798                 35.851
 Frequency:      1353.12                1372.60                1389.95
 Force Cnst:      1.6784                 1.8026                 1.9440
 Red. Mass:       1.5559                 1.6239                 1.7078
 IR Intens:       22.928                 79.167                 37.294
 Frequency:      1469.99                1470.65                1482.46
 Force Cnst:      1.5208                 1.5311                 1.3523
 Red. Mass:       1.1945                 1.2015                 1.0444
 IR Intens:       19.270                 10.340                  8.277
 Frequency:      1484.13                1489.00                1497.74
 Force Cnst:      1.3541                 1.4131                 1.3853
 Red. Mass:       1.0434                 1.0818                 1.0481
 IR Intens:       10.767                  2.268                 12.875
 Frequency:      1498.72                1510.62                1796.58
 Force Cnst:      1.3836                 1.4799                21.9459
 Red. Mass:       1.0455                 1.1007                11.5401
 IR Intens:        5.998                  6.051                 67.232
 Frequency:      1805.34                3049.44                3049.76
 Force Cnst:     22.0138                 5.6397                 5.6421
 Red. Mass:      11.4638                 1.0294                 1.0296
 IR Intens:      396.274                 25.114                 45.797
 Frequency:      3056.98                3061.26                3067.79
 Force Cnst:      5.8656                 5.9354                 5.8916
 Red. Mass:       1.0653                 1.0750                 1.0625
 IR Intens:       14.258                 16.121                 35.969
 Frequency:      3096.92                3110.35                3117.26
 Force Cnst:      6.2546                 6.2236                 6.3027
 Red. Mass:       1.1068                 1.0919                 1.1009
 IR Intens:        0.943                  7.393                 36.758
 Frequency:      3122.73                3124.54                3132.07
 Force Cnst:      6.3605                 6.3697                 6.2993
 Red. Mass:       1.1071                 1.1074                 1.0899
 IR Intens:       18.692                 15.453                 21.745
 Frequency:      3153.05                3155.98                3162.04
 Force Cnst:      6.4808                 6.4915                 6.4247
 Red. Mass:       1.1064                 1.1062                 1.0906
 IR Intens:       14.124                 14.349                  5.638

 STANDARD THERMODYNAMIC QUANTITIES AT   298.15 K  AND     1.00 ATM

   This Molecule has  0 Imaginary Frequencies
   Zero point vibrational energy:      149.056 kcal/mol

   Atom    1 Element C  Has Mass   12.00000
   Atom    2 Element C  Has Mass   12.00000
   Atom    3 Element C  Has Mass   12.00000
   Atom    4 Element C  Has Mass   12.00000
   Atom    5 Element O  Has Mass   15.99491
   Atom    6 Element O  Has Mass   15.99491
   Atom    7 Element O  Has Mass   15.99491
   Atom    8 Element O  Has Mass   15.99491
   Atom    9 Element C  Has Mass   12.00000
   Atom   10 Element C  Has Mass   12.00000
   Atom   11 Element C  Has Mass   12.00000
   Atom   12 Element C  Has Mass   12.00000
   Atom   13 Element C  Has Mass   12.00000
   Atom   14 Element C  Has Mass   12.00000
   Atom   15 Element O  Has Mass   15.99491
   Atom   16 Element H  Has Mass    1.00783
   Atom   17 Element H  Has Mass    1.00783
   Atom   18 Element H  Has Mass    1.00783
   Atom   19 Element H  Has Mass    1.00783
   Atom   20 Element H  Has Mass    1.00783
   Atom   21 Element H  Has Mass    1.00783
   Atom   22 Element H  Has Mass    1.00783
   Atom   23 Element H  Has Mass    1.00783
   Atom   24 Element H  Has Mass    1.00783
   Atom   25 Element H  Has Mass    1.00783
   Atom   26 Element H  Has Mass    1.00783
   Atom   27 Element H  Has Mass    1.00783
   Atom   28 Element H  Has Mass    1.00783
   Atom   29 Element H  Has Mass    1.00783
   Molecular Mass:   214.084170 amu
   Principal axes and moments of inertia in amu*Bohr^2:
                             1           2           3
    Eigenvalues --     2456.55192  2965.49890  4688.06622
          X               0.99987     0.01238    -0.00996
          Y              -0.01246     0.99989    -0.00751
          Z               0.00987     0.00763     0.99992
   Rotational Symmetry Number is   1
   The Molecule is an Asymmetric Top
   Translational Enthalpy:        0.889 kcal/mol
   Rotational Enthalpy:           0.889 kcal/mol
   Vibrational Enthalpy:        156.327 kcal/mol
   gas constant (RT):             0.592 kcal/mol
   Translational Entropy:        41.987  cal/mol.K
   Rotational Entropy:           31.902  cal/mol.K
   Vibrational Entropy:          48.188  cal/mol.K

   Total Enthalpy:              158.697 kcal/mol
   Total Entropy:               122.076  cal/mol.K

 Total job time:  7397.47s(wall), 39695.34s(cpu)
        *  Thank you very much for using Q-Chem.  Have a nice day.  *
