 Q-Chem 5.0, Q-Chem, Inc., Pleasanton, CA (2017)
 Q-Chem 5.0.0 for Intel X86 EM64T Linux

User input:
--------------------------------------------------------------
$molecule
0  1
C    0.711  -1.958   0.589
C   -0.299  -1.995   1.756
C    1.089  -0.603   0.022
C   -0.528  -0.668   2.454
O    2.255  -0.726  -0.682
O    0.458   0.435   0.138
O    0.672  -0.221   2.944
O   -1.603  -0.140   2.687
C    0.580   1.027   3.634
C    2.698   0.490  -1.286
C   -0.031  -2.720  -0.508
C   -0.144  -4.202  -0.153
C   -1.210  -4.188   0.944
C   -1.515  -2.680   1.086
O   -1.391  -2.278  -0.299
H    1.639  -2.461   0.888
H    0.068  -2.659   2.552
H   -0.050   0.928   4.523
H    1.951   0.864  -1.993
H   -0.511  -4.776  -1.011
H    0.804  -4.638   0.173
H   -2.087  -4.746   0.595
H   -0.869  -4.649   1.876
H    1.587   1.311   3.953
H    0.196   1.807   2.969
H    3.619   0.278  -1.837
H    2.918   1.240  -0.519
H    0.300  -2.531  -1.532
C   -2.908  -2.427   1.624
H   -3.642  -3.061   1.114
H   -2.968  -2.632   2.696
H   -3.235  -1.402   1.426
$end

$opt
CONSTRAINT
tors    2    1    3    5    162.3
tors    1    2    4    7    -65.0
ENDCONSTRAINT
$end

$rem
JOBTYPE                   OPT
METHOD                    B3LYP
DFT_D                     D3_OP
BASIS                     STO-3G
GEOM_OPT_MAX_CYCLES       500
SYMMETRY                  False
THRESH                    12
SCF_CONVERGENCE           8
MAX_SUB_FILE_NUM          128
MEM_STATIC                400
MEM_TOTAL                 4000
$end

--------------------------------------------------------------

   14    -794.5514909720      6.56E-09 Convergence criterion met
 Total energy in the final basis set = -794.5514909720
   13    -794.5818781144      3.49E-09 Convergence criterion met
 Total energy in the final basis set = -794.5818781144
   13    -794.5891443305      4.20E-09 Convergence criterion met
 Total energy in the final basis set = -794.5891443305
   12    -794.5898798001      4.56E-09 Convergence criterion met
 Total energy in the final basis set = -794.5898798001
   11    -794.5901274775      8.72E-09 Convergence criterion met
 Total energy in the final basis set = -794.5901274775
   11    -794.5903176824      4.77E-09 Convergence criterion met
 Total energy in the final basis set = -794.5903176824
   11    -794.5905129802      6.48E-09 Convergence criterion met
 Total energy in the final basis set = -794.5905129802
   11    -794.5907398402      7.11E-09 Convergence criterion met
 **  OPTIMIZATION CONVERGED  **
 Total job time:  57.94s(wall), 1365.15s(cpu)
        *  Thank you very much for using Q-Chem.  Have a nice day.  *

User input: 2 of 3

nid04485 10.128.17
Q-Chem Developer Version! Running on 10.128.17.*
                  Welcome to Q-Chem
     A Quantum Leap Into The Future Of Chemistry

 Q-Chem 5.0, Q-Chem, Inc., Pleasanton, CA (2017)

 Yihan Shao,  Zhengting Gan,  E. Epifanovsky,  A. T. B. Gilbert,  M. Wormit,
 J. Kussmann,  A. W. Lange,  A. Behn,  Jia Deng,  Xintian Feng,  D. Ghosh,
 M. Goldey,  P. R. Horn,  L. D. Jacobson,  I. Kaliman,  T. Kus,  A. Landau,
 Jie Liu,  E. I. Proynov,  R. M. Richard,  R. P. Steele,  E. J. Sundstrom,
 H. L. Woodcock III,  P. M. Zimmerman,  D. Zuev,  B. Albrecht,  E. Alguire,
 S. A. Baeppler,  Z. Benda,  Y. A. Bernard,  E. J. Berquist,  K. B. Bravaya,
 D. Casanova,  Chun-Min Chang,  Yunqing Chen,  A. Chien,  K. D. Closser,
 M. P. Coons,  S. Dasgupta,  M. Diedenhofen,  Hainam Do,  R. G. Edgar,
 Po-Tung Fang,  S. Fatehi,  Qingguo Feng,  Qinghui Ge,  A. Ghysels,
 J. Gomes,  J. Gonthier,  A. Gunina,  M. W. D. Hanson-Heine,
 P. H. P. Harbach,  A. W. Hauser,  J. E. Herr,  E. G. Hohenstein,
 Z. C. Holden,  Kerwin Hui,  T.-C. Jagau,  Hyunjun Ji,  B. Kaduk,
 K. Khistyaev,  Jaehoon Kim,  P. Klunzinger,  K. Koh,  D. Kosenkov,
 T. Kowalczyk,  C. M. Krauter,  A. Kunitsa,  Ka Un Lao,  A. Laurent,
 K. V. Lawler,  Joonho Lee,  D. Lefrancois,  S. Lehtola,  D. S. Levine,
 Yi-Pei Li,  You-Sheng Lin,  Fenglai Liu,  E. Livshits,  A. Luenser,
 P. Manohar,  E. Mansoor,  S. F. Manzer,  Shan-Ping Mao,  Yuezhi Mao,
 N. Mardirossian,  A. V. Marenich,  L. A. Martinez-Martinez,  S. A. Maurer,
 N. J. Mayhall,  S. C. McKenzie,  J.-M. Mewes,  A. F. Morrison,  K. Nanda,
 T. S. Nguyen-Beck,  R. Olivares-Amaya,  J. A. Parkhill,  T. M. Perrine,
 F. Plasser,  S. Prager,  A. Prociuk,  D. R. Rehn,  F. Rob,  M. Schneider,
 N. Sergueev,  S. M. Sharada,  S. Sharma,  D. W. Small,  T. Stauch,
 T. Stein,  Yu-Chuan Su,  A. J. W. Thom,  T. Tsuchimochi,  L. Vogt,
 O. Vydrov,  M. A. Watson,  J. Wenzel,  M. de Wergifosse,  T. A. Wesolowski,
 A. White,  J. Witte,  A. Yamada,  Jun Yang,  K. Yao,  S. Yeganeh,
 S. R. Yost,  Zhi-Qiang You,  A. Zech,  Igor Ying Zhang,  Xing Zhang,
 Yan Zhao,  Ying Zhu,  B. R. Brooks,  G. K. L. Chan,  C. J. Cramer,
 M. S. Gordon,  W. J. Hehre,  A. Klamt,  M. W. Schmidt,  C. D. Sherrill,
 D. G. Truhlar,  A. Aspuru-Guzik,  R. Baer,  A. T. Bell,  N. A. Besley,
 Jeng-Da Chai,  A. Dreuw,  B. D. Dunietz,  T. R. Furlani,  Chao-Ping Hsu,
 Yousung Jung,  Jing Kong,  D. S. Lambrecht,  WanZhen Liang,  C. Ochsenfeld,
 V. A. Rassolov,  L. V. Slipchenko,  J. E. Subotnik,  T. Van Voorhis,
 J. M. Herbert,  A. I. Krylov,  P. M. W. Gill,  M. Head-Gordon

 Contributors to earlier versions of Q-Chem not listed above:
 R. D. Adamson,  B. Austin,  J. Baker,  G. J. O. Beran,  K. Brandhorst,
 S. T. Brown,  E. F. C. Byrd,  A. K. Chakraborty,  C.-L. Cheng,
 Siu Hung Chien,  D. M. Chipman,  D. L. Crittenden,  H. Dachsel,
 R. A. DiStasio Jr.,  R. J. Doerksen,  A. D. Dutoi,  L. Fusti-Molnar,
 W. A. Goddard III,  A. Golubeva-Zadorozhnaya,  S. R. Gwaltney,  G. Hawkins,
 A. Heyden,  S. Hirata,  G. Kedziora,  F. J. Keil,  C. Kelley,  Jihan Kim,
 R. A. King,  R. Z. Khaliullin,  P. P. Korambath,  W. Kurlancheek,
 A. M. Lee,  M. S. Lee,  S. V. Levchenko,  Ching Yeh Lin,  D. Liotard,
 R. C. Lochan,  I. Lotan,  P. E. Maslen,  N. Nair,  D. P. O'Neill,
 D. Neuhauser,  E. Neuscamman,  C. M. Oana,  R. Olson,  B. Peters,
 R. Peverati,  P. A. Pieniazek,  Y. M. Rhee,  J. Ritchie,  M. A. Rohrdanz,
 E. Rosta,  N. J. Russ,  H. F. Schaefer III,  N. E. Schultz,  N. Shenvi,
 A. C. Simmonett,  A. Sodt,  D. Stuck,  K. S. Thanthiriwatte,  V. Vanovschi,
 Tao Wang,  A. Warshel,  C. F. Williams,  Q. Wu,  X. Xu,  W. Zhang

 Please cite Q-Chem as follows:
 Y. Shao et al., Mol. Phys. 113, 184-215 (2015)
 DOI: 10.1080/00268976.2014.952696

 Q-Chem 5.0.0 for Intel X86 EM64T Linux

 Parts of Q-Chem use Armadillo 5.200.1 (Boston Tea Smuggler).
 http://arma.sourceforge.net/

 Q-Chem begins on Wed Oct  4 17:38:14 2017

Host: nid04485
0

     Scratch files written to /global/cscratch1/sd/junteng/scratch/14/opt_1101o-.save//
The previous job contains 0 fragments, simply inherited here

Checking the input file for inconsistencies... 	...done.

--------------------------------------------------------------
User input:
--------------------------------------------------------------

$molecule
   read
$end

$rem
JOBTYPE                   OPT
METHOD                    B3LYP
DFT_D                     D3_OP
BASIS                     6-311++G(d,p)
GEOM_OPT_MAX_CYCLES       500
GEOM_OPT_TOL_GRADIENT     1
GEOM_OPT_TOL_DISPLACEMENT 1
GEOM_OPT_TOL_ENERGY       1
SYMMETRY                  False
THRESH                    12
SCF_CONVERGENCE           8
MAX_SUB_FILE_NUM          128
MEM_STATIC                400
MEM_TOTAL                 4000
$end

--------------------------------------------------------------

    9    -805.1940607097      8.08E-09 Convergence criterion met
 Total energy in the final basis set = -805.1940607097
    9    -805.1940608811      4.96E-09 Convergence criterion met
 Total energy in the final basis set = -805.1940608811
    7    -805.1940611177      9.40E-09 Convergence criterion met
 Total energy in the final basis set = -805.1940611177
    6    -805.1940610829      8.63E-09 Convergence criterion met
 Total energy in the final basis set = -805.1940610829
    5    -805.1940610730      8.97E-09 Convergence criterion met
 Total energy in the final basis set = -805.1940610730
    5    -805.1940610701      5.63E-09 Convergence criterion met
 Total energy in the final basis set = -805.1940610701
 Final energy is   -805.194061070102
        *  Thank you very much for using Q-Chem.  Have a nice day.  *
 Q-Chem 5.0, Q-Chem, Inc., Pleasanton, CA (2017)
 Q-Chem 5.0.0 for Intel X86 EM64T Linux

             Standard Nuclear Orientation (Angstroms)
    I     Atom           X                Y                Z
 ----------------------------------------------------------------
    1      C      -0.0491420256     0.8268964460     0.6275491285
    2      C       0.6583152184    -0.5680000801     0.5962147287
    3      C      -1.3327383907     0.9269676895    -0.1677135415
    4      C      -0.2325453897    -1.7153838417     0.1438660592
    5      O      -2.0713675259     1.9699649737     0.2770341911
    6      O      -1.6576348553     0.2363475424    -1.1001128116
    7      O      -1.3052724728    -1.7811744805     0.9713706111
    8      O      -0.0305663281    -2.5077981802    -0.7370502921
    9      C      -2.3082823258    -2.7501212706     0.6168749351
   10      C      -3.2906468731     2.2277783045    -0.4449747066
   11      C       1.0372572463     1.7067725379    -0.0649572176
   12      C       2.2398256967     1.8788742179     0.8879427476
   13      C       2.9191970990     0.4874998107     0.7525799999
   14      C       1.9597881850    -0.2515526076    -0.2235422397
   15      O       1.5320157180     0.8354276946    -1.0770415630
   16      H      -0.2513338871     1.1691697925     1.6413794704
   17      H       0.9307468105    -0.8318666729     1.6219703379
   18      H      -1.8923291540    -3.7586358005     0.6316423310
   19      H      -3.0752141271     2.4537640015    -1.4903752376
   20      H       2.8918400599     2.6781107739     0.5325448406
   21      H       1.9330267528     2.1200678363     1.9076431862
   22      H       3.9051468790     0.5728954028     0.2932240124
   23      H       3.0337946983    -0.0360568301     1.7037319461
   24      H      -3.0893388540    -2.6474437119     1.3674000781
   25      H      -2.6978947000    -2.5311647850    -0.3783911907
   26      H      -3.7441413730     3.0847848313     0.0480937320
   27      H      -3.9520847032     1.3615374653    -0.3949489560
   28      H       0.6551755698     2.6222125334    -0.5124383020
   29      C       2.6108328872    -1.3426204627    -1.0436989833
   30      H       3.5099674091    -0.9422479334    -1.5182299449
   31      H       2.9005116290    -2.1793075423    -0.4028582221
   32      H       1.9335627376    -1.7206242246    -1.8048346272
 ----------------------------------------------------------------

   15    -805.1940765209      3.66E-09 Convergence criterion met
 Total energy in the final basis set = -805.1940765209

                    Orbital Energies (a.u.)
 --------------------------------------------------------------

 Alpha MOs
 -- Occupied --
-19.177 -19.166 -19.128 -19.119 -19.110 -10.308 -10.303 -10.238
-10.237 -10.232 -10.222 -10.205 -10.203 -10.181 -10.177 -10.154
 -1.118  -1.107  -1.062  -1.030  -1.022  -0.831  -0.793  -0.780
 -0.748  -0.723  -0.686  -0.650  -0.603  -0.594  -0.569  -0.553
 -0.532  -0.510  -0.504  -0.491  -0.489  -0.482  -0.477  -0.471
 -0.458  -0.436  -0.425  -0.420  -0.417  -0.407  -0.394  -0.377
 -0.373  -0.369  -0.365  -0.359  -0.359  -0.349  -0.335  -0.328
 -0.319  -0.307  -0.290  -0.275  -0.271

          Ground-State Mulliken Net Atomic Charges

     Atom                 Charge (a.u.)
  ----------------------------------------
      1 C                     0.036977
      2 C                     0.303240
      3 C                    -0.918440
      4 C                    -0.433468
      5 O                    -0.011658
      6 O                    -0.187651
      7 O                    -0.019032
      8 O                    -0.188730
      9 C                    -0.180783
     10 C                    -0.230929
     11 C                     0.467602
     12 C                    -0.454001
     13 C                    -0.462644
     14 C                    -0.289970
     15 O                    -0.051731
     16 H                     0.289463
     17 H                     0.249864
     18 H                     0.165899
     19 H                     0.184134
     20 H                     0.184057
     21 H                     0.121411
     22 H                     0.173739
     23 H                     0.142942
     24 H                     0.148977
     25 H                     0.189793
     26 H                     0.150941
     27 H                     0.170216
     28 H                     0.277558
     29 C                    -0.337729
     30 H                     0.143167
     31 H                     0.158078
     32 H                     0.208707
  ----------------------------------------
  Sum of atomic charges =     0.000000

                    Cartesian Multipole Moments
 -----------------------------------------------------------------
    Charge (ESU x 10^10)
                 0.0000
    Dipole Moment (Debye)
         X      -0.8197      Y       1.9584      Z       3.4258
       Tot       4.0303
    Quadrupole Moments (Debye-Ang)
        XX     -82.7628     XY      -0.7824     YY     -91.7372
        XZ       2.3208     YZ      -4.4213     ZZ    -100.3177

 Frequency:        25.70                  34.03                  78.47
 Force Cnst:      0.0014                 0.0031                 0.0070
 Red. Mass:       3.6406                 4.5220                 1.9179
 IR Intens:        0.129                  0.575                  0.161
 Frequency:        83.83                 110.99                 124.33
 Force Cnst:      0.0146                 0.0131                 0.0216
 Red. Mass:       3.5293                 1.8038                 2.3687
 IR Intens:        4.931                  0.036                  1.065
 Frequency:       144.52                 153.94                 189.07
 Force Cnst:      0.0474                 0.0187                 0.0741
 Red. Mass:       3.8504                 1.3363                 3.5199
 IR Intens:        1.960                  0.307                  0.447
 Frequency:       213.87                 232.28                 246.54
 Force Cnst:      0.1150                 0.0789                 0.0488
 Red. Mass:       4.2687                 2.4816                 1.3634
 IR Intens:        1.511                  4.115                  1.660
 Frequency:       268.11                 294.66                 317.55
 Force Cnst:      0.1725                 0.2534                 0.1700
 Red. Mass:       4.0728                 4.9538                 2.8615
 IR Intens:        3.685                  3.966                  8.802
 Frequency:       328.81                 344.00                 359.40
 Force Cnst:      0.1884                 0.3071                 0.2067
 Red. Mass:       2.9574                 4.4042                 2.7158
 IR Intens:        0.031                 13.079                  2.921
 Frequency:       378.76                 476.93                 574.30
 Force Cnst:      0.4111                 0.5341                 0.7248
 Red. Mass:       4.8632                 3.9853                 3.7299
 IR Intens:        8.435                 13.555                 17.265
 Frequency:       606.45                 644.53                 663.83
 Force Cnst:      1.1222                 1.1709                 1.1136
 Red. Mass:       5.1788                 4.7840                 4.2889
 IR Intens:       11.291                  4.338                  0.191
 Frequency:       699.79                 750.41                 802.13
 Force Cnst:      1.7646                 1.7351                 1.3438
 Red. Mass:       6.1161                 5.2298                 3.5447
 IR Intens:        4.280                  4.605                  5.096
 Frequency:       814.18                 831.32                 841.68
 Force Cnst:      0.9708                 1.7320                 1.6453
 Red. Mass:       2.4858                 4.2535                 3.9419
 IR Intens:       10.658                 12.829                 10.915
 Frequency:       858.63                 898.62                 904.52
 Force Cnst:      1.2436                 1.2023                 1.3205
 Red. Mass:       2.8629                 2.5270                 2.7394
 IR Intens:       10.453                  6.998                  3.423
 Frequency:       915.47                 933.80                 967.46
 Force Cnst:      1.2175                 1.5832                 2.3702
 Red. Mass:       2.4657                 3.0817                 4.2980
 IR Intens:       12.442                  5.944                  2.879
 Frequency:       974.01                 993.83                1011.65
 Force Cnst:      1.9982                 1.7407                 2.4579
 Red. Mass:       3.5748                 2.9912                 4.0761
 IR Intens:       14.800                 14.224                 41.812
 Frequency:      1036.30                1061.92                1074.18
 Force Cnst:      1.1869                 2.5272                 1.7218
 Red. Mass:       1.8759                 3.8037                 2.5327
 IR Intens:       25.686                 59.672                 22.196
 Frequency:      1123.85                1137.72                1171.05
 Force Cnst:      1.3705                 1.2776                 1.0976
 Red. Mass:       1.8417                 1.6753                 1.3585
 IR Intens:       30.869                 13.956                 24.527
 Frequency:      1171.29                1179.05                1189.11
 Force Cnst:      1.0405                 1.9328                 1.6900
 Red. Mass:       1.2873                 2.3598                 2.0286
 IR Intens:        3.511                183.706                298.505
 Frequency:      1201.98                1204.68                1211.21
 Force Cnst:      1.3486                 1.3979                 1.3481
 Red. Mass:       1.5843                 1.6348                 1.5596
 IR Intens:       11.250                 43.258                 22.620
 Frequency:      1212.93                1216.79                1249.64
 Force Cnst:      1.5230                 1.5342                 1.3995
 Red. Mass:       1.7570                 1.7587                 1.5210
 IR Intens:      140.703                 79.177                 14.489
 Frequency:      1254.99                1290.53                1317.40
 Force Cnst:      1.1767                 1.8474                 1.4610
 Red. Mass:       1.2680                 1.8827                 1.4288
 IR Intens:        3.887                  8.507                 17.061
 Frequency:      1325.26                1336.31                1362.47
 Force Cnst:      1.6368                 2.0304                 1.7469
 Red. Mass:       1.5818                 1.9298                 1.5973
 IR Intens:       19.865                 10.139                 85.043
 Frequency:      1388.97                1431.33                1466.14
 Force Cnst:      1.9211                 1.5975                 1.5003
 Red. Mass:       1.6901                 1.3235                 1.1846
 IR Intens:       49.128                 14.941                 12.551
 Frequency:      1469.03                1481.80                1483.16
 Force Cnst:      1.5287                 1.3533                 1.3902
 Red. Mass:       1.2023                 1.0461                 1.0726
 IR Intens:       15.965                  8.162                  1.791
 Frequency:      1484.14                1491.01                1497.13
 Force Cnst:      1.3557                 1.3856                 1.3806
 Red. Mass:       1.0447                 1.0579                 1.0454
 IR Intens:       11.163                  2.321                 11.903
 Frequency:      1498.98                1500.01                1508.75
 Force Cnst:      1.3872                 1.3953                 1.4737
 Red. Mass:       1.0479                 1.0525                 1.0988
 IR Intens:       10.881                  8.958                  6.243
 Frequency:      1795.21                1811.33                3044.61
 Force Cnst:     21.6576                22.1951                 5.6835
 Red. Mass:      11.4059                11.4819                 1.0406
 IR Intens:       89.542                349.375                 19.097
 Frequency:      3048.69                3049.77                3055.06
 Force Cnst:      5.6372                 5.6423                 5.8749
 Red. Mass:       1.0294                 1.0296                 1.0683
 IR Intens:       33.980                 37.117                 12.688
 Frequency:      3059.83                3067.33                3093.89
 Force Cnst:      5.9083                 5.8874                 6.2453
 Red. Mass:       1.0711                 1.0621                 1.1074
 IR Intens:       22.698                 37.885                  0.618
 Frequency:      3102.61                3110.17                3116.43
 Force Cnst:      6.2498                 6.2461                 6.2737
 Red. Mass:       1.1020                 1.0959                 1.0964
 IR Intens:       12.576                 16.943                 38.095
 Frequency:      3122.45                3123.63                3128.31
 Force Cnst:      6.3592                 6.3654                 6.2855
 Red. Mass:       1.1070                 1.1073                 1.0901
 IR Intens:       19.181                 15.254                 23.701
 Frequency:      3152.57                3157.13                3164.36
 Force Cnst:      6.4787                 6.4972                 6.4729
 Red. Mass:       1.1064                 1.1063                 1.0972
 IR Intens:       14.479                 14.495                  2.840

 STANDARD THERMODYNAMIC QUANTITIES AT   298.15 K  AND     1.00 ATM

   This Molecule has  0 Imaginary Frequencies
   Zero point vibrational energy:      166.295 kcal/mol

   Atom    1 Element C  Has Mass   12.00000
   Atom    2 Element C  Has Mass   12.00000
   Atom    3 Element C  Has Mass   12.00000
   Atom    4 Element C  Has Mass   12.00000
   Atom    5 Element O  Has Mass   15.99491
   Atom    6 Element O  Has Mass   15.99491
   Atom    7 Element O  Has Mass   15.99491
   Atom    8 Element O  Has Mass   15.99491
   Atom    9 Element C  Has Mass   12.00000
   Atom   10 Element C  Has Mass   12.00000
   Atom   11 Element C  Has Mass   12.00000
   Atom   12 Element C  Has Mass   12.00000
   Atom   13 Element C  Has Mass   12.00000
   Atom   14 Element C  Has Mass   12.00000
   Atom   15 Element O  Has Mass   15.99491
   Atom   16 Element H  Has Mass    1.00783
   Atom   17 Element H  Has Mass    1.00783
   Atom   18 Element H  Has Mass    1.00783
   Atom   19 Element H  Has Mass    1.00783
   Atom   20 Element H  Has Mass    1.00783
   Atom   21 Element H  Has Mass    1.00783
   Atom   22 Element H  Has Mass    1.00783
   Atom   23 Element H  Has Mass    1.00783
   Atom   24 Element H  Has Mass    1.00783
   Atom   25 Element H  Has Mass    1.00783
   Atom   26 Element H  Has Mass    1.00783
   Atom   27 Element H  Has Mass    1.00783
   Atom   28 Element H  Has Mass    1.00783
   Atom   29 Element C  Has Mass   12.00000
   Atom   30 Element H  Has Mass    1.00783
   Atom   31 Element H  Has Mass    1.00783
   Atom   32 Element H  Has Mass    1.00783
   Molecular Mass:   228.099830 amu
   Principal axes and moments of inertia in amu*Bohr^2:
                             1           2           3
    Eigenvalues --     2655.53510  3417.80715  5126.67951
          X               0.99998    -0.00319     0.00561
          Y               0.00318     0.99999     0.00238
          Z              -0.00562    -0.00236     0.99998
   Rotational Symmetry Number is   1
   The Molecule is an Asymmetric Top
   Translational Enthalpy:        0.889 kcal/mol
   Rotational Enthalpy:           0.889 kcal/mol
   Vibrational Enthalpy:        174.468 kcal/mol
   gas constant (RT):             0.592 kcal/mol
   Translational Entropy:        42.176  cal/mol.K
   Rotational Entropy:           32.209  cal/mol.K
   Vibrational Entropy:          53.824  cal/mol.K

   Total Enthalpy:              176.838 kcal/mol
   Total Entropy:               128.209  cal/mol.K

 Total job time:  10250.14s(wall), 58480.56s(cpu)
        *  Thank you very much for using Q-Chem.  Have a nice day.  *
