 Q-Chem 5.0, Q-Chem, Inc., Pleasanton, CA (2017)
 Q-Chem 5.0.0 for Intel X86 EM64T Linux

User input:
--------------------------------------------------------------
$molecule
0  1
C    0.304  -2.425   0.241
C   -0.187  -2.670   1.539
C    0.664  -1.037  -0.131
C   -0.223  -1.586   2.547
O    1.892  -1.027  -0.706
O   -0.050  -0.071   0.073
O    1.036  -1.102   2.698
O   -1.208  -1.281   3.197
C    1.131  -0.051   3.659
C    2.346   0.277  -1.069
C    0.337  -3.468  -0.713
C   -0.078  -4.750  -0.324
C   -0.556  -4.992   0.965
C   -0.619  -3.961   1.912
H    0.496   0.792   3.371
H    1.683   0.717  -1.820
H   -0.885  -5.997   1.223
H    0.862  -0.417   4.655
H    2.169   0.291   3.685
H    3.345   0.180  -1.503
H    2.413   0.921  -0.186
H   -0.050  -5.576  -1.034
C   -1.153  -4.262   3.286
C    0.800  -3.263  -2.130
H    0.377  -2.346  -2.553
H    0.472  -4.085  -2.776
H    1.893  -3.221  -2.170
H   -2.134  -3.796   3.422
H   -0.464  -3.904   4.057
H   -1.273  -5.340   3.441
$end

$opt
CONSTRAINT
tors    2    1    3    5    130.2
tors    1    2    4    7    -57.3
ENDCONSTRAINT
$end

$rem
JOBTYPE                   OPT
METHOD                    B3LYP
DFT_D                     D3_OP
BASIS                     STO-3G
GEOM_OPT_MAX_CYCLES       500
SYMMETRY                  False
THRESH                    12
SCF_CONVERGENCE           8
MAX_SUB_FILE_NUM          128
MEM_STATIC                400
MEM_TOTAL                 4000
$end

--------------------------------------------------------------

   15    -756.7774928998      6.43E-09 Convergence criterion met
 Total energy in the final basis set = -756.7774928998
   14    -756.8051438549      5.49E-09 Convergence criterion met
 Total energy in the final basis set = -756.8051438549
   14    -756.8076134289      2.90E-09 Convergence criterion met
 Total energy in the final basis set = -756.8076134289
   12    -756.8079071297      9.87E-09 Convergence criterion met
 Total energy in the final basis set = -756.8079071297
   11    -756.8079275282      3.36E-09 Convergence criterion met
 Total energy in the final basis set = -756.8079275282
   11    -756.8079395846      4.13E-09 Convergence criterion met
 Total energy in the final basis set = -756.8079395846
   11    -756.8079562793      2.83E-09 Convergence criterion met
 Total energy in the final basis set = -756.8079562793
   11    -756.8079951513      4.98E-09 Convergence criterion met
 **  OPTIMIZATION CONVERGED  **
 Total job time:  147.20s(wall), 3385.88s(cpu)
        *  Thank you very much for using Q-Chem.  Have a nice day.  *

User input: 2 of 3

nid03056 10.128.12
Q-Chem Developer Version! Running on 10.128.12.*
                  Welcome to Q-Chem
     A Quantum Leap Into The Future Of Chemistry

 Q-Chem 5.0, Q-Chem, Inc., Pleasanton, CA (2017)

 Yihan Shao,  Zhengting Gan,  E. Epifanovsky,  A. T. B. Gilbert,  M. Wormit,
 J. Kussmann,  A. W. Lange,  A. Behn,  Jia Deng,  Xintian Feng,  D. Ghosh,
 M. Goldey,  P. R. Horn,  L. D. Jacobson,  I. Kaliman,  T. Kus,  A. Landau,
 Jie Liu,  E. I. Proynov,  R. M. Richard,  R. P. Steele,  E. J. Sundstrom,
 H. L. Woodcock III,  P. M. Zimmerman,  D. Zuev,  B. Albrecht,  E. Alguire,
 S. A. Baeppler,  Z. Benda,  Y. A. Bernard,  E. J. Berquist,  K. B. Bravaya,
 D. Casanova,  Chun-Min Chang,  Yunqing Chen,  A. Chien,  K. D. Closser,
 M. P. Coons,  S. Dasgupta,  M. Diedenhofen,  Hainam Do,  R. G. Edgar,
 Po-Tung Fang,  S. Fatehi,  Qingguo Feng,  Qinghui Ge,  A. Ghysels,
 J. Gomes,  J. Gonthier,  A. Gunina,  M. W. D. Hanson-Heine,
 P. H. P. Harbach,  A. W. Hauser,  J. E. Herr,  E. G. Hohenstein,
 Z. C. Holden,  Kerwin Hui,  T.-C. Jagau,  Hyunjun Ji,  B. Kaduk,
 K. Khistyaev,  Jaehoon Kim,  P. Klunzinger,  K. Koh,  D. Kosenkov,
 T. Kowalczyk,  C. M. Krauter,  A. Kunitsa,  Ka Un Lao,  A. Laurent,
 K. V. Lawler,  Joonho Lee,  D. Lefrancois,  S. Lehtola,  D. S. Levine,
 Yi-Pei Li,  You-Sheng Lin,  Fenglai Liu,  E. Livshits,  A. Luenser,
 P. Manohar,  E. Mansoor,  S. F. Manzer,  Shan-Ping Mao,  Yuezhi Mao,
 N. Mardirossian,  A. V. Marenich,  L. A. Martinez-Martinez,  S. A. Maurer,
 N. J. Mayhall,  S. C. McKenzie,  J.-M. Mewes,  A. F. Morrison,  K. Nanda,
 T. S. Nguyen-Beck,  R. Olivares-Amaya,  J. A. Parkhill,  T. M. Perrine,
 F. Plasser,  S. Prager,  A. Prociuk,  D. R. Rehn,  F. Rob,  M. Schneider,
 N. Sergueev,  S. M. Sharada,  S. Sharma,  D. W. Small,  T. Stauch,
 T. Stein,  Yu-Chuan Su,  A. J. W. Thom,  T. Tsuchimochi,  L. Vogt,
 O. Vydrov,  M. A. Watson,  J. Wenzel,  M. de Wergifosse,  T. A. Wesolowski,
 A. White,  J. Witte,  A. Yamada,  Jun Yang,  K. Yao,  S. Yeganeh,
 S. R. Yost,  Zhi-Qiang You,  A. Zech,  Igor Ying Zhang,  Xing Zhang,
 Yan Zhao,  Ying Zhu,  B. R. Brooks,  G. K. L. Chan,  C. J. Cramer,
 M. S. Gordon,  W. J. Hehre,  A. Klamt,  M. W. Schmidt,  C. D. Sherrill,
 D. G. Truhlar,  A. Aspuru-Guzik,  R. Baer,  A. T. Bell,  N. A. Besley,
 Jeng-Da Chai,  A. Dreuw,  B. D. Dunietz,  T. R. Furlani,  Chao-Ping Hsu,
 Yousung Jung,  Jing Kong,  D. S. Lambrecht,  WanZhen Liang,  C. Ochsenfeld,
 V. A. Rassolov,  L. V. Slipchenko,  J. E. Subotnik,  T. Van Voorhis,
 J. M. Herbert,  A. I. Krylov,  P. M. W. Gill,  M. Head-Gordon

 Contributors to earlier versions of Q-Chem not listed above:
 R. D. Adamson,  B. Austin,  J. Baker,  G. J. O. Beran,  K. Brandhorst,
 S. T. Brown,  E. F. C. Byrd,  A. K. Chakraborty,  C.-L. Cheng,
 Siu Hung Chien,  D. M. Chipman,  D. L. Crittenden,  H. Dachsel,
 R. A. DiStasio Jr.,  R. J. Doerksen,  A. D. Dutoi,  L. Fusti-Molnar,
 W. A. Goddard III,  A. Golubeva-Zadorozhnaya,  S. R. Gwaltney,  G. Hawkins,
 A. Heyden,  S. Hirata,  G. Kedziora,  F. J. Keil,  C. Kelley,  Jihan Kim,
 R. A. King,  R. Z. Khaliullin,  P. P. Korambath,  W. Kurlancheek,
 A. M. Lee,  M. S. Lee,  S. V. Levchenko,  Ching Yeh Lin,  D. Liotard,
 R. C. Lochan,  I. Lotan,  P. E. Maslen,  N. Nair,  D. P. O'Neill,
 D. Neuhauser,  E. Neuscamman,  C. M. Oana,  R. Olson,  B. Peters,
 R. Peverati,  P. A. Pieniazek,  Y. M. Rhee,  J. Ritchie,  M. A. Rohrdanz,
 E. Rosta,  N. J. Russ,  H. F. Schaefer III,  N. E. Schultz,  N. Shenvi,
 A. C. Simmonett,  A. Sodt,  D. Stuck,  K. S. Thanthiriwatte,  V. Vanovschi,
 Tao Wang,  A. Warshel,  C. F. Williams,  Q. Wu,  X. Xu,  W. Zhang

 Please cite Q-Chem as follows:
 Y. Shao et al., Mol. Phys. 113, 184-215 (2015)
 DOI: 10.1080/00268976.2014.952696

 Q-Chem 5.0.0 for Intel X86 EM64T Linux

 Parts of Q-Chem use Armadillo 5.200.1 (Boston Tea Smuggler).
 http://arma.sourceforge.net/

 Q-Chem begins on Wed Oct  4 18:28:53 2017

Host: nid03056
0

     Scratch files written to /global/cscratch1/sd/junteng/scratch/18/opt_11n11-o.save//
The previous job contains 0 fragments, simply inherited here

Checking the input file for inconsistencies... 	...done.

--------------------------------------------------------------
User input:
--------------------------------------------------------------

$molecule
   read
$end

$rem
JOBTYPE                   OPT
METHOD                    B3LYP
DFT_D                     D3_OP
BASIS                     6-311++G(d,p)
GEOM_OPT_MAX_CYCLES       500
GEOM_OPT_TOL_GRADIENT     1
GEOM_OPT_TOL_DISPLACEMENT 1
GEOM_OPT_TOL_ENERGY       1
SYMMETRY                  False
THRESH                    12
SCF_CONVERGENCE           8
MAX_SUB_FILE_NUM          128
MEM_STATIC                400
MEM_TOTAL                 4000
$end

--------------------------------------------------------------

    7    -766.8750238985      7.57E-09 Convergence criterion met
 Total energy in the final basis set = -766.8750238985
    7    -766.8750238663      4.75E-09 Convergence criterion met
 Total energy in the final basis set = -766.8750238663
    6    -766.8750238360      7.64E-09 Convergence criterion met
 Total energy in the final basis set = -766.8750238360
    6    -766.8750238181      4.61E-09 Convergence criterion met
 Total energy in the final basis set = -766.8750238181
    5    -766.8750238040      6.15E-09 Convergence criterion met
 Total energy in the final basis set = -766.8750238040
    4    -766.8750237972      7.18E-09 Convergence criterion met
 Total energy in the final basis set = -766.8750237972
 Final energy is   -766.875023797250
        *  Thank you very much for using Q-Chem.  Have a nice day.  *
 Q-Chem 5.0, Q-Chem, Inc., Pleasanton, CA (2017)
 Q-Chem 5.0.0 for Intel X86 EM64T Linux

             Standard Nuclear Orientation (Angstroms)
    I     Atom           X                Y                Z
 ----------------------------------------------------------------
    1      C       0.2187683268    -0.7248057571    -0.0975563434
    2      C      -0.9818203241     0.0064915947    -0.0412715964
    3      C       1.5016630914     0.0021630108    -0.3736364214
    4      C      -0.9591869968     1.4988102499    -0.1557384279
    5      O       2.4377345207    -0.2628091246     0.5560482579
    6      O       1.6883748343     0.7200865627    -1.3269128855
    7      O      -0.0327084212     2.0399813743     0.6632518219
    8      O      -1.6872420679     2.1496341628    -0.8644144421
    9      C       0.1827210823     3.4553937316     0.5184791783
   10      C       3.7186251682     0.3619232798     0.3524368168
   11      C       0.2134510218    -2.1273742262    -0.0106618382
   12      C      -1.0201522722    -2.7596539689     0.1544038534
   13      C      -2.2038795040    -2.0372656928     0.2271104586
   14      C      -2.2179798363    -0.6457299934     0.1195855809
   15      H       0.5609435598     3.6707658648    -0.4822085651
   16      H       4.1461349751     0.0532553662    -0.6028046794
   17      H      -3.1418661125    -2.5651226788     0.3635239470
   18      H      -0.7451600013     4.0041261739     0.6836411552
   19      H       0.9222896652     3.7140601738     1.2729967582
   20      H       4.3392725055     0.0251046764     1.1796088660
   21      H       3.6158774369     1.4479112818     0.3656903970
   22      H      -1.0533300194    -3.8421714202     0.2201255872
   23      C      -3.5325953222     0.0942538505     0.1859347654
   24      C       1.4703034493    -2.9596218130    -0.1133270355
   25      H       2.0845430195    -2.6646526808    -0.9683290058
   26      H       1.2167745603    -4.0143395705    -0.2339814887
   27      H       2.0880466246    -2.8541537102     0.7811642810
   28      H      -3.7959686773     0.5130584391    -0.7876076006
   29      H      -3.4964349963     0.9306468353     0.8879953641
   30      H      -4.3299007724    -0.5811381478     0.5018490227
 ----------------------------------------------------------------

   15    -766.8750393947      8.79E-09 Convergence criterion met
 Total energy in the final basis set = -766.8750393947

                    Orbital Energies (a.u.)
 --------------------------------------------------------------

 Alpha MOs
 -- Occupied --
-19.178 -19.172 -19.120 -19.116 -10.312 -10.307 -10.233 -10.226
-10.205 -10.203 -10.201 -10.200 -10.187 -10.185 -10.176 -10.169
 -1.121  -1.113  -1.032  -1.027  -0.885  -0.808  -0.792  -0.748
 -0.732  -0.726  -0.674  -0.648  -0.620  -0.576  -0.568  -0.531
 -0.519  -0.513  -0.490  -0.487  -0.480  -0.476  -0.469  -0.441
 -0.436  -0.428  -0.423  -0.415  -0.412  -0.406  -0.395  -0.388
 -0.380  -0.372  -0.359  -0.358  -0.357  -0.320  -0.311  -0.298
 -0.287  -0.265  -0.253

          Ground-State Mulliken Net Atomic Charges

     Atom                 Charge (a.u.)
  ----------------------------------------
      1 C                     0.470047
      2 C                     0.514440
      3 C                    -0.851696
      4 C                    -0.487541
      5 O                     0.024524
      6 O                    -0.145335
      7 O                     0.007404
      8 O                    -0.190618
      9 C                    -0.222220
     10 C                    -0.214656
     11 C                     0.605487
     12 C                    -0.563005
     13 C                    -0.649660
     14 C                     0.524972
     15 H                     0.193041
     16 H                     0.187045
     17 H                     0.126647
     18 H                     0.172538
     19 H                     0.151617
     20 H                     0.158004
     21 H                     0.158116
     22 H                     0.130086
     23 C                    -0.566713
     24 C                    -0.570146
     25 H                     0.172424
     26 H                     0.150308
     27 H                     0.194186
     28 H                     0.204469
     29 H                     0.176128
     30 H                     0.140107
  ----------------------------------------
  Sum of atomic charges =     0.000000

                    Cartesian Multipole Moments
 -----------------------------------------------------------------
    Charge (ESU x 10^10)
                 0.0000
    Dipole Moment (Debye)
         X       1.6294      Y      -1.4693      Z       2.4840
       Tot       3.3142
    Quadrupole Moments (Debye-Ang)
        XX     -82.5530     XY       5.0912     YY     -84.1143
        XZ      -0.4162     YZ       6.0961     ZZ    -102.0057

 Frequency:        25.00                  54.57                  70.39
 Force Cnst:      0.0020                 0.0072                 0.0109
 Red. Mass:       5.4240                 4.0854                 3.7223
 IR Intens:        0.458                  0.044                  2.267
 Frequency:        81.62                 114.37                 117.89
 Force Cnst:      0.0124                 0.0114                 0.0139
 Red. Mass:       3.1715                 1.4816                 1.7008
 IR Intens:        4.863                  0.234                  0.494
 Frequency:       126.40                 132.83                 142.36
 Force Cnst:      0.0188                 0.0176                 0.0172
 Red. Mass:       1.9967                 1.6904                 1.4412
 IR Intens:        1.857                  2.777                  1.083
 Frequency:       150.77                 157.34                 221.68
 Force Cnst:      0.0211                 0.0176                 0.1460
 Red. Mass:       1.5735                 1.2055                 5.0429
 IR Intens:        0.274                  0.481                  0.322
 Frequency:       242.35                 252.51                 291.25
 Force Cnst:      0.1990                 0.1707                 0.1601
 Red. Mass:       5.7511                 4.5431                 3.2027
 IR Intens:        0.968                  3.645                  1.777
 Frequency:       303.82                 317.17                 322.80
 Force Cnst:      0.2662                 0.2417                 0.2155
 Red. Mass:       4.8941                 4.0786                 3.5102
 IR Intens:        4.375                 12.786                  5.605
 Frequency:       368.11                 402.23                 424.42
 Force Cnst:      0.4530                 0.3735                 0.5234
 Red. Mass:       5.6737                 3.9185                 4.9311
 IR Intens:        5.343                  6.501                  1.205
 Frequency:       487.10                 496.04                 557.52
 Force Cnst:      0.6019                 0.5420                 0.7995
 Red. Mass:       4.3059                 3.7386                 4.3658
 IR Intens:        1.284                  9.979                  1.510
 Frequency:       616.88                 713.82                 724.47
 Force Cnst:      1.0675                 1.8571                 1.9320
 Red. Mass:       4.7612                 6.1859                 6.2476
 IR Intens:        7.047                  1.639                  0.339
 Frequency:       737.18                 799.37                 805.59
 Force Cnst:      1.9910                 2.1323                 2.3324
 Red. Mass:       6.2182                 5.6638                 6.0999
 IR Intens:       23.122                  7.883                 10.141
 Frequency:       815.57                 832.53                 889.35
 Force Cnst:      2.8925                 0.5232                 2.6414
 Red. Mass:       7.3808                 1.2812                 5.6681
 IR Intens:        8.703                 19.951                  4.816
 Frequency:       922.95                 971.14                 988.85
 Force Cnst:      2.1955                 0.7399                 1.4654
 Red. Mass:       4.3744                 1.3315                 2.5437
 IR Intens:        9.707                  0.137                  5.730
 Frequency:       998.65                1046.91                1055.76
 Force Cnst:      2.8960                 0.9978                 1.5888
 Red. Mass:       4.9286                 1.5451                 2.4192
 IR Intens:       11.703                  3.015                 61.364
 Frequency:      1060.92                1064.29                1135.05
 Force Cnst:      1.0619                 1.0108                 3.9813
 Red. Mass:       1.6013                 1.5146                 5.2450
 IR Intens:        5.194                  3.523                 93.328
 Frequency:      1169.31                1171.96                1186.37
 Force Cnst:      1.0362                 1.0433                 1.3133
 Red. Mass:       1.2862                 1.2892                 1.5836
 IR Intens:        0.393                  2.437                101.981
 Frequency:      1203.53                1211.73                1223.26
 Force Cnst:      1.5219                 1.3802                 2.7827
 Red. Mass:       1.7833                 1.5954                 3.1563
 IR Intens:       16.065                 10.655                289.192
 Frequency:      1274.07                1289.08                1293.82
 Force Cnst:      1.9563                 6.0141                 3.6125
 Red. Mass:       2.0455                 6.1427                 3.6628
 IR Intens:       32.442                175.376                184.587
 Frequency:      1317.10                1421.58                1422.95
 Force Cnst:      6.1902                 1.4802                 1.4789
 Red. Mass:       6.0564                 1.2432                 1.2396
 IR Intens:       53.663                  1.598                  4.374
 Frequency:      1433.43                1466.25                1469.49
 Force Cnst:      3.4521                 1.5425                 1.5822
 Red. Mass:       2.8515                 1.2178                 1.2436
 IR Intens:       51.435                 18.817                 37.832
 Frequency:      1481.21                1482.12                1484.99
 Force Cnst:      1.4413                 1.3631                 1.3582
 Red. Mass:       1.1150                 1.0532                 1.0454
 IR Intens:        3.022                  6.154                 15.565
 Frequency:      1486.87                1490.58                1495.93
 Force Cnst:      1.4383                 1.4313                 1.3817
 Red. Mass:       1.1043                 1.0934                 1.0479
 IR Intens:        0.355                 10.116                 16.621
 Frequency:      1496.95                1502.33                1504.04
 Force Cnst:      1.3913                 1.5385                 3.0940
 Red. Mass:       1.0538                 1.1570                 2.3214
 IR Intens:        2.380                 11.354                 16.961
 Frequency:      1609.25                1633.77                1771.24
 Force Cnst:      8.1504                11.1157                21.8441
 Red. Mass:       5.3417                 7.0681                11.8176
 IR Intens:       12.412                  2.349                155.581
 Frequency:      1781.18                3037.06                3041.04
 Force Cnst:     21.8963                 5.6331                 5.6426
 Red. Mass:      11.7140                 1.0365                 1.0356
 IR Intens:      363.793                 25.405                 22.578
 Frequency:      3049.96                3050.73                3093.35
 Force Cnst:      5.6429                 5.6441                 6.1987
 Red. Mass:       1.0296                 1.0293                 1.0995
 IR Intens:       27.501                 40.672                 12.554
 Frequency:      3098.74                3110.08                3110.95
 Force Cnst:      6.2233                 6.2820                 6.2890
 Red. Mass:       1.1000                 1.1023                 1.1029
 IR Intens:       10.859                 16.344                 15.193
 Frequency:      3122.85                3126.32                3156.92
 Force Cnst:      6.3606                 6.3754                 6.4972
 Red. Mass:       1.1070                 1.1071                 1.1065
 IR Intens:       17.659                 13.671                 13.089
 Frequency:      3158.01                3161.05                3178.21
 Force Cnst:      6.5002                 6.4001                 6.5137
 Red. Mass:       1.1062                 1.0871                 1.0945
 IR Intens:       12.634                  8.195                 20.190

 STANDARD THERMODYNAMIC QUANTITIES AT   298.15 K  AND     1.00 ATM

   This Molecule has  0 Imaginary Frequencies
   Zero point vibrational energy:      150.547 kcal/mol

   Atom    1 Element C  Has Mass   12.00000
   Atom    2 Element C  Has Mass   12.00000
   Atom    3 Element C  Has Mass   12.00000
   Atom    4 Element C  Has Mass   12.00000
   Atom    5 Element O  Has Mass   15.99491
   Atom    6 Element O  Has Mass   15.99491
   Atom    7 Element O  Has Mass   15.99491
   Atom    8 Element O  Has Mass   15.99491
   Atom    9 Element C  Has Mass   12.00000
   Atom   10 Element C  Has Mass   12.00000
   Atom   11 Element C  Has Mass   12.00000
   Atom   12 Element C  Has Mass   12.00000
   Atom   13 Element C  Has Mass   12.00000
   Atom   14 Element C  Has Mass   12.00000
   Atom   15 Element H  Has Mass    1.00783
   Atom   16 Element H  Has Mass    1.00783
   Atom   17 Element H  Has Mass    1.00783
   Atom   18 Element H  Has Mass    1.00783
   Atom   19 Element H  Has Mass    1.00783
   Atom   20 Element H  Has Mass    1.00783
   Atom   21 Element H  Has Mass    1.00783
   Atom   22 Element H  Has Mass    1.00783
   Atom   23 Element C  Has Mass   12.00000
   Atom   24 Element C  Has Mass   12.00000
   Atom   25 Element H  Has Mass    1.00783
   Atom   26 Element H  Has Mass    1.00783
   Atom   27 Element H  Has Mass    1.00783
   Atom   28 Element H  Has Mass    1.00783
   Atom   29 Element H  Has Mass    1.00783
   Atom   30 Element H  Has Mass    1.00783
   Molecular Mass:   222.089260 amu
   Principal axes and moments of inertia in amu*Bohr^2:
                             1           2           3
    Eigenvalues --     2864.91043  3197.06741  5575.04360
          X               0.99994     0.01119     0.00006
          Y              -0.01119     0.99990     0.00868
          Z               0.00003    -0.00868     0.99996
   Rotational Symmetry Number is   1
   The Molecule is an Asymmetric Top
   Translational Enthalpy:        0.889 kcal/mol
   Rotational Enthalpy:           0.889 kcal/mol
   Vibrational Enthalpy:        159.368 kcal/mol
   gas constant (RT):             0.592 kcal/mol
   Translational Entropy:        42.096  cal/mol.K
   Rotational Entropy:           32.301  cal/mol.K
   Vibrational Entropy:          58.350  cal/mol.K

   Total Enthalpy:              161.738 kcal/mol
   Total Entropy:               132.747  cal/mol.K

 Total job time:  8323.55s(wall), 47208.02s(cpu)
        *  Thank you very much for using Q-Chem.  Have a nice day.  *
