 Q-Chem 5.0, Q-Chem, Inc., Pleasanton, CA (2017)
 Q-Chem 5.0.0 for Intel X86 EM64T Linux

User input:
--------------------------------------------------------------
$molecule
0  1
C    0.711  -1.958   0.589
C   -0.299  -1.995   1.756
C    1.089  -0.603   0.022
C   -0.528  -0.668   2.454
O    2.255  -0.726  -0.682
O    0.458   0.435   0.138
O    0.672  -0.221   2.944
O   -1.603  -0.140   2.687
C    0.580   1.027   3.634
C    2.698   0.490  -1.286
C   -0.031  -2.720  -0.508
C   -0.144  -4.202  -0.153
C   -1.210  -4.188   0.944
C   -1.515  -2.680   1.086
O   -1.391  -2.278  -0.299
H    1.639  -2.461   0.888
H    0.068  -2.659   2.552
H   -0.050   0.928   4.523
H    1.951   0.864  -1.993
H   -0.511  -4.776  -1.011
H    0.804  -4.638   0.173
H   -2.087  -4.746   0.595
H   -0.869  -4.649   1.876
H    1.587   1.311   3.953
H    0.196   1.807   2.969
H    3.619   0.278  -1.837
H    2.918   1.240  -0.519
H    0.300  -2.531  -1.532
C   -2.908  -2.427   1.624
H   -3.642  -3.061   1.114
H   -2.968  -2.632   2.696
H   -3.235  -1.402   1.426
$end

$opt
CONSTRAINT
tors    2    1    3    5    157.3
tors    1    2    4    7    -65.0
ENDCONSTRAINT
$end

$rem
JOBTYPE                   OPT
METHOD                    B3LYP
DFT_D                     D3_OP
BASIS                     STO-3G
GEOM_OPT_MAX_CYCLES       500
SYMMETRY                  False
THRESH                    12
SCF_CONVERGENCE           8
MAX_SUB_FILE_NUM          128
MEM_STATIC                400
MEM_TOTAL                 4000
$end

--------------------------------------------------------------

   14    -794.5514909720      6.56E-09 Convergence criterion met
 Total energy in the final basis set = -794.5514909720
   13    -794.5812951771      4.13E-09 Convergence criterion met
 Total energy in the final basis set = -794.5812951771
   13    -794.5887541494      4.94E-09 Convergence criterion met
 Total energy in the final basis set = -794.5887541494
   12    -794.5896395554      4.74E-09 Convergence criterion met
 Total energy in the final basis set = -794.5896395554
   12    -794.5899851358      3.06E-09 Convergence criterion met
 Total energy in the final basis set = -794.5899851358
   11    -794.5902123125      6.70E-09 Convergence criterion met
 Total energy in the final basis set = -794.5902123125
   11    -794.5904332280      6.39E-09 Convergence criterion met
 Total energy in the final basis set = -794.5904332280
   11    -794.5906572283      6.81E-09 Convergence criterion met
 **  OPTIMIZATION CONVERGED  **
 Total job time:  58.21s(wall), 1373.40s(cpu)
        *  Thank you very much for using Q-Chem.  Have a nice day.  *

User input: 2 of 3

nid05754 10.128.22
Q-Chem Developer Version! Running on 10.128.22.*
                  Welcome to Q-Chem
     A Quantum Leap Into The Future Of Chemistry

 Q-Chem 5.0, Q-Chem, Inc., Pleasanton, CA (2017)

 Yihan Shao,  Zhengting Gan,  E. Epifanovsky,  A. T. B. Gilbert,  M. Wormit,
 J. Kussmann,  A. W. Lange,  A. Behn,  Jia Deng,  Xintian Feng,  D. Ghosh,
 M. Goldey,  P. R. Horn,  L. D. Jacobson,  I. Kaliman,  T. Kus,  A. Landau,
 Jie Liu,  E. I. Proynov,  R. M. Richard,  R. P. Steele,  E. J. Sundstrom,
 H. L. Woodcock III,  P. M. Zimmerman,  D. Zuev,  B. Albrecht,  E. Alguire,
 S. A. Baeppler,  Z. Benda,  Y. A. Bernard,  E. J. Berquist,  K. B. Bravaya,
 D. Casanova,  Chun-Min Chang,  Yunqing Chen,  A. Chien,  K. D. Closser,
 M. P. Coons,  S. Dasgupta,  M. Diedenhofen,  Hainam Do,  R. G. Edgar,
 Po-Tung Fang,  S. Fatehi,  Qingguo Feng,  Qinghui Ge,  A. Ghysels,
 J. Gomes,  J. Gonthier,  A. Gunina,  M. W. D. Hanson-Heine,
 P. H. P. Harbach,  A. W. Hauser,  J. E. Herr,  E. G. Hohenstein,
 Z. C. Holden,  Kerwin Hui,  T.-C. Jagau,  Hyunjun Ji,  B. Kaduk,
 K. Khistyaev,  Jaehoon Kim,  P. Klunzinger,  K. Koh,  D. Kosenkov,
 T. Kowalczyk,  C. M. Krauter,  A. Kunitsa,  Ka Un Lao,  A. Laurent,
 K. V. Lawler,  Joonho Lee,  D. Lefrancois,  S. Lehtola,  D. S. Levine,
 Yi-Pei Li,  You-Sheng Lin,  Fenglai Liu,  E. Livshits,  A. Luenser,
 P. Manohar,  E. Mansoor,  S. F. Manzer,  Shan-Ping Mao,  Yuezhi Mao,
 N. Mardirossian,  A. V. Marenich,  L. A. Martinez-Martinez,  S. A. Maurer,
 N. J. Mayhall,  S. C. McKenzie,  J.-M. Mewes,  A. F. Morrison,  K. Nanda,
 T. S. Nguyen-Beck,  R. Olivares-Amaya,  J. A. Parkhill,  T. M. Perrine,
 F. Plasser,  S. Prager,  A. Prociuk,  D. R. Rehn,  F. Rob,  M. Schneider,
 N. Sergueev,  S. M. Sharada,  S. Sharma,  D. W. Small,  T. Stauch,
 T. Stein,  Yu-Chuan Su,  A. J. W. Thom,  T. Tsuchimochi,  L. Vogt,
 O. Vydrov,  M. A. Watson,  J. Wenzel,  M. de Wergifosse,  T. A. Wesolowski,
 A. White,  J. Witte,  A. Yamada,  Jun Yang,  K. Yao,  S. Yeganeh,
 S. R. Yost,  Zhi-Qiang You,  A. Zech,  Igor Ying Zhang,  Xing Zhang,
 Yan Zhao,  Ying Zhu,  B. R. Brooks,  G. K. L. Chan,  C. J. Cramer,
 M. S. Gordon,  W. J. Hehre,  A. Klamt,  M. W. Schmidt,  C. D. Sherrill,
 D. G. Truhlar,  A. Aspuru-Guzik,  R. Baer,  A. T. Bell,  N. A. Besley,
 Jeng-Da Chai,  A. Dreuw,  B. D. Dunietz,  T. R. Furlani,  Chao-Ping Hsu,
 Yousung Jung,  Jing Kong,  D. S. Lambrecht,  WanZhen Liang,  C. Ochsenfeld,
 V. A. Rassolov,  L. V. Slipchenko,  J. E. Subotnik,  T. Van Voorhis,
 J. M. Herbert,  A. I. Krylov,  P. M. W. Gill,  M. Head-Gordon

 Contributors to earlier versions of Q-Chem not listed above:
 R. D. Adamson,  B. Austin,  J. Baker,  G. J. O. Beran,  K. Brandhorst,
 S. T. Brown,  E. F. C. Byrd,  A. K. Chakraborty,  C.-L. Cheng,
 Siu Hung Chien,  D. M. Chipman,  D. L. Crittenden,  H. Dachsel,
 R. A. DiStasio Jr.,  R. J. Doerksen,  A. D. Dutoi,  L. Fusti-Molnar,
 W. A. Goddard III,  A. Golubeva-Zadorozhnaya,  S. R. Gwaltney,  G. Hawkins,
 A. Heyden,  S. Hirata,  G. Kedziora,  F. J. Keil,  C. Kelley,  Jihan Kim,
 R. A. King,  R. Z. Khaliullin,  P. P. Korambath,  W. Kurlancheek,
 A. M. Lee,  M. S. Lee,  S. V. Levchenko,  Ching Yeh Lin,  D. Liotard,
 R. C. Lochan,  I. Lotan,  P. E. Maslen,  N. Nair,  D. P. O'Neill,
 D. Neuhauser,  E. Neuscamman,  C. M. Oana,  R. Olson,  B. Peters,
 R. Peverati,  P. A. Pieniazek,  Y. M. Rhee,  J. Ritchie,  M. A. Rohrdanz,
 E. Rosta,  N. J. Russ,  H. F. Schaefer III,  N. E. Schultz,  N. Shenvi,
 A. C. Simmonett,  A. Sodt,  D. Stuck,  K. S. Thanthiriwatte,  V. Vanovschi,
 Tao Wang,  A. Warshel,  C. F. Williams,  Q. Wu,  X. Xu,  W. Zhang

 Please cite Q-Chem as follows:
 Y. Shao et al., Mol. Phys. 113, 184-215 (2015)
 DOI: 10.1080/00268976.2014.952696

 Q-Chem 5.0.0 for Intel X86 EM64T Linux

 Parts of Q-Chem use Armadillo 5.200.1 (Boston Tea Smuggler).
 http://arma.sourceforge.net/

 Q-Chem begins on Wed Oct  4 17:38:14 2017

Host: nid05754
0

     Scratch files written to /global/cscratch1/sd/junteng/scratch/14/opt_1101--.save//
The previous job contains 0 fragments, simply inherited here

Checking the input file for inconsistencies... 	...done.

--------------------------------------------------------------
User input:
--------------------------------------------------------------

$molecule
   read
$end

$rem
JOBTYPE                   OPT
METHOD                    B3LYP
DFT_D                     D3_OP
BASIS                     6-311++G(d,p)
GEOM_OPT_MAX_CYCLES       500
GEOM_OPT_TOL_GRADIENT     1
GEOM_OPT_TOL_DISPLACEMENT 1
GEOM_OPT_TOL_ENERGY       1
SYMMETRY                  False
THRESH                    12
SCF_CONVERGENCE           8
MAX_SUB_FILE_NUM          128
MEM_STATIC                400
MEM_TOTAL                 4000
$end

--------------------------------------------------------------

   10    -805.1940615825      7.98E-09 Convergence criterion met
 Total energy in the final basis set = -805.1940615825
    8    -805.1940617549      8.59E-09 Convergence criterion met
 Total energy in the final basis set = -805.1940617549
    8    -805.1940621322      3.72E-09 Convergence criterion met
 Total energy in the final basis set = -805.1940621322
    7    -805.1940621818      4.40E-09 Convergence criterion met
 Total energy in the final basis set = -805.1940621818
    6    -805.1940621843      8.62E-09 Convergence criterion met
 Total energy in the final basis set = -805.1940621843
    5    -805.1940621784      5.85E-09 Convergence criterion met
 Total energy in the final basis set = -805.1940621784
 Final energy is   -805.194062178444
        *  Thank you very much for using Q-Chem.  Have a nice day.  *
 Q-Chem 5.0, Q-Chem, Inc., Pleasanton, CA (2017)
 Q-Chem 5.0.0 for Intel X86 EM64T Linux

             Standard Nuclear Orientation (Angstroms)
    I     Atom           X                Y                Z
 ----------------------------------------------------------------
    1      C      -0.0488323576     0.8272885619     0.6273625717
    2      C       0.6577150214    -0.5679155338     0.5957586243
    3      C      -1.3319715123     0.9281407384    -0.1684913006
    4      C      -0.2335435672    -1.7149742588     0.1436202159
    5      O      -2.0712361315     1.9702402398     0.2772176923
    6      O      -1.6561708302     0.2385347980    -1.1019061605
    7      O      -1.3063866943    -1.7803069410     0.9710669573
    8      O      -0.0317330141    -2.5078171341    -0.7369516853
    9      C      -2.3084670100    -2.7506701782     0.6179845659
   10      C      -3.2907535423     2.2279234503    -0.4445136397
   11      C       1.0386491141     1.7067301734    -0.0640912497
   12      C       2.2410119716     1.8773927020     0.8892288367
   13      C       2.9195327561     0.4855345910     0.7531891952
   14      C       1.9594618337    -0.2520435715    -0.2238552872
   15      O       1.5330349622     0.8357975869    -1.0765805981
   16      H      -0.2512639310     1.1693713216     1.6412066500
   17      H       0.9301362896    -0.8322303489     1.6214209056
   18      H      -1.8919189621    -3.7588911043     0.6360195479
   19      H      -3.0755659721     2.4557166637    -1.4895707103
   20      H       2.8936014220     2.6763418012     0.5342906073
   21      H       1.9340945957     2.1182588489     1.9089611313
   22      H       3.9056318105     0.5705980986     0.2940807435
   23      H       3.0334741985    -0.0388562972     1.7039454928
   24      H      -3.0904440209    -2.6464321595     1.3673370244
   25      H      -2.6970863184    -2.5348061694    -0.3783258317
   26      H      -3.7451683312     3.0836984059     0.0498255312
   27      H      -3.9512483817     1.3609018150    -0.3958194545
   28      H       0.6574367452     2.6228126077    -0.5110312602
   29      C       2.6090792469    -1.3431436958    -1.0451206268
   30      H       3.5094199996    -0.9438950167    -1.5183043283
   31      H       2.8962205695    -2.1818650251    -0.4058231064
   32      H       1.9313222235    -1.7178897111    -1.8074140217
 ----------------------------------------------------------------

   15    -805.1940744990      3.66E-09 Convergence criterion met
 Total energy in the final basis set = -805.1940744990

                    Orbital Energies (a.u.)
 --------------------------------------------------------------

 Alpha MOs
 -- Occupied --
-19.177 -19.166 -19.128 -19.118 -19.111 -10.308 -10.303 -10.238
-10.237 -10.232 -10.222 -10.205 -10.203 -10.181 -10.177 -10.154
 -1.118  -1.107  -1.062  -1.030  -1.022  -0.831  -0.793  -0.780
 -0.748  -0.724  -0.686  -0.650  -0.603  -0.594  -0.569  -0.553
 -0.532  -0.510  -0.504  -0.491  -0.489  -0.482  -0.477  -0.471
 -0.458  -0.436  -0.425  -0.420  -0.417  -0.407  -0.394  -0.377
 -0.373  -0.369  -0.365  -0.359  -0.359  -0.349  -0.335  -0.328
 -0.319  -0.307  -0.290  -0.275  -0.271

          Ground-State Mulliken Net Atomic Charges

     Atom                 Charge (a.u.)
  ----------------------------------------
      1 C                     0.038145
      2 C                     0.304329
      3 C                    -0.919041
      4 C                    -0.434383
      5 O                    -0.011573
      6 O                    -0.187394
      7 O                    -0.019032
      8 O                    -0.188583
      9 C                    -0.180932
     10 C                    -0.230916
     11 C                     0.467369
     12 C                    -0.454114
     13 C                    -0.462541
     14 C                    -0.290826
     15 O                    -0.051611
     16 H                     0.289502
     17 H                     0.249827
     18 H                     0.165958
     19 H                     0.184110
     20 H                     0.184097
     21 H                     0.121387
     22 H                     0.173677
     23 H                     0.142972
     24 H                     0.148986
     25 H                     0.189889
     26 H                     0.150932
     27 H                     0.170211
     28 H                     0.277425
     29 C                    -0.337866
     30 H                     0.143074
     31 H                     0.158173
     32 H                     0.208749
  ----------------------------------------
  Sum of atomic charges =     0.000000

                    Cartesian Multipole Moments
 -----------------------------------------------------------------
    Charge (ESU x 10^10)
                 0.0000
    Dipole Moment (Debye)
         X      -0.8205      Y       1.9538      Z       3.4286
       Tot       4.0306
    Quadrupole Moments (Debye-Ang)
        XX     -82.7641     XY      -0.7784     YY     -91.7297
        XZ       2.3158     YZ      -4.4213     ZZ    -100.3211

 Frequency:        25.58                  34.00                  78.38
 Force Cnst:      0.0014                 0.0031                 0.0069
 Red. Mass:       3.6379                 4.5294                 1.8959
 IR Intens:        0.128                  0.582                  0.107
 Frequency:        83.26                 111.08                 124.20
 Force Cnst:      0.0149                 0.0130                 0.0212
 Red. Mass:       3.6511                 1.7901                 2.3332
 IR Intens:        4.975                  0.035                  1.058
 Frequency:       144.50                 153.46                 188.89
 Force Cnst:      0.0473                 0.0187                 0.0742
 Red. Mass:       3.8431                 1.3498                 3.5297
 IR Intens:        1.961                  0.315                  0.458
 Frequency:       213.68                 232.17                 244.76
 Force Cnst:      0.1126                 0.0762                 0.0487
 Red. Mass:       4.1851                 2.3988                 1.3799
 IR Intens:        1.495                  4.004                  1.688
 Frequency:       268.10                 294.65                 317.31
 Force Cnst:      0.1726                 0.2530                 0.1707
 Red. Mass:       4.0764                 4.9453                 2.8769
 IR Intens:        3.699                  3.981                  8.858
 Frequency:       328.49                 344.01                 359.21
 Force Cnst:      0.1907                 0.3071                 0.2080
 Red. Mass:       2.9990                 4.4037                 2.7354
 IR Intens:        0.032                 13.075                  2.897
 Frequency:       378.75                 476.88                 574.27
 Force Cnst:      0.4107                 0.5342                 0.7247
 Red. Mass:       4.8590                 3.9871                 3.7295
 IR Intens:        8.432                 13.541                 17.281
 Frequency:       606.40                 644.51                 663.81
 Force Cnst:      1.1222                 1.1706                 1.1132
 Red. Mass:       5.1798                 4.7830                 4.2877
 IR Intens:       11.267                  4.330                  0.184
 Frequency:       699.93                 750.41                 802.16
 Force Cnst:      1.7663                 1.7348                 1.3361
 Red. Mass:       6.1195                 5.2289                 3.5242
 IR Intens:        4.272                  4.593                  4.959
 Frequency:       814.23                 831.34                 841.75
 Force Cnst:      0.9739                 1.7330                 1.6451
 Red. Mass:       2.4933                 4.2558                 3.9408
 IR Intens:       10.688                 12.977                 10.712
 Frequency:       858.68                 898.57                 904.43
 Force Cnst:      1.2435                 1.1955                 1.3267
 Red. Mass:       2.8623                 2.5131                 2.7527
 IR Intens:       10.555                  7.069                  3.383
 Frequency:       915.40                 933.74                 967.43
 Force Cnst:      1.2199                 1.5829                 2.3722
 Red. Mass:       2.4708                 3.0814                 4.3018
 IR Intens:       12.486                  5.932                  2.739
 Frequency:       974.02                 993.80                1011.83
 Force Cnst:      1.9965                 1.7409                 2.4501
 Red. Mass:       3.5717                 2.9917                 4.0617
 IR Intens:       14.906                 14.260                 41.737
 Frequency:      1036.31                1062.03                1074.21
 Force Cnst:      1.1885                 2.5266                 1.7221
 Red. Mass:       1.8783                 3.8020                 2.5329
 IR Intens:       25.744                 59.876                 22.116
 Frequency:      1123.89                1137.76                1171.05
 Force Cnst:      1.3696                 1.2796                 1.0950
 Red. Mass:       1.8403                 1.6778                 1.3553
 IR Intens:       31.053                 13.870                 23.692
 Frequency:      1171.25                1179.03                1189.08
 Force Cnst:      1.0405                 1.9384                 1.6882
 Red. Mass:       1.2874                 2.3668                 2.0266
 IR Intens:        3.449                184.152                296.959
 Frequency:      1201.96                1204.66                1211.20
 Force Cnst:      1.3517                 1.3981                 1.3483
 Red. Mass:       1.5880                 1.6351                 1.5599
 IR Intens:       11.452                 44.465                 22.913
 Frequency:      1212.92                1216.70                1249.56
 Force Cnst:      1.5211                 1.5337                 1.3962
 Red. Mass:       1.7549                 1.7584                 1.5177
 IR Intens:      140.460                 79.590                 14.407
 Frequency:      1254.98                1290.52                1317.51
 Force Cnst:      1.1782                 1.8471                 1.4601
 Red. Mass:       1.2697                 1.8824                 1.4277
 IR Intens:        3.991                  8.505                 17.051
 Frequency:      1325.26                1336.17                1362.46
 Force Cnst:      1.6418                 2.0272                 1.7471
 Red. Mass:       1.5866                 1.9272                 1.5974
 IR Intens:       19.738                 10.275                 85.003
 Frequency:      1389.05                1431.37                1466.17
 Force Cnst:      1.9211                 1.5973                 1.5005
 Red. Mass:       1.6900                 1.3232                 1.1847
 IR Intens:       49.302                 14.911                 12.524
 Frequency:      1468.98                1481.80                1483.07
 Force Cnst:      1.5289                 1.3531                 1.3895
 Red. Mass:       1.2025                 1.0459                 1.0722
 IR Intens:       15.980                  8.162                  1.787
 Frequency:      1484.09                1490.88                1497.03
 Force Cnst:      1.3556                 1.3857                 1.3804
 Red. Mass:       1.0446                 1.0581                 1.0454
 IR Intens:       11.190                  2.348                 12.269
 Frequency:      1498.95                1499.68                1508.66
 Force Cnst:      1.3872                 1.3945                 1.4738
 Red. Mass:       1.0479                 1.0524                 1.0990
 IR Intens:       10.942                  8.475                  6.240
 Frequency:      1795.13                1811.33                3044.66
 Force Cnst:     21.6511                22.1999                 5.6837
 Red. Mass:      11.4035                11.4843                 1.0406
 IR Intens:       89.786                348.894                 19.129
 Frequency:      3048.70                3049.83                3055.01
 Force Cnst:      5.6373                 5.6426                 5.8781
 Red. Mass:       1.0294                 1.0296                 1.0690
 IR Intens:       34.151                 36.976                 11.856
 Frequency:      3059.78                3067.36                3094.02
 Force Cnst:      5.9050                 5.8869                 6.2459
 Red. Mass:       1.0705                 1.0620                 1.1074
 IR Intens:       23.484                 37.855                  0.622
 Frequency:      3102.66                3110.23                3116.50
 Force Cnst:      6.2500                 6.2457                 6.2747
 Red. Mass:       1.1019                 1.0958                 1.0965
 IR Intens:       12.681                 16.648                 38.229
 Frequency:      3122.49                3123.63                3128.17
 Force Cnst:      6.3594                 6.3654                 6.2850
 Red. Mass:       1.1070                 1.1073                 1.0901
 IR Intens:       19.207                 15.212                 23.817
 Frequency:      3152.56                3157.20                3164.35
 Force Cnst:      6.4787                 6.4975                 6.4728
 Red. Mass:       1.1064                 1.1063                 1.0972
 IR Intens:       14.474                 14.495                  2.862

 STANDARD THERMODYNAMIC QUANTITIES AT   298.15 K  AND     1.00 ATM

   This Molecule has  0 Imaginary Frequencies
   Zero point vibrational energy:      166.288 kcal/mol

   Atom    1 Element C  Has Mass   12.00000
   Atom    2 Element C  Has Mass   12.00000
   Atom    3 Element C  Has Mass   12.00000
   Atom    4 Element C  Has Mass   12.00000
   Atom    5 Element O  Has Mass   15.99491
   Atom    6 Element O  Has Mass   15.99491
   Atom    7 Element O  Has Mass   15.99491
   Atom    8 Element O  Has Mass   15.99491
   Atom    9 Element C  Has Mass   12.00000
   Atom   10 Element C  Has Mass   12.00000
   Atom   11 Element C  Has Mass   12.00000
   Atom   12 Element C  Has Mass   12.00000
   Atom   13 Element C  Has Mass   12.00000
   Atom   14 Element C  Has Mass   12.00000
   Atom   15 Element O  Has Mass   15.99491
   Atom   16 Element H  Has Mass    1.00783
   Atom   17 Element H  Has Mass    1.00783
   Atom   18 Element H  Has Mass    1.00783
   Atom   19 Element H  Has Mass    1.00783
   Atom   20 Element H  Has Mass    1.00783
   Atom   21 Element H  Has Mass    1.00783
   Atom   22 Element H  Has Mass    1.00783
   Atom   23 Element H  Has Mass    1.00783
   Atom   24 Element H  Has Mass    1.00783
   Atom   25 Element H  Has Mass    1.00783
   Atom   26 Element H  Has Mass    1.00783
   Atom   27 Element H  Has Mass    1.00783
   Atom   28 Element H  Has Mass    1.00783
   Atom   29 Element C  Has Mass   12.00000
   Atom   30 Element H  Has Mass    1.00783
   Atom   31 Element H  Has Mass    1.00783
   Atom   32 Element H  Has Mass    1.00783
   Molecular Mass:   228.099830 amu
   Principal axes and moments of inertia in amu*Bohr^2:
                             1           2           3
    Eigenvalues --     2655.98607  3418.23157  5126.58204
          X               0.99998    -0.00320     0.00560
          Y               0.00319     0.99999     0.00238
          Z              -0.00560    -0.00236     0.99998
   Rotational Symmetry Number is   1
   The Molecule is an Asymmetric Top
   Translational Enthalpy:        0.889 kcal/mol
   Rotational Enthalpy:           0.889 kcal/mol
   Vibrational Enthalpy:        174.465 kcal/mol
   gas constant (RT):             0.592 kcal/mol
   Translational Entropy:        42.176  cal/mol.K
   Rotational Entropy:           32.209  cal/mol.K
   Vibrational Entropy:          53.879  cal/mol.K

   Total Enthalpy:              176.835 kcal/mol
   Total Entropy:               128.264  cal/mol.K

 Total job time:  10420.03s(wall), 58591.94s(cpu)
        *  Thank you very much for using Q-Chem.  Have a nice day.  *
