 Q-Chem 5.0, Q-Chem, Inc., Pleasanton, CA (2017)
 Q-Chem 5.0.0 for Intel X86 EM64T Linux

User input:
--------------------------------------------------------------
$molecule
0  1
C    0.656  -1.997   0.550
C   -0.379  -2.055   1.685
C    1.075  -0.633   0.035
C   -0.743  -0.756   2.367
O    2.254  -0.766  -0.643
O    0.466   0.414   0.178
O    0.380  -0.211   2.923
O   -1.879  -0.339   2.537
C    0.159   1.039   3.578
C    2.798   0.433  -1.203
C   -0.074  -2.721  -0.584
C   -0.239  -4.209  -0.268
C   -1.341  -4.194   0.796
C   -1.585  -2.694   0.978
O   -1.425  -2.250  -0.391
H    1.566  -2.528   0.855
H   -0.041  -2.721   2.491
H   -0.505   1.690   2.999
H    2.061   1.233  -1.326
H    0.286  -2.514  -1.595
H   -0.592  -4.755  -1.150
H    0.687  -4.677   0.078
H   -2.237  -4.682   0.398
H   -1.053  -4.703   1.720
H   -2.574  -2.451   1.372
H   -0.249   0.863   4.578
H    1.124   1.543   3.677
H    3.204   0.190  -2.189
H    3.617   0.777  -0.565
$end

$opt
CONSTRAINT
tors    2    1    3    5    162.3
tors    1    2    4    7    -61.6
ENDCONSTRAINT
$end

$rem
JOBTYPE                   OPT
METHOD                    B3LYP
DFT_D                     D3_OP
BASIS                     STO-3G
GEOM_OPT_MAX_CYCLES       500
SYMMETRY                  False
THRESH                    12
SCF_CONVERGENCE           8
MAX_SUB_FILE_NUM          128
MEM_STATIC                400
MEM_TOTAL                 4000
$end

--------------------------------------------------------------

   14    -755.6953363584      6.30E-09 Convergence criterion met
 Total energy in the final basis set = -755.6953363584
   13    -755.7261069019      2.95E-09 Convergence criterion met
 Total energy in the final basis set = -755.7261069019
   13    -755.7318977169      4.20E-09 Convergence criterion met
 Total energy in the final basis set = -755.7318977169
   12    -755.7324736561      4.11E-09 Convergence criterion met
 Total energy in the final basis set = -755.7324736561
   11    -755.7326241325      8.84E-09 Convergence criterion met
 Total energy in the final basis set = -755.7326241325
   11    -755.7326750356      5.21E-09 Convergence criterion met
 Total energy in the final basis set = -755.7326750356
   10    -755.7327105064      9.45E-09 Convergence criterion met
 Total energy in the final basis set = -755.7327105064
   11    -755.7327749509      2.45E-09 Convergence criterion met
 **  OPTIMIZATION CONVERGED  **
 Total job time:  72.34s(wall), 1691.77s(cpu)
        *  Thank you very much for using Q-Chem.  Have a nice day.  *

User input: 2 of 3

nid04597 10.128.18
Q-Chem Developer Version! Running on 10.128.18.*
                  Welcome to Q-Chem
     A Quantum Leap Into The Future Of Chemistry

 Q-Chem 5.0, Q-Chem, Inc., Pleasanton, CA (2017)

 Yihan Shao,  Zhengting Gan,  E. Epifanovsky,  A. T. B. Gilbert,  M. Wormit,
 J. Kussmann,  A. W. Lange,  A. Behn,  Jia Deng,  Xintian Feng,  D. Ghosh,
 M. Goldey,  P. R. Horn,  L. D. Jacobson,  I. Kaliman,  T. Kus,  A. Landau,
 Jie Liu,  E. I. Proynov,  R. M. Richard,  R. P. Steele,  E. J. Sundstrom,
 H. L. Woodcock III,  P. M. Zimmerman,  D. Zuev,  B. Albrecht,  E. Alguire,
 S. A. Baeppler,  Z. Benda,  Y. A. Bernard,  E. J. Berquist,  K. B. Bravaya,
 D. Casanova,  Chun-Min Chang,  Yunqing Chen,  A. Chien,  K. D. Closser,
 M. P. Coons,  S. Dasgupta,  M. Diedenhofen,  Hainam Do,  R. G. Edgar,
 Po-Tung Fang,  S. Fatehi,  Qingguo Feng,  Qinghui Ge,  A. Ghysels,
 J. Gomes,  J. Gonthier,  A. Gunina,  M. W. D. Hanson-Heine,
 P. H. P. Harbach,  A. W. Hauser,  J. E. Herr,  E. G. Hohenstein,
 Z. C. Holden,  Kerwin Hui,  T.-C. Jagau,  Hyunjun Ji,  B. Kaduk,
 K. Khistyaev,  Jaehoon Kim,  P. Klunzinger,  K. Koh,  D. Kosenkov,
 T. Kowalczyk,  C. M. Krauter,  A. Kunitsa,  Ka Un Lao,  A. Laurent,
 K. V. Lawler,  Joonho Lee,  D. Lefrancois,  S. Lehtola,  D. S. Levine,
 Yi-Pei Li,  You-Sheng Lin,  Fenglai Liu,  E. Livshits,  A. Luenser,
 P. Manohar,  E. Mansoor,  S. F. Manzer,  Shan-Ping Mao,  Yuezhi Mao,
 N. Mardirossian,  A. V. Marenich,  L. A. Martinez-Martinez,  S. A. Maurer,
 N. J. Mayhall,  S. C. McKenzie,  J.-M. Mewes,  A. F. Morrison,  K. Nanda,
 T. S. Nguyen-Beck,  R. Olivares-Amaya,  J. A. Parkhill,  T. M. Perrine,
 F. Plasser,  S. Prager,  A. Prociuk,  D. R. Rehn,  F. Rob,  M. Schneider,
 N. Sergueev,  S. M. Sharada,  S. Sharma,  D. W. Small,  T. Stauch,
 T. Stein,  Yu-Chuan Su,  A. J. W. Thom,  T. Tsuchimochi,  L. Vogt,
 O. Vydrov,  M. A. Watson,  J. Wenzel,  M. de Wergifosse,  T. A. Wesolowski,
 A. White,  J. Witte,  A. Yamada,  Jun Yang,  K. Yao,  S. Yeganeh,
 S. R. Yost,  Zhi-Qiang You,  A. Zech,  Igor Ying Zhang,  Xing Zhang,
 Yan Zhao,  Ying Zhu,  B. R. Brooks,  G. K. L. Chan,  C. J. Cramer,
 M. S. Gordon,  W. J. Hehre,  A. Klamt,  M. W. Schmidt,  C. D. Sherrill,
 D. G. Truhlar,  A. Aspuru-Guzik,  R. Baer,  A. T. Bell,  N. A. Besley,
 Jeng-Da Chai,  A. Dreuw,  B. D. Dunietz,  T. R. Furlani,  Chao-Ping Hsu,
 Yousung Jung,  Jing Kong,  D. S. Lambrecht,  WanZhen Liang,  C. Ochsenfeld,
 V. A. Rassolov,  L. V. Slipchenko,  J. E. Subotnik,  T. Van Voorhis,
 J. M. Herbert,  A. I. Krylov,  P. M. W. Gill,  M. Head-Gordon

 Contributors to earlier versions of Q-Chem not listed above:
 R. D. Adamson,  B. Austin,  J. Baker,  G. J. O. Beran,  K. Brandhorst,
 S. T. Brown,  E. F. C. Byrd,  A. K. Chakraborty,  C.-L. Cheng,
 Siu Hung Chien,  D. M. Chipman,  D. L. Crittenden,  H. Dachsel,
 R. A. DiStasio Jr.,  R. J. Doerksen,  A. D. Dutoi,  L. Fusti-Molnar,
 W. A. Goddard III,  A. Golubeva-Zadorozhnaya,  S. R. Gwaltney,  G. Hawkins,
 A. Heyden,  S. Hirata,  G. Kedziora,  F. J. Keil,  C. Kelley,  Jihan Kim,
 R. A. King,  R. Z. Khaliullin,  P. P. Korambath,  W. Kurlancheek,
 A. M. Lee,  M. S. Lee,  S. V. Levchenko,  Ching Yeh Lin,  D. Liotard,
 R. C. Lochan,  I. Lotan,  P. E. Maslen,  N. Nair,  D. P. O'Neill,
 D. Neuhauser,  E. Neuscamman,  C. M. Oana,  R. Olson,  B. Peters,
 R. Peverati,  P. A. Pieniazek,  Y. M. Rhee,  J. Ritchie,  M. A. Rohrdanz,
 E. Rosta,  N. J. Russ,  H. F. Schaefer III,  N. E. Schultz,  N. Shenvi,
 A. C. Simmonett,  A. Sodt,  D. Stuck,  K. S. Thanthiriwatte,  V. Vanovschi,
 Tao Wang,  A. Warshel,  C. F. Williams,  Q. Wu,  X. Xu,  W. Zhang

 Please cite Q-Chem as follows:
 Y. Shao et al., Mol. Phys. 113, 184-215 (2015)
 DOI: 10.1080/00268976.2014.952696

 Q-Chem 5.0.0 for Intel X86 EM64T Linux

 Parts of Q-Chem use Armadillo 5.200.1 (Boston Tea Smuggler).
 http://arma.sourceforge.net/

 Q-Chem begins on Wed Oct  4 17:31:06 2017

Host: nid04597
0

     Scratch files written to /global/cscratch1/sd/junteng/scratch/13/opt_1001oo.save//
The previous job contains 0 fragments, simply inherited here

Checking the input file for inconsistencies... 	...done.

--------------------------------------------------------------
User input:
--------------------------------------------------------------

$molecule
   read
$end

$rem
JOBTYPE                   OPT
METHOD                    B3LYP
DFT_D                     D3_OP
BASIS                     6-311++G(d,p)
GEOM_OPT_MAX_CYCLES       500
GEOM_OPT_TOL_GRADIENT     1
GEOM_OPT_TOL_DISPLACEMENT 1
GEOM_OPT_TOL_ENERGY       1
SYMMETRY                  False
THRESH                    12
SCF_CONVERGENCE           8
MAX_SUB_FILE_NUM          128
MEM_STATIC                400
MEM_TOTAL                 4000
$end

--------------------------------------------------------------

    8    -765.8625497019      7.92E-09 Convergence criterion met
 Total energy in the final basis set = -765.8625497019
    8    -765.8625498838      5.47E-09 Convergence criterion met
 Total energy in the final basis set = -765.8625498838
    8    -765.8625500227      6.29E-09 Convergence criterion met
 Total energy in the final basis set = -765.8625500227
    7    -765.8625500692      9.93E-09 Convergence criterion met
 Total energy in the final basis set = -765.8625500692
    7    -765.8625500934      3.26E-09 Convergence criterion met
 Total energy in the final basis set = -765.8625500934
    6    -765.8625501019      6.80E-09 Convergence criterion met
 Total energy in the final basis set = -765.8625501019
 Final energy is   -765.862550101939
        *  Thank you very much for using Q-Chem.  Have a nice day.  *
 Q-Chem 5.0, Q-Chem, Inc., Pleasanton, CA (2017)
 Q-Chem 5.0.0 for Intel X86 EM64T Linux

             Standard Nuclear Orientation (Angstroms)
    I     Atom           X                Y                Z
 ----------------------------------------------------------------
    1      C       0.3740278585    -0.6578270904    -0.5920994691
    2      C       0.6287997606     0.8817656394    -0.4894665852
    3      C      -0.8835940098    -1.1658883005     0.0789012570
    4      C      -0.5312472005     1.7299566384     0.0018250522
    5      O      -1.2459022259    -2.3519523747    -0.4637446721
    6      O      -1.4683362848    -0.6513670481     0.9976791360
    7      O      -1.5882207322     1.5868675191    -0.8276147369
    8      O      -0.5053965220     2.4862153674     0.9373005459
    9      C      -2.7980645984     2.2553619922    -0.4273053076
   10      C      -2.3865996814    -2.9962515949     0.1344050296
   11      C       1.6178269026    -1.1876890446     0.1931336755
   12      C       2.8989704013    -0.9483064888    -0.6399621506
   13      C       3.1228391135     0.5793086206    -0.4142184206
   14      C       1.8786506272     0.9331618281     0.4251090776
   15      O       1.7290418866    -0.2356441218     1.2512690039
   16      H       0.3755552443    -1.0095624197    -1.6226895039
   17      H       0.8614696846     1.2629231007    -1.4878844998
   18      H      -3.1361893564     1.8621189844     0.5326335085
   19      H      -3.2687966317    -2.3595825110     0.0527624517
   20      H       1.5013203734    -2.1897310532     0.6010351737
   21      H       3.7251510590    -1.5375645324    -0.2400630716
   22      H       2.7685960795    -1.2167219616    -1.6903208629
   23      H       4.0308968582     0.7665852806     0.1605536653
   24      H       3.1823243850     1.1491338200    -1.3436065706
   25      H       1.9398422701     1.8191519978     1.0497075931
   26      H      -2.6342823982     3.3306781086    -0.3445940806
   27      H      -3.5229287156     2.0370604120    -1.2088058097
   28      H      -2.1957639675    -3.2113046746     1.1868880349
   29      H      -2.5263388990    -3.9176924843    -0.4266631960
 ----------------------------------------------------------------

   15    -765.8625372236      3.41E-09 Convergence criterion met
 Total energy in the final basis set = -765.8625372236

                    Orbital Energies (a.u.)
 --------------------------------------------------------------

 Alpha MOs
 -- Occupied --
-19.177 -19.167 -19.131 -19.119 -19.111 -10.308 -10.302 -10.240
-10.232 -10.229 -10.222 -10.207 -10.203 -10.183 -10.180  -1.118
 -1.108  -1.064  -1.031  -1.023  -0.832  -0.784  -0.777  -0.738
 -0.725  -0.654  -0.605  -0.597  -0.577  -0.560  -0.546  -0.520
 -0.504  -0.492  -0.487  -0.485  -0.478  -0.471  -0.459  -0.431
 -0.421  -0.420  -0.412  -0.396  -0.386  -0.374  -0.368  -0.366
 -0.360  -0.358  -0.339  -0.333  -0.320  -0.307  -0.291  -0.281
 -0.272

          Ground-State Mulliken Net Atomic Charges

     Atom                 Charge (a.u.)
  ----------------------------------------
      1 C                     0.060771
      2 C                     0.100484
      3 C                    -0.664946
      4 C                    -0.409533
      5 O                    -0.024894
      6 O                    -0.202116
      7 O                    -0.044486
      8 O                    -0.220098
      9 C                    -0.190411
     10 C                    -0.235631
     11 C                     0.350633
     12 C                    -0.470946
     13 C                    -0.458300
     14 C                    -0.152714
     15 O                    -0.142454
     16 H                     0.285640
     17 H                     0.233839
     18 H                     0.189910
     19 H                     0.171983
     20 H                     0.266293
     21 H                     0.180188
     22 H                     0.123359
     23 H                     0.192384
     24 H                     0.125224
     25 H                     0.286135
     26 H                     0.166011
     27 H                     0.148906
     28 H                     0.183244
     29 H                     0.151527
  ----------------------------------------
  Sum of atomic charges =     0.000000

                    Cartesian Multipole Moments
 -----------------------------------------------------------------
    Charge (ESU x 10^10)
                 0.0000
    Dipole Moment (Debye)
         X      -0.0533      Y      -2.1107      Z      -3.7427
       Tot       4.2971
    Quadrupole Moments (Debye-Ang)
        XX     -76.5282     XY       2.1284     YY     -83.7598
        XZ      -0.9665     YZ      -5.1485     ZZ     -95.3004

 Frequency:        17.80                  61.61                  80.03
 Force Cnst:      0.0007                 0.0066                 0.0069
 Red. Mass:       3.8896                 2.9661                 1.8268
 IR Intens:        0.541                  0.802                  1.110
 Frequency:        84.65                  94.43                 133.35
 Force Cnst:      0.0185                 0.0105                 0.0256
 Red. Mass:       4.3907                 1.9938                 2.4469
 IR Intens:        1.500                  2.530                  0.467
 Frequency:       139.57                 145.35                 196.37
 Force Cnst:      0.0177                 0.0377                 0.0953
 Red. Mass:       1.5423                 3.0273                 4.1967
 IR Intens:        0.920                  2.167                  0.277
 Frequency:       217.43                 243.16                 274.62
 Force Cnst:      0.1468                 0.1167                 0.2220
 Red. Mass:       5.2713                 3.3487                 4.9973
 IR Intens:        2.278                  3.433                  7.802
 Frequency:       294.17                 328.93                 335.75
 Force Cnst:      0.1591                 0.2292                 0.2820
 Red. Mass:       3.1201                 3.5953                 4.2458
 IR Intens:        5.699                  5.530                 11.105
 Frequency:       372.55                 468.49                 563.68
 Force Cnst:      0.4700                 0.6407                 0.8127
 Red. Mass:       5.7469                 4.9543                 4.3411
 IR Intens:        9.922                  9.839                 21.954
 Frequency:       627.34                 657.94                 688.17
 Force Cnst:      1.4652                 1.1629                 1.5863
 Red. Mass:       6.3189                 4.5594                 5.6851
 IR Intens:       13.717                  1.282                  4.109
 Frequency:       741.48                 797.07                 816.34
 Force Cnst:      1.7788                 1.6139                 0.9172
 Red. Mass:       5.4911                 4.3116                 2.3361
 IR Intens:        7.655                  7.015                  6.134
 Frequency:       828.65                 836.12                 860.81
 Force Cnst:      1.3330                 1.9354                 1.6062
 Red. Mass:       3.2949                 4.6987                 3.6792
 IR Intens:       19.957                  3.207                  2.043
 Frequency:       898.05                 908.91                 915.68
 Force Cnst:      1.2667                 1.3514                 1.5280
 Red. Mass:       2.6659                 2.7765                 3.0931
 IR Intens:        3.367                 11.649                  4.057
 Frequency:       934.80                 958.13                 974.61
 Force Cnst:      1.6894                 3.0898                 1.3269
 Red. Mass:       3.2813                 5.7125                 2.3710
 IR Intens:       25.881                 33.752                 17.370
 Frequency:       984.37                1015.56                1026.69
 Force Cnst:      2.5132                 2.0049                 2.3101
 Red. Mass:       4.4021                 3.2993                 3.7197
 IR Intens:        3.920                 30.142                 18.549
 Frequency:      1067.75                1073.08                1073.47
 Force Cnst:      2.3396                 1.3450                 1.6738
 Red. Mass:       3.4830                 1.9825                 2.4654
 IR Intens:       35.268                 24.012                  9.731
 Frequency:      1163.09                1171.47                1173.23
 Force Cnst:      1.0076                 1.0887                 1.0976
 Red. Mass:       1.2642                 1.3465                 1.3534
 IR Intens:       54.356                 23.073                 29.684
 Frequency:      1177.09                1200.71                1208.08
 Force Cnst:      1.7032                 1.3000                 1.4659
 Red. Mass:       2.0864                 1.5305                 1.7047
 IR Intens:      201.226                  3.199                 96.705
 Frequency:      1211.62                1216.15                1230.75
 Force Cnst:      1.3841                 1.7320                 1.0911
 Red. Mass:       1.6003                 1.9875                 1.2226
 IR Intens:       60.855                261.686                 21.275
 Frequency:      1242.21                1248.64                1282.32
 Force Cnst:      1.3640                 1.4375                 1.2172
 Red. Mass:       1.5002                 1.5649                 1.2564
 IR Intens:       22.786                 25.445                  3.525
 Frequency:      1287.35                1313.93                1319.89
 Force Cnst:      1.5171                 1.4330                 1.4964
 Red. Mass:       1.5537                 1.4088                 1.4579
 IR Intens:       18.147                  1.858                 38.513
 Frequency:      1352.90                1372.83                1388.98
 Force Cnst:      1.6833                 1.7983                 1.9598
 Red. Mass:       1.5609                 1.6195                 1.7241
 IR Intens:       25.737                 79.617                 36.867
 Frequency:      1470.04                1470.84                1481.95
 Force Cnst:      1.5201                 1.5320                 1.3518
 Red. Mass:       1.1939                 1.2020                 1.0447
 IR Intens:       19.116                 10.951                  8.975
 Frequency:      1484.51                1489.77                1497.15
 Force Cnst:      1.3546                 1.4146                 1.3848
 Red. Mass:       1.0433                 1.0818                 1.0486
 IR Intens:       10.118                  2.306                 11.156
 Frequency:      1499.10                1510.98                1795.74
 Force Cnst:      1.3843                 1.4807                21.8275
 Red. Mass:       1.0455                 1.1008                11.4885
 IR Intens:        7.591                  6.056                 68.905
 Frequency:      1804.94                3049.58                3049.87
 Force Cnst:     22.0313                 5.6409                 5.6414
 Red. Mass:      11.4779                 1.0295                 1.0294
 IR Intens:      391.214                 22.499                 48.052
 Frequency:      3056.90                3061.16                3067.73
 Force Cnst:      5.8662                 5.9337                 5.8920
 Red. Mass:       1.0655                 1.0747                 1.0626
 IR Intens:       14.050                 16.339                 36.062
 Frequency:      3096.80                3111.30                3117.64
 Force Cnst:      6.2544                 6.2399                 6.2914
 Red. Mass:       1.1069                 1.0941                 1.0986
 IR Intens:        0.860                  9.538                 34.575
 Frequency:      3122.54                3124.91                3130.66
 Force Cnst:      6.3596                 6.3713                 6.2938
 Red. Mass:       1.1070                 1.1074                 1.0899
 IR Intens:       18.516                 15.503                 22.199
 Frequency:      3153.15                3155.99                3162.74
 Force Cnst:      6.4815                 6.4919                 6.4276
 Red. Mass:       1.1065                 1.1062                 1.0906
 IR Intens:       13.999                 14.400                  5.671

 STANDARD THERMODYNAMIC QUANTITIES AT   298.15 K  AND     1.00 ATM

   This Molecule has  0 Imaginary Frequencies
   Zero point vibrational energy:      149.053 kcal/mol

   Atom    1 Element C  Has Mass   12.00000
   Atom    2 Element C  Has Mass   12.00000
   Atom    3 Element C  Has Mass   12.00000
   Atom    4 Element C  Has Mass   12.00000
   Atom    5 Element O  Has Mass   15.99491
   Atom    6 Element O  Has Mass   15.99491
   Atom    7 Element O  Has Mass   15.99491
   Atom    8 Element O  Has Mass   15.99491
   Atom    9 Element C  Has Mass   12.00000
   Atom   10 Element C  Has Mass   12.00000
   Atom   11 Element C  Has Mass   12.00000
   Atom   12 Element C  Has Mass   12.00000
   Atom   13 Element C  Has Mass   12.00000
   Atom   14 Element C  Has Mass   12.00000
   Atom   15 Element O  Has Mass   15.99491
   Atom   16 Element H  Has Mass    1.00783
   Atom   17 Element H  Has Mass    1.00783
   Atom   18 Element H  Has Mass    1.00783
   Atom   19 Element H  Has Mass    1.00783
   Atom   20 Element H  Has Mass    1.00783
   Atom   21 Element H  Has Mass    1.00783
   Atom   22 Element H  Has Mass    1.00783
   Atom   23 Element H  Has Mass    1.00783
   Atom   24 Element H  Has Mass    1.00783
   Atom   25 Element H  Has Mass    1.00783
   Atom   26 Element H  Has Mass    1.00783
   Atom   27 Element H  Has Mass    1.00783
   Atom   28 Element H  Has Mass    1.00783
   Atom   29 Element H  Has Mass    1.00783
   Molecular Mass:   214.084170 amu
   Principal axes and moments of inertia in amu*Bohr^2:
                             1           2           3
    Eigenvalues --     2438.70155  2979.94220  4683.01104
          X               0.99991     0.00922    -0.01008
          Y              -0.00929     0.99993    -0.00720
          Z               0.01001     0.00730     0.99992
   Rotational Symmetry Number is   1
   The Molecule is an Asymmetric Top
   Translational Enthalpy:        0.889 kcal/mol
   Rotational Enthalpy:           0.889 kcal/mol
   Vibrational Enthalpy:        156.340 kcal/mol
   gas constant (RT):             0.592 kcal/mol
   Translational Entropy:        41.987  cal/mol.K
   Rotational Entropy:           31.898  cal/mol.K
   Vibrational Entropy:          48.943  cal/mol.K

   Total Enthalpy:              158.709 kcal/mol
   Total Entropy:               122.828  cal/mol.K

 Total job time:  7414.59s(wall), 40253.87s(cpu)
        *  Thank you very much for using Q-Chem.  Have a nice day.  *
