 Q-Chem 5.0, Q-Chem, Inc., Pleasanton, CA (2017)
 Q-Chem 5.0.0 for Intel X86 EM64T Linux

User input:
--------------------------------------------------------------
$molecule
0  1
C    0.711  -1.958   0.589
C   -0.299  -1.995   1.756
C    1.089  -0.603   0.022
C   -0.528  -0.668   2.454
O    2.255  -0.726  -0.682
O    0.458   0.435   0.138
O    0.672  -0.221   2.944
O   -1.603  -0.140   2.687
C    0.580   1.027   3.634
C    2.698   0.490  -1.286
C   -0.031  -2.720  -0.508
C   -0.144  -4.202  -0.153
C   -1.210  -4.188   0.944
C   -1.515  -2.680   1.086
O   -1.391  -2.278  -0.299
H    1.639  -2.461   0.888
H    0.068  -2.659   2.552
H   -0.050   0.928   4.523
H    1.951   0.864  -1.993
H   -0.511  -4.776  -1.011
H    0.804  -4.638   0.173
H   -2.087  -4.746   0.595
H   -0.869  -4.649   1.876
H    1.587   1.311   3.953
H    0.196   1.807   2.969
H    3.619   0.278  -1.837
H    2.918   1.240  -0.519
H    0.300  -2.531  -1.532
C   -2.908  -2.427   1.624
H   -3.642  -3.061   1.114
H   -2.968  -2.632   2.696
H   -3.235  -1.402   1.426
$end

$opt
CONSTRAINT
tors    2    1    3    5    167.3
tors    1    2    4    7    -55.0
ENDCONSTRAINT
$end

$rem
JOBTYPE                   OPT
METHOD                    B3LYP
DFT_D                     D3_OP
BASIS                     STO-3G
GEOM_OPT_MAX_CYCLES       500
SYMMETRY                  False
THRESH                    12
SCF_CONVERGENCE           8
MAX_SUB_FILE_NUM          128
MEM_STATIC                400
MEM_TOTAL                 4000
$end

--------------------------------------------------------------

   14    -794.5514909720      6.56E-09 Convergence criterion met
 Total energy in the final basis set = -794.5514909720
   13    -794.5820391676      3.30E-09 Convergence criterion met
 Total energy in the final basis set = -794.5820391676
   13    -794.5881587096      3.69E-09 Convergence criterion met
 Total energy in the final basis set = -794.5881587096
   12    -794.5886494507      5.24E-09 Convergence criterion met
 Total energy in the final basis set = -794.5886494507
   11    -794.5888215245      7.15E-09 Convergence criterion met
 Total energy in the final basis set = -794.5888215245
   11    -794.5889455080      3.50E-09 Convergence criterion met
 Total energy in the final basis set = -794.5889455080
   11    -794.5890813576      3.79E-09 Convergence criterion met
 Total energy in the final basis set = -794.5890813576
   11    -794.5892345557      4.77E-09 Convergence criterion met
 **  OPTIMIZATION CONVERGED  **
 Total job time:  64.45s(wall), 1515.86s(cpu)
        *  Thank you very much for using Q-Chem.  Have a nice day.  *

User input: 2 of 3

nid04484 10.128.17
Q-Chem Developer Version! Running on 10.128.17.*
                  Welcome to Q-Chem
     A Quantum Leap Into The Future Of Chemistry

 Q-Chem 5.0, Q-Chem, Inc., Pleasanton, CA (2017)

 Yihan Shao,  Zhengting Gan,  E. Epifanovsky,  A. T. B. Gilbert,  M. Wormit,
 J. Kussmann,  A. W. Lange,  A. Behn,  Jia Deng,  Xintian Feng,  D. Ghosh,
 M. Goldey,  P. R. Horn,  L. D. Jacobson,  I. Kaliman,  T. Kus,  A. Landau,
 Jie Liu,  E. I. Proynov,  R. M. Richard,  R. P. Steele,  E. J. Sundstrom,
 H. L. Woodcock III,  P. M. Zimmerman,  D. Zuev,  B. Albrecht,  E. Alguire,
 S. A. Baeppler,  Z. Benda,  Y. A. Bernard,  E. J. Berquist,  K. B. Bravaya,
 D. Casanova,  Chun-Min Chang,  Yunqing Chen,  A. Chien,  K. D. Closser,
 M. P. Coons,  S. Dasgupta,  M. Diedenhofen,  Hainam Do,  R. G. Edgar,
 Po-Tung Fang,  S. Fatehi,  Qingguo Feng,  Qinghui Ge,  A. Ghysels,
 J. Gomes,  J. Gonthier,  A. Gunina,  M. W. D. Hanson-Heine,
 P. H. P. Harbach,  A. W. Hauser,  J. E. Herr,  E. G. Hohenstein,
 Z. C. Holden,  Kerwin Hui,  T.-C. Jagau,  Hyunjun Ji,  B. Kaduk,
 K. Khistyaev,  Jaehoon Kim,  P. Klunzinger,  K. Koh,  D. Kosenkov,
 T. Kowalczyk,  C. M. Krauter,  A. Kunitsa,  Ka Un Lao,  A. Laurent,
 K. V. Lawler,  Joonho Lee,  D. Lefrancois,  S. Lehtola,  D. S. Levine,
 Yi-Pei Li,  You-Sheng Lin,  Fenglai Liu,  E. Livshits,  A. Luenser,
 P. Manohar,  E. Mansoor,  S. F. Manzer,  Shan-Ping Mao,  Yuezhi Mao,
 N. Mardirossian,  A. V. Marenich,  L. A. Martinez-Martinez,  S. A. Maurer,
 N. J. Mayhall,  S. C. McKenzie,  J.-M. Mewes,  A. F. Morrison,  K. Nanda,
 T. S. Nguyen-Beck,  R. Olivares-Amaya,  J. A. Parkhill,  T. M. Perrine,
 F. Plasser,  S. Prager,  A. Prociuk,  D. R. Rehn,  F. Rob,  M. Schneider,
 N. Sergueev,  S. M. Sharada,  S. Sharma,  D. W. Small,  T. Stauch,
 T. Stein,  Yu-Chuan Su,  A. J. W. Thom,  T. Tsuchimochi,  L. Vogt,
 O. Vydrov,  M. A. Watson,  J. Wenzel,  M. de Wergifosse,  T. A. Wesolowski,
 A. White,  J. Witte,  A. Yamada,  Jun Yang,  K. Yao,  S. Yeganeh,
 S. R. Yost,  Zhi-Qiang You,  A. Zech,  Igor Ying Zhang,  Xing Zhang,
 Yan Zhao,  Ying Zhu,  B. R. Brooks,  G. K. L. Chan,  C. J. Cramer,
 M. S. Gordon,  W. J. Hehre,  A. Klamt,  M. W. Schmidt,  C. D. Sherrill,
 D. G. Truhlar,  A. Aspuru-Guzik,  R. Baer,  A. T. Bell,  N. A. Besley,
 Jeng-Da Chai,  A. Dreuw,  B. D. Dunietz,  T. R. Furlani,  Chao-Ping Hsu,
 Yousung Jung,  Jing Kong,  D. S. Lambrecht,  WanZhen Liang,  C. Ochsenfeld,
 V. A. Rassolov,  L. V. Slipchenko,  J. E. Subotnik,  T. Van Voorhis,
 J. M. Herbert,  A. I. Krylov,  P. M. W. Gill,  M. Head-Gordon

 Contributors to earlier versions of Q-Chem not listed above:
 R. D. Adamson,  B. Austin,  J. Baker,  G. J. O. Beran,  K. Brandhorst,
 S. T. Brown,  E. F. C. Byrd,  A. K. Chakraborty,  C.-L. Cheng,
 Siu Hung Chien,  D. M. Chipman,  D. L. Crittenden,  H. Dachsel,
 R. A. DiStasio Jr.,  R. J. Doerksen,  A. D. Dutoi,  L. Fusti-Molnar,
 W. A. Goddard III,  A. Golubeva-Zadorozhnaya,  S. R. Gwaltney,  G. Hawkins,
 A. Heyden,  S. Hirata,  G. Kedziora,  F. J. Keil,  C. Kelley,  Jihan Kim,
 R. A. King,  R. Z. Khaliullin,  P. P. Korambath,  W. Kurlancheek,
 A. M. Lee,  M. S. Lee,  S. V. Levchenko,  Ching Yeh Lin,  D. Liotard,
 R. C. Lochan,  I. Lotan,  P. E. Maslen,  N. Nair,  D. P. O'Neill,
 D. Neuhauser,  E. Neuscamman,  C. M. Oana,  R. Olson,  B. Peters,
 R. Peverati,  P. A. Pieniazek,  Y. M. Rhee,  J. Ritchie,  M. A. Rohrdanz,
 E. Rosta,  N. J. Russ,  H. F. Schaefer III,  N. E. Schultz,  N. Shenvi,
 A. C. Simmonett,  A. Sodt,  D. Stuck,  K. S. Thanthiriwatte,  V. Vanovschi,
 Tao Wang,  A. Warshel,  C. F. Williams,  Q. Wu,  X. Xu,  W. Zhang

 Please cite Q-Chem as follows:
 Y. Shao et al., Mol. Phys. 113, 184-215 (2015)
 DOI: 10.1080/00268976.2014.952696

 Q-Chem 5.0.0 for Intel X86 EM64T Linux

 Parts of Q-Chem use Armadillo 5.200.1 (Boston Tea Smuggler).
 http://arma.sourceforge.net/

 Q-Chem begins on Wed Oct  4 17:38:20 2017

Host: nid04484
0

     Scratch files written to /global/cscratch1/sd/junteng/scratch/14/opt_1101++.save//
The previous job contains 0 fragments, simply inherited here

Checking the input file for inconsistencies... 	...done.

--------------------------------------------------------------
User input:
--------------------------------------------------------------

$molecule
   read
$end

$rem
JOBTYPE                   OPT
METHOD                    B3LYP
DFT_D                     D3_OP
BASIS                     6-311++G(d,p)
GEOM_OPT_MAX_CYCLES       500
GEOM_OPT_TOL_GRADIENT     1
GEOM_OPT_TOL_DISPLACEMENT 1
GEOM_OPT_TOL_ENERGY       1
SYMMETRY                  False
THRESH                    12
SCF_CONVERGENCE           8
MAX_SUB_FILE_NUM          128
MEM_STATIC                400
MEM_TOTAL                 4000
$end

--------------------------------------------------------------

   10    -805.1940243446      5.28E-09 Convergence criterion met
 Total energy in the final basis set = -805.1940243446
   10    -805.1940253680      5.31E-09 Convergence criterion met
 Total energy in the final basis set = -805.1940253680
    8    -805.1940254401      9.84E-09 Convergence criterion met
 Total energy in the final basis set = -805.1940254401
    7    -805.1940255961      4.95E-09 Convergence criterion met
 Total energy in the final basis set = -805.1940255961
    6    -805.1940256134      9.72E-09 Convergence criterion met
 Total energy in the final basis set = -805.1940256134
    6    -805.1940256201      3.33E-09 Convergence criterion met
 Total energy in the final basis set = -805.1940256201
 Final energy is   -805.194025620094
        *  Thank you very much for using Q-Chem.  Have a nice day.  *
 Q-Chem 5.0, Q-Chem, Inc., Pleasanton, CA (2017)
 Q-Chem 5.0.0 for Intel X86 EM64T Linux

             Standard Nuclear Orientation (Angstroms)
    I     Atom           X                Y                Z
 ----------------------------------------------------------------
    1      C      -0.0498897711     0.8281893448     0.6237357829
    2      C       0.6601481307    -0.5661041846     0.5985240955
    3      C      -1.3358333409     0.9234099697    -0.1683602461
    4      C      -0.2285919666    -1.7148511340     0.1444537611
    5      O      -2.0770166303     1.9633617585     0.2794857727
    6      O      -1.6603678054     0.2327191390    -1.1007376226
    7      O      -1.3025442525    -1.7812550787     0.9701378718
    8      O      -0.0247782687    -2.5064893172    -0.7367077531
    9      C      -2.3062249314    -2.7484686853     0.6124237541
   10      C      -3.2982167036     2.2190671904    -0.4398971238
   11      C       1.0336762441     1.7065598826    -0.0753548963
   12      C       2.2347058249     1.8896642587     0.8771758593
   13      C       2.9169932672     0.4988184736     0.7546582235
   14      C       1.9629917721    -0.2501553841    -0.2185389336
   15      O       1.5326292419     0.8293847569    -1.0806634832
   16      H      -0.2503385893     1.1749216073     1.6363729858
   17      H       0.9289151682    -0.8269493474     1.6259367413
   18      H      -1.8916097609    -3.7575528203     0.6257283460
   19      H      -3.0850013515     2.4487274182    -1.4849726328
   20      H       2.8855516663     2.6870406424     0.5153448377
   21      H       1.9268095458     2.1395479122     1.8944502946
   22      H       3.9044766562     0.5822707556     0.2983138914
   23      H       3.0293532096    -0.0170096253     1.7103720023
   24      H      -3.0881375868    -2.6462952556     1.3621107797
   25      H      -2.6941830600    -2.5268919026    -0.3829379518
   26      H      -3.7536971131     3.0732394554     0.0562602639
   27      H      -3.9567827337     1.3505175827    -0.3913421737
   28      H       0.6486569402     2.6171452625    -0.5301124982
   29      C       2.6217342401    -1.3444579127    -1.0282998371
   30      H       3.5211941422    -0.9439812248    -1.5021020333
   31      H       2.9126182204    -2.1744515363    -0.3792743788
   32      H       1.9498397730    -1.7320799065    -1.7893893959
 ----------------------------------------------------------------

   15    -805.1940709993      3.66E-09 Convergence criterion met
 Total energy in the final basis set = -805.1940709993

                    Orbital Energies (a.u.)
 --------------------------------------------------------------

 Alpha MOs
 -- Occupied --
-19.177 -19.166 -19.128 -19.119 -19.111 -10.308 -10.303 -10.238
-10.238 -10.232 -10.222 -10.205 -10.203 -10.181 -10.177 -10.154
 -1.118  -1.107  -1.062  -1.030  -1.022  -0.831  -0.793  -0.780
 -0.748  -0.723  -0.686  -0.650  -0.603  -0.594  -0.569  -0.553
 -0.532  -0.510  -0.504  -0.491  -0.489  -0.482  -0.477  -0.471
 -0.458  -0.436  -0.425  -0.420  -0.417  -0.407  -0.394  -0.377
 -0.373  -0.369  -0.365  -0.359  -0.359  -0.349  -0.335  -0.328
 -0.319  -0.307  -0.290  -0.275  -0.271

          Ground-State Mulliken Net Atomic Charges

     Atom                 Charge (a.u.)
  ----------------------------------------
      1 C                     0.040518
      2 C                     0.296167
      3 C                    -0.921231
      4 C                    -0.430448
      5 O                    -0.010941
      6 O                    -0.188209
      7 O                    -0.018747
      8 O                    -0.188711
      9 C                    -0.180444
     10 C                    -0.230463
     11 C                     0.467748
     12 C                    -0.455381
     13 C                    -0.458809
     14 C                    -0.288657
     15 O                    -0.052370
     16 H                     0.289695
     17 H                     0.249768
     18 H                     0.165856
     19 H                     0.183955
     20 H                     0.183920
     21 H                     0.121311
     22 H                     0.173765
     23 H                     0.142889
     24 H                     0.148941
     25 H                     0.189781
     26 H                     0.151022
     27 H                     0.170124
     28 H                     0.277721
     29 C                    -0.338463
     30 H                     0.143290
     31 H                     0.157675
     32 H                     0.208731
  ----------------------------------------
  Sum of atomic charges =     0.000000

                    Cartesian Multipole Moments
 -----------------------------------------------------------------
    Charge (ESU x 10^10)
                 0.0000
    Dipole Moment (Debye)
         X      -0.8260      Y       1.9685      Z       3.4272
       Tot       4.0377
    Quadrupole Moments (Debye-Ang)
        XX     -82.7340     XY      -0.7564     YY     -91.7320
        XZ       2.3331     YZ      -4.4275     ZZ    -100.3512

 Frequency:        24.32                  34.05                  78.74
 Force Cnst:      0.0013                 0.0031                 0.0072
 Red. Mass:       3.6526                 4.5709                 1.9722
 IR Intens:        0.129                  0.575                  0.239
 Frequency:        84.61                 111.28                 124.42
 Force Cnst:      0.0142                 0.0130                 0.0214
 Red. Mass:       3.3620                 1.7841                 2.3465
 IR Intens:        4.837                  0.038                  1.061
 Frequency:       144.38                 153.44                 189.06
 Force Cnst:      0.0464                 0.0188                 0.0726
 Red. Mass:       3.7804                 1.3558                 3.4463
 IR Intens:        1.952                  0.332                  0.425
 Frequency:       214.09                 232.28                 248.08
 Force Cnst:      0.1174                 0.0816                 0.0493
 Red. Mass:       4.3464                 2.5682                 1.3584
 IR Intens:        1.476                  4.282                  1.693
 Frequency:       267.75                 294.15                 317.35
 Force Cnst:      0.1726                 0.2550                 0.1682
 Red. Mass:       4.0861                 5.0024                 2.8351
 IR Intens:        3.630                  3.972                  8.691
 Frequency:       329.16                 343.80                 359.31
 Force Cnst:      0.1852                 0.3064                 0.2051
 Red. Mass:       2.9010                 4.3994                 2.6970
 IR Intens:        0.045                 13.092                  2.940
 Frequency:       378.42                 476.54                 574.24
 Force Cnst:      0.4107                 0.5339                 0.7235
 Red. Mass:       4.8675                 3.9901                 3.7238
 IR Intens:        8.396                 13.632                 17.196
 Frequency:       606.67                 644.80                 663.92
 Force Cnst:      1.1201                 1.1719                 1.1171
 Red. Mass:       5.1655                 4.7840                 4.3013
 IR Intens:       11.240                  4.287                  0.228
 Frequency:       700.00                 750.41                 802.26
 Force Cnst:      1.7669                 1.7268                 1.3584
 Red. Mass:       6.1201                 5.2046                 3.5822
 IR Intens:        4.303                  4.611                  5.361
 Frequency:       813.62                 831.36                 841.53
 Force Cnst:      0.9666                 1.7103                 1.6636
 Red. Mass:       2.4783                 4.1999                 3.9871
 IR Intens:       10.766                 12.419                 11.372
 Frequency:       858.43                 898.47                 904.56
 Force Cnst:      1.2472                 1.2161                 1.3042
 Red. Mass:       2.8726                 2.5569                 2.7052
 IR Intens:       10.028                  6.915                  3.606
 Frequency:       915.32                 934.10                 967.24
 Force Cnst:      1.2133                 1.5871                 2.3623
 Red. Mass:       2.4579                 3.0872                 4.2856
 IR Intens:       12.516                  5.789                  3.382
 Frequency:       973.92                 993.98                1011.13
 Force Cnst:      2.0113                 1.7392                 2.4650
 Red. Mass:       3.5989                 2.9878                 4.0922
 IR Intens:       14.593                 13.878                 42.184
 Frequency:      1036.00                1061.55                1073.81
 Force Cnst:      1.1818                 2.5325                 1.7203
 Red. Mass:       1.8688                 3.8143                 2.5322
 IR Intens:       25.610                 58.696                 22.110
 Frequency:      1123.69                1137.51                1171.03
 Force Cnst:      1.3762                 1.2756                 1.1053
 Red. Mass:       1.8499                 1.6732                 1.3680
 IR Intens:       30.953                 14.297                 26.706
 Frequency:      1171.37                1178.69                1189.07
 Force Cnst:      1.0410                 1.9177                 1.6904
 Red. Mass:       1.2877                 2.3428                 2.0292
 IR Intens:        3.952                181.654                299.936
 Frequency:      1201.89                1204.81                1211.27
 Force Cnst:      1.3639                 1.3777                 1.3325
 Red. Mass:       1.6025                 1.6109                 1.5415
 IR Intens:       13.838                 39.516                 16.730
 Frequency:      1212.83                1216.99                1249.97
 Force Cnst:      1.5365                 1.5406                 1.4028
 Red. Mass:       1.7729                 1.7655                 1.5238
 IR Intens:      144.880                 79.987                 14.175
 Frequency:      1255.22                1290.72                1317.23
 Force Cnst:      1.1733                 1.8506                 1.4610
 Red. Mass:       1.2639                 1.8854                 1.4291
 IR Intens:        3.943                  8.464                 16.955
 Frequency:      1325.15                1336.62                1362.49
 Force Cnst:      1.6253                 2.0402                 1.7463
 Red. Mass:       1.5710                 1.9382                 1.5966
 IR Intens:       20.258                 10.125                 84.464
 Frequency:      1388.85                1430.53                1466.21
 Force Cnst:      1.9209                 1.5965                 1.5002
 Red. Mass:       1.6902                 1.3241                 1.1844
 IR Intens:       49.492                 14.994                 12.570
 Frequency:      1468.99                1481.91                1483.05
 Force Cnst:      1.5283                 1.3537                 1.3904
 Red. Mass:       1.2021                 1.0463                 1.0730
 IR Intens:       15.958                  8.028                  1.917
 Frequency:      1484.08                1490.82                1497.20
 Force Cnst:      1.3555                 1.3851                 1.3808
 Red. Mass:       1.0446                 1.0578                 1.0455
 IR Intens:       11.261                  2.189                 11.527
 Frequency:      1498.99                1500.37                1508.78
 Force Cnst:      1.3874                 1.3967                 1.4729
 Red. Mass:       1.0479                 1.0531                 1.0981
 IR Intens:       10.803                  9.491                  6.291
 Frequency:      1795.58                1811.42                3044.38
 Force Cnst:     21.6690                22.1778                 5.6825
 Red. Mass:      11.4071                11.4718                 1.0406
 IR Intens:       87.744                351.321                 18.984
 Frequency:      3048.68                3049.56                3055.25
 Force Cnst:      5.6371                 5.6416                 5.8643
 Red. Mass:       1.0294                 1.0296                 1.0663
 IR Intens:       33.136                 37.889                 15.509
 Frequency:      3060.21                3067.28                3093.53
 Force Cnst:      5.9193                 5.8899                 6.2438
 Red. Mass:       1.0728                 1.0625                 1.1074
 IR Intens:       20.107                 37.835                  0.573
 Frequency:      3102.33                3110.05                3116.34
 Force Cnst:      6.2489                 6.2491                 6.2694
 Red. Mass:       1.1020                 1.0966                 1.0957
 IR Intens:       12.440                 18.426                 37.016
 Frequency:      3122.16                3123.62                3128.50
 Force Cnst:      6.3580                 6.3654                 6.2861
 Red. Mass:       1.1070                 1.1073                 1.0901
 IR Intens:       19.018                 15.452                 23.507
 Frequency:      3152.65                3157.03                3164.28
 Force Cnst:      6.4790                 6.4966                 6.4726
 Red. Mass:       1.1064                 1.1063                 1.0972
 IR Intens:       14.466                 14.497                  2.774

 STANDARD THERMODYNAMIC QUANTITIES AT   298.15 K  AND     1.00 ATM

   This Molecule has  0 Imaginary Frequencies
   Zero point vibrational energy:      166.290 kcal/mol

   Atom    1 Element C  Has Mass   12.00000
   Atom    2 Element C  Has Mass   12.00000
   Atom    3 Element C  Has Mass   12.00000
   Atom    4 Element C  Has Mass   12.00000
   Atom    5 Element O  Has Mass   15.99491
   Atom    6 Element O  Has Mass   15.99491
   Atom    7 Element O  Has Mass   15.99491
   Atom    8 Element O  Has Mass   15.99491
   Atom    9 Element C  Has Mass   12.00000
   Atom   10 Element C  Has Mass   12.00000
   Atom   11 Element C  Has Mass   12.00000
   Atom   12 Element C  Has Mass   12.00000
   Atom   13 Element C  Has Mass   12.00000
   Atom   14 Element C  Has Mass   12.00000
   Atom   15 Element O  Has Mass   15.99491
   Atom   16 Element H  Has Mass    1.00783
   Atom   17 Element H  Has Mass    1.00783
   Atom   18 Element H  Has Mass    1.00783
   Atom   19 Element H  Has Mass    1.00783
   Atom   20 Element H  Has Mass    1.00783
   Atom   21 Element H  Has Mass    1.00783
   Atom   22 Element H  Has Mass    1.00783
   Atom   23 Element H  Has Mass    1.00783
   Atom   24 Element H  Has Mass    1.00783
   Atom   25 Element H  Has Mass    1.00783
   Atom   26 Element H  Has Mass    1.00783
   Atom   27 Element H  Has Mass    1.00783
   Atom   28 Element H  Has Mass    1.00783
   Atom   29 Element C  Has Mass   12.00000
   Atom   30 Element H  Has Mass    1.00783
   Atom   31 Element H  Has Mass    1.00783
   Atom   32 Element H  Has Mass    1.00783
   Molecular Mass:   228.099830 amu
   Principal axes and moments of inertia in amu*Bohr^2:
                             1           2           3
    Eigenvalues --     2650.09439  3420.66523  5129.72561
          X               0.99998    -0.00295     0.00564
          Y               0.00294     0.99999     0.00238
          Z              -0.00565    -0.00237     0.99998
   Rotational Symmetry Number is   1
   The Molecule is an Asymmetric Top
   Translational Enthalpy:        0.889 kcal/mol
   Rotational Enthalpy:           0.889 kcal/mol
   Vibrational Enthalpy:        174.464 kcal/mol
   gas constant (RT):             0.592 kcal/mol
   Translational Entropy:        42.176  cal/mol.K
   Rotational Entropy:           32.208  cal/mol.K
   Vibrational Entropy:          53.905  cal/mol.K

   Total Enthalpy:              176.834 kcal/mol
   Total Entropy:               128.289  cal/mol.K

 Total job time:  10381.38s(wall), 58669.06s(cpu)
        *  Thank you very much for using Q-Chem.  Have a nice day.  *
