 Q-Chem 5.0, Q-Chem, Inc., Pleasanton, CA (2017)
 Q-Chem 5.0.0 for Intel X86 EM64T Linux

User input:
--------------------------------------------------------------
$molecule
0  1
C    0.355  -2.424   0.293
C   -0.264  -2.685   1.524
C    0.749  -1.045  -0.086
C   -0.385  -1.681   2.598
O    1.805  -1.090  -0.938
O    0.175  -0.038   0.291
O    0.833  -1.128   2.820
O   -1.397  -1.517   3.259
C    0.836  -0.152   3.862
C    2.258   0.195  -1.365
C    0.489  -3.469  -0.639
C    0.011  -4.748  -0.345
C   -0.620  -4.996   0.872
C   -0.760  -3.969   1.804
H    0.142   0.662   3.629
H    1.480   0.699  -1.947
H   -1.003  -5.990   1.096
H    0.581  -0.616   4.820
H    1.845   0.263   3.935
H    3.132   0.050  -2.006
H    2.557   0.804  -0.506
H    0.116  -5.548  -1.075
H   -1.248  -4.169   2.757
H    0.945  -3.290  -1.611
$end

$opt
CONSTRAINT
tors    2    1    3    5    150.0
tors    1    2    4    7    -45.0
ENDCONSTRAINT
$end

$rem
JOBTYPE                   OPT
METHOD                    B3LYP
DFT_D                     D3_OP
BASIS                     STO-3G
GEOM_OPT_MAX_CYCLES       500
SYMMETRY                  False
THRESH                    12
SCF_CONVERGENCE           8
MAX_SUB_FILE_NUM          128
MEM_STATIC                400
MEM_TOTAL                 4000
$end

--------------------------------------------------------------

   15    -679.0688361291      6.94E-09 Convergence criterion met
 Total energy in the final basis set = -679.0688361291
   14    -679.0947342285      6.32E-09 Convergence criterion met
 Total energy in the final basis set = -679.0947342285
   13    -679.0965134313      8.98E-09 Convergence criterion met
 Total energy in the final basis set = -679.0965134313
   12    -679.0967454343      7.81E-09 Convergence criterion met
 Total energy in the final basis set = -679.0967454343
   11    -679.0967659213      6.08E-09 Convergence criterion met
 Total energy in the final basis set = -679.0967659213
   11    -679.0967674405      3.43E-09 Convergence criterion met
 Total energy in the final basis set = -679.0967674405
   11    -679.0967709888      2.29E-09 Convergence criterion met
 Total energy in the final basis set = -679.0967709888
   11    -679.0967751311      2.96E-09 Convergence criterion met
 **  OPTIMIZATION CONVERGED  **
 Total job time:  29.02s(wall), 677.20s(cpu)
        *  Thank you very much for using Q-Chem.  Have a nice day.  *

User input: 2 of 3

nid04367 10.128.17
Q-Chem Developer Version! Running on 10.128.17.*
                  Welcome to Q-Chem
     A Quantum Leap Into The Future Of Chemistry

 Q-Chem 5.0, Q-Chem, Inc., Pleasanton, CA (2017)

 Yihan Shao,  Zhengting Gan,  E. Epifanovsky,  A. T. B. Gilbert,  M. Wormit,
 J. Kussmann,  A. W. Lange,  A. Behn,  Jia Deng,  Xintian Feng,  D. Ghosh,
 M. Goldey,  P. R. Horn,  L. D. Jacobson,  I. Kaliman,  T. Kus,  A. Landau,
 Jie Liu,  E. I. Proynov,  R. M. Richard,  R. P. Steele,  E. J. Sundstrom,
 H. L. Woodcock III,  P. M. Zimmerman,  D. Zuev,  B. Albrecht,  E. Alguire,
 S. A. Baeppler,  Z. Benda,  Y. A. Bernard,  E. J. Berquist,  K. B. Bravaya,
 D. Casanova,  Chun-Min Chang,  Yunqing Chen,  A. Chien,  K. D. Closser,
 M. P. Coons,  S. Dasgupta,  M. Diedenhofen,  Hainam Do,  R. G. Edgar,
 Po-Tung Fang,  S. Fatehi,  Qingguo Feng,  Qinghui Ge,  A. Ghysels,
 J. Gomes,  J. Gonthier,  A. Gunina,  M. W. D. Hanson-Heine,
 P. H. P. Harbach,  A. W. Hauser,  J. E. Herr,  E. G. Hohenstein,
 Z. C. Holden,  Kerwin Hui,  T.-C. Jagau,  Hyunjun Ji,  B. Kaduk,
 K. Khistyaev,  Jaehoon Kim,  P. Klunzinger,  K. Koh,  D. Kosenkov,
 T. Kowalczyk,  C. M. Krauter,  A. Kunitsa,  Ka Un Lao,  A. Laurent,
 K. V. Lawler,  Joonho Lee,  D. Lefrancois,  S. Lehtola,  D. S. Levine,
 Yi-Pei Li,  You-Sheng Lin,  Fenglai Liu,  E. Livshits,  A. Luenser,
 P. Manohar,  E. Mansoor,  S. F. Manzer,  Shan-Ping Mao,  Yuezhi Mao,
 N. Mardirossian,  A. V. Marenich,  L. A. Martinez-Martinez,  S. A. Maurer,
 N. J. Mayhall,  S. C. McKenzie,  J.-M. Mewes,  A. F. Morrison,  K. Nanda,
 T. S. Nguyen-Beck,  R. Olivares-Amaya,  J. A. Parkhill,  T. M. Perrine,
 F. Plasser,  S. Prager,  A. Prociuk,  D. R. Rehn,  F. Rob,  M. Schneider,
 N. Sergueev,  S. M. Sharada,  S. Sharma,  D. W. Small,  T. Stauch,
 T. Stein,  Yu-Chuan Su,  A. J. W. Thom,  T. Tsuchimochi,  L. Vogt,
 O. Vydrov,  M. A. Watson,  J. Wenzel,  M. de Wergifosse,  T. A. Wesolowski,
 A. White,  J. Witte,  A. Yamada,  Jun Yang,  K. Yao,  S. Yeganeh,
 S. R. Yost,  Zhi-Qiang You,  A. Zech,  Igor Ying Zhang,  Xing Zhang,
 Yan Zhao,  Ying Zhu,  B. R. Brooks,  G. K. L. Chan,  C. J. Cramer,
 M. S. Gordon,  W. J. Hehre,  A. Klamt,  M. W. Schmidt,  C. D. Sherrill,
 D. G. Truhlar,  A. Aspuru-Guzik,  R. Baer,  A. T. Bell,  N. A. Besley,
 Jeng-Da Chai,  A. Dreuw,  B. D. Dunietz,  T. R. Furlani,  Chao-Ping Hsu,
 Yousung Jung,  Jing Kong,  D. S. Lambrecht,  WanZhen Liang,  C. Ochsenfeld,
 V. A. Rassolov,  L. V. Slipchenko,  J. E. Subotnik,  T. Van Voorhis,
 J. M. Herbert,  A. I. Krylov,  P. M. W. Gill,  M. Head-Gordon

 Contributors to earlier versions of Q-Chem not listed above:
 R. D. Adamson,  B. Austin,  J. Baker,  G. J. O. Beran,  K. Brandhorst,
 S. T. Brown,  E. F. C. Byrd,  A. K. Chakraborty,  C.-L. Cheng,
 Siu Hung Chien,  D. M. Chipman,  D. L. Crittenden,  H. Dachsel,
 R. A. DiStasio Jr.,  R. J. Doerksen,  A. D. Dutoi,  L. Fusti-Molnar,
 W. A. Goddard III,  A. Golubeva-Zadorozhnaya,  S. R. Gwaltney,  G. Hawkins,
 A. Heyden,  S. Hirata,  G. Kedziora,  F. J. Keil,  C. Kelley,  Jihan Kim,
 R. A. King,  R. Z. Khaliullin,  P. P. Korambath,  W. Kurlancheek,
 A. M. Lee,  M. S. Lee,  S. V. Levchenko,  Ching Yeh Lin,  D. Liotard,
 R. C. Lochan,  I. Lotan,  P. E. Maslen,  N. Nair,  D. P. O'Neill,
 D. Neuhauser,  E. Neuscamman,  C. M. Oana,  R. Olson,  B. Peters,
 R. Peverati,  P. A. Pieniazek,  Y. M. Rhee,  J. Ritchie,  M. A. Rohrdanz,
 E. Rosta,  N. J. Russ,  H. F. Schaefer III,  N. E. Schultz,  N. Shenvi,
 A. C. Simmonett,  A. Sodt,  D. Stuck,  K. S. Thanthiriwatte,  V. Vanovschi,
 Tao Wang,  A. Warshel,  C. F. Williams,  Q. Wu,  X. Xu,  W. Zhang

 Please cite Q-Chem as follows:
 Y. Shao et al., Mol. Phys. 113, 184-215 (2015)
 DOI: 10.1080/00268976.2014.952696

 Q-Chem 5.0.0 for Intel X86 EM64T Linux

 Parts of Q-Chem use Armadillo 5.200.1 (Boston Tea Smuggler).
 http://arma.sourceforge.net/

 Q-Chem begins on Wed Oct  4 18:03:11 2017

Host: nid04367
0

     Scratch files written to /global/cscratch1/sd/junteng/scratch/16/opt_10n01-+.save//
The previous job contains 0 fragments, simply inherited here

Checking the input file for inconsistencies... 	...done.

--------------------------------------------------------------
User input:
--------------------------------------------------------------

$molecule
   read
$end

$rem
JOBTYPE                   OPT
METHOD                    B3LYP
DFT_D                     D3_OP
BASIS                     6-311++G(d,p)
GEOM_OPT_MAX_CYCLES       500
GEOM_OPT_TOL_GRADIENT     1
GEOM_OPT_TOL_DISPLACEMENT 1
GEOM_OPT_TOL_ENERGY       1
SYMMETRY                  False
THRESH                    12
SCF_CONVERGENCE           8
MAX_SUB_FILE_NUM          128
MEM_STATIC                400
MEM_TOTAL                 4000
$end

--------------------------------------------------------------

    9    -688.2160425347      7.34E-09 Convergence criterion met
 Total energy in the final basis set = -688.2160425347
    9    -688.2160430351      2.88E-09 Convergence criterion met
 Total energy in the final basis set = -688.2160430351
    7    -688.2160428208      7.86E-09 Convergence criterion met
 Total energy in the final basis set = -688.2160428208
    6    -688.2160428057      7.20E-09 Convergence criterion met
 Total energy in the final basis set = -688.2160428057
    5    -688.2160428279      7.83E-09 Convergence criterion met
 Total energy in the final basis set = -688.2160428279
    4    -688.2160428195      6.27E-09 Convergence criterion met
 Total energy in the final basis set = -688.2160428195
 Final energy is   -688.216042819499
        *  Thank you very much for using Q-Chem.  Have a nice day.  *
 Q-Chem 5.0, Q-Chem, Inc., Pleasanton, CA (2017)
 Q-Chem 5.0.0 for Intel X86 EM64T Linux

             Standard Nuclear Orientation (Angstroms)
    I     Atom           X                Y                Z
 ----------------------------------------------------------------
    1      C      -0.1534332601    -0.8730195659    -0.0314570275
    2      C      -1.1072807315     0.1592476450    -0.0726969732
    3      C       1.2915696947    -0.5842564377    -0.2767492284
    4      C      -0.7379420181     1.6083406452    -0.1744272215
    5      O       2.0904017534    -1.5138821758     0.2879927714
    6      O       1.7083163544     0.3401264242    -0.9338006189
    7      O       0.1352228240     1.9569437137     0.7861304176
    8      O      -1.2180506295     2.3747377479    -0.9729024109
    9      C       0.6681140362     3.2911146006     0.6963960333
   10      C       3.5005370681    -1.3676272079     0.0409361803
   11      C      -0.5831065942    -2.1959657734     0.1194788258
   12      C      -1.9391595807    -2.4956793809     0.2134000078
   13      C      -2.8826079890    -1.4728425583     0.1494695802
   14      C      -2.4652197830    -0.1520874634     0.0033841618
   15      H       1.2555849607     3.3884036318    -0.2181006188
   16      H       3.7065224581    -1.4143955881    -1.0295163622
   17      H      -3.9404325268    -1.7006832670     0.2137498446
   18      H      -0.1360049499     4.0278256026     0.6965827377
   19      H       1.3008170268     3.4095429224     1.5730361386
   20      H       3.9716548605    -2.1991658770     0.5602982386
   21      H       3.8592009361    -0.4157798687     0.4349069349
   22      H      -2.2569201930    -3.5260184846     0.3251433493
   23      H      -3.1893524374     0.6519429707    -0.0465685996
   24      H       0.1529823917    -2.9884247411     0.1447010311
 ----------------------------------------------------------------

   15    -688.2160600573      7.15E-09 Convergence criterion met
 Total energy in the final basis set = -688.2160600573

                    Orbital Energies (a.u.)
 --------------------------------------------------------------

 Alpha MOs
 -- Occupied --
-19.180 -19.170 -19.121 -19.115 -10.314 -10.308 -10.234 -10.224
-10.212 -10.211 -10.199 -10.199 -10.197 -10.197  -1.121  -1.112
 -1.034  -1.026  -0.887  -0.796  -0.787  -0.741  -0.729  -0.655
 -0.639  -0.594  -0.573  -0.553  -0.523  -0.503  -0.493  -0.489
 -0.486  -0.480  -0.463  -0.457  -0.435  -0.431  -0.418  -0.402
 -0.390  -0.382  -0.375  -0.372  -0.361  -0.323  -0.309  -0.298
 -0.293  -0.277  -0.270

          Ground-State Mulliken Net Atomic Charges

     Atom                 Charge (a.u.)
  ----------------------------------------
      1 C                     0.731978
      2 C                     0.342428
      3 C                    -0.381214
      4 C                    -0.646780
      5 O                    -0.064032
      6 O                    -0.213314
      7 O                    -0.004385
      8 O                    -0.213939
      9 C                    -0.245110
     10 C                    -0.236276
     11 C                    -0.094874
     12 C                    -0.204517
     13 C                    -0.200100
     14 C                    -0.304858
     15 H                     0.187549
     16 H                     0.188915
     17 H                     0.172370
     18 H                     0.168324
     19 H                     0.154273
     20 H                     0.158872
     21 H                     0.172924
     22 H                     0.174009
     23 H                     0.175158
     24 H                     0.182601
  ----------------------------------------
  Sum of atomic charges =     0.000000

                    Cartesian Multipole Moments
 -----------------------------------------------------------------
    Charge (ESU x 10^10)
                 0.0000
    Dipole Moment (Debye)
         X       0.9612      Y      -2.4434      Z       2.2001
       Tot       3.4255
    Quadrupole Moments (Debye-Ang)
        XX     -67.6239     XY       3.3119     YY     -73.4524
        XZ      -0.7058     YZ       6.5070     ZZ     -87.5687

 Frequency:        23.25                  73.45                  78.61
 Force Cnst:      0.0019                 0.0098                 0.0152
 Red. Mass:       5.9033                 3.0725                 4.1641
 IR Intens:        0.501                  0.354                  5.040
 Frequency:        92.13                 111.13                 121.59
 Force Cnst:      0.0158                 0.0098                 0.0110
 Red. Mass:       3.1625                 1.3487                 1.2612
 IR Intens:        2.983                  0.379                  0.460
 Frequency:       137.48                 155.28                 214.66
 Force Cnst:      0.0322                 0.0483                 0.1419
 Red. Mass:       2.8897                 3.3979                 5.2258
 IR Intens:        2.229                  1.455                  1.038
 Frequency:       251.81                 283.66                 307.26
 Force Cnst:      0.2181                 0.2071                 0.2854
 Red. Mass:       5.8372                 4.3689                 5.1307
 IR Intens:        1.633                  8.580                  5.147
 Frequency:       332.48                 367.70                 396.47
 Force Cnst:      0.3433                 0.5240                 0.5065
 Red. Mass:       5.2704                 6.5781                 5.4692
 IR Intens:       14.306                 10.231                  1.219
 Frequency:       422.94                 535.47                 559.76
 Force Cnst:      0.4138                 0.8715                 0.8331
 Red. Mass:       3.9261                 5.1589                 4.5128
 IR Intens:        0.885                  2.333                  4.773
 Frequency:       664.67                 703.64                 715.29
 Force Cnst:      1.6334                 1.7747                 1.6292
 Red. Mass:       6.2752                 6.0839                 5.4045
 IR Intens:        4.571                  6.319                  8.007
 Frequency:       750.39                 799.10                 813.25
 Force Cnst:      0.6693                 1.0911                 1.5098
 Red. Mass:       2.0175                 2.9001                 3.8745
 IR Intens:       79.561                 18.594                  5.849
 Frequency:       828.17                 847.65                 903.70
 Force Cnst:      2.0283                 2.1435                 0.7144
 Red. Mass:       5.0194                 5.0635                 1.4848
 IR Intens:       10.982                  1.181                  0.648
 Frequency:       974.81                 984.10                 985.85
 Force Cnst:      1.3912                 4.0815                 1.2804
 Red. Mass:       2.4849                 7.1529                 2.2360
 IR Intens:       15.188                  1.295                  6.794
 Frequency:      1003.70                1062.96                1096.95
 Force Cnst:      0.7814                 1.6554                 3.4681
 Red. Mass:       1.3164                 2.4867                 4.8919
 IR Intens:        0.520                 16.848                 93.062
 Frequency:      1144.21                1155.72                1169.70
 Force Cnst:      2.2206                 1.4848                 1.0464
 Red. Mass:       2.8787                 1.8867                 1.2981
 IR Intens:      159.730                 55.618                  1.293
 Frequency:      1170.42                1190.46                1210.85
 Force Cnst:      1.0350                 0.9344                 1.3546
 Red. Mass:       1.2823                 1.1191                 1.5681
 IR Intens:        0.745                  2.005                 32.595
 Frequency:      1214.23                1275.95                1288.39
 Force Cnst:      1.4141                 3.1586                 3.0114
 Red. Mass:       1.6279                 3.2929                 3.0791
 IR Intens:       48.132                187.367                386.052
 Frequency:      1312.09                1334.49                1465.85
 Force Cnst:      2.1987                 7.7867                 1.5972
 Red. Mass:       2.1676                 7.4212                 1.2616
 IR Intens:      171.717                 21.954                 13.179
 Frequency:      1468.13                1475.94                1482.21
 Force Cnst:      1.5223                 2.5471                 1.3531
 Red. Mass:       1.1987                 1.9845                 1.0453
 IR Intens:       19.421                  7.939                  5.524
 Frequency:      1483.04                1496.07                1496.70
 Force Cnst:      1.3568                 1.3805                 1.3827
 Red. Mass:       1.0471                 1.0469                 1.0476
 IR Intens:       13.217                 16.945                  3.339
 Frequency:      1515.72                1612.43                1636.59
 Force Cnst:      3.5906                 9.6650                 9.0682
 Red. Mass:       2.6527                 6.3094                 5.7463
 IR Intens:       12.318                 11.890                  6.740
 Frequency:      1773.17                1782.76                3050.13
 Force Cnst:     21.8489                22.2347                 5.6434
 Red. Mass:      11.7945                11.8740                 1.0296
 IR Intens:      248.609                305.192                 29.778
 Frequency:      3050.60                3123.71                3125.95
 Force Cnst:      5.6440                 6.3649                 6.3747
 Red. Mass:       1.0294                 1.1071                 1.1073
 IR Intens:       39.496                 17.441                 14.323
 Frequency:      3157.67                3158.13                3173.05
 Force Cnst:      6.4990                 6.5006                 6.4465
 Red. Mass:       1.1063                 1.1062                 1.0867
 IR Intens:       13.622                 13.076                  1.660
 Frequency:      3186.86                3199.02                3210.61
 Force Cnst:      6.5313                 6.6019                 6.6424
 Red. Mass:       1.0915                 1.0949                 1.0937
 IR Intens:        8.892                  6.985                  3.662

 STANDARD THERMODYNAMIC QUANTITIES AT   298.15 K  AND     1.00 ATM

   This Molecule has  0 Imaginary Frequencies
   Zero point vibrational energy:      116.067 kcal/mol

   Atom    1 Element C  Has Mass   12.00000
   Atom    2 Element C  Has Mass   12.00000
   Atom    3 Element C  Has Mass   12.00000
   Atom    4 Element C  Has Mass   12.00000
   Atom    5 Element O  Has Mass   15.99491
   Atom    6 Element O  Has Mass   15.99491
   Atom    7 Element O  Has Mass   15.99491
   Atom    8 Element O  Has Mass   15.99491
   Atom    9 Element C  Has Mass   12.00000
   Atom   10 Element C  Has Mass   12.00000
   Atom   11 Element C  Has Mass   12.00000
   Atom   12 Element C  Has Mass   12.00000
   Atom   13 Element C  Has Mass   12.00000
   Atom   14 Element C  Has Mass   12.00000
   Atom   15 Element H  Has Mass    1.00783
   Atom   16 Element H  Has Mass    1.00783
   Atom   17 Element H  Has Mass    1.00783
   Atom   18 Element H  Has Mass    1.00783
   Atom   19 Element H  Has Mass    1.00783
   Atom   20 Element H  Has Mass    1.00783
   Atom   21 Element H  Has Mass    1.00783
   Atom   22 Element H  Has Mass    1.00783
   Atom   23 Element H  Has Mass    1.00783
   Atom   24 Element H  Has Mass    1.00783
   Molecular Mass:   194.057940 amu
   Principal axes and moments of inertia in amu*Bohr^2:
                             1           2           3
    Eigenvalues --     2391.11737  2462.93127  4474.24984
          X               0.97194     0.23523     0.00080
          Y              -0.23523     0.97189     0.00965
          Z               0.00149    -0.00956     0.99995
   Rotational Symmetry Number is   1
   The Molecule is an Asymmetric Top
   Translational Enthalpy:        0.889 kcal/mol
   Rotational Enthalpy:           0.889 kcal/mol
   Vibrational Enthalpy:        122.786 kcal/mol
   gas constant (RT):             0.592 kcal/mol
   Translational Entropy:        41.694  cal/mol.K
   Rotational Entropy:           31.644  cal/mol.K
   Vibrational Entropy:          44.776  cal/mol.K

   Total Enthalpy:              125.156 kcal/mol
   Total Entropy:               118.114  cal/mol.K

 Total job time:  4070.80s(wall), 20266.75s(cpu)
        *  Thank you very much for using Q-Chem.  Have a nice day.  *
