 Q-Chem 5.0, Q-Chem, Inc., Pleasanton, CA (2017)
 Q-Chem 5.0.0 for Intel X86 EM64T Linux

User input:
--------------------------------------------------------------
$molecule
0  1
C    0.579  -1.978   0.499
C   -0.345  -1.987   1.740
C    0.941  -0.610  -0.048
C   -0.562  -0.630   2.386
O    2.215  -0.645  -0.542
O    0.210   0.366  -0.087
O    0.648  -0.161   2.826
O   -1.631  -0.088   2.617
C    0.572   1.116   3.461
C    2.652   0.593  -1.106
C   -0.242  -2.782  -0.524
C   -0.292  -4.259  -0.098
C   -1.265  -4.223   1.081
C   -1.594  -2.718   1.188
O   -1.591  -2.362  -0.216
H    1.516  -2.494   0.747
H    0.090  -2.606   2.538
H   -0.024   1.052   4.377
H    2.622   1.389  -0.356
H   -0.708  -4.895  -0.888
H    0.690  -4.657   0.174
H   -2.154  -4.811   0.825
H   -0.840  -4.639   1.999
H    1.587   1.422   3.729
H    0.156   1.863   2.777
H    2.039   0.852  -1.975
H    3.687   0.467  -1.436
C   -2.945  -2.478   1.828
H   -3.699  -3.155   1.411
H   -2.911  -2.635   2.910
H   -3.320  -1.473   1.614
C    0.085  -2.603  -1.994
H   -0.579  -3.214  -2.616
H   -0.074  -1.570  -2.320
H    1.119  -2.890  -2.210
$end

$opt
CONSTRAINT
tors    2    1    3    5    147.3
tors    1    2    4    7    -64.6
ENDCONSTRAINT
$end

$rem
JOBTYPE                   OPT
METHOD                    B3LYP
DFT_D                     D3_OP
BASIS                     STO-3G
GEOM_OPT_MAX_CYCLES       500
SYMMETRY                  False
THRESH                    12
SCF_CONVERGENCE           8
MAX_SUB_FILE_NUM          128
MEM_STATIC                400
MEM_TOTAL                 4000
$end

--------------------------------------------------------------

   14    -833.4099632771      3.41E-09 Convergence criterion met
 Total energy in the final basis set = -833.4099632771
   13    -833.4404851559      2.49E-09 Convergence criterion met
 Total energy in the final basis set = -833.4404851559
   13    -833.4469466525      3.53E-09 Convergence criterion met
 Total energy in the final basis set = -833.4469466525
   12    -833.4476147079      3.92E-09 Convergence criterion met
 Total energy in the final basis set = -833.4476147079
   11    -833.4478511830      8.12E-09 Convergence criterion met
 Total energy in the final basis set = -833.4478511830
   11    -833.4480778829      8.96E-09 Convergence criterion met
 Total energy in the final basis set = -833.4480778829
   11    -833.4483104832      6.76E-09 Convergence criterion met
 Total energy in the final basis set = -833.4483104832
   12    -833.4485667088      2.86E-09 Convergence criterion met
 **  OPTIMIZATION CONVERGED  **
 Total job time:  144.26s(wall), 2921.50s(cpu)
        *  Thank you very much for using Q-Chem.  Have a nice day.  *

User input: 2 of 3

nid04267 10.128.16
Q-Chem Developer Version! Running on 10.128.16.*
                  Welcome to Q-Chem
     A Quantum Leap Into The Future Of Chemistry

 Q-Chem 5.0, Q-Chem, Inc., Pleasanton, CA (2017)

 Yihan Shao,  Zhengting Gan,  E. Epifanovsky,  A. T. B. Gilbert,  M. Wormit,
 J. Kussmann,  A. W. Lange,  A. Behn,  Jia Deng,  Xintian Feng,  D. Ghosh,
 M. Goldey,  P. R. Horn,  L. D. Jacobson,  I. Kaliman,  T. Kus,  A. Landau,
 Jie Liu,  E. I. Proynov,  R. M. Richard,  R. P. Steele,  E. J. Sundstrom,
 H. L. Woodcock III,  P. M. Zimmerman,  D. Zuev,  B. Albrecht,  E. Alguire,
 S. A. Baeppler,  Z. Benda,  Y. A. Bernard,  E. J. Berquist,  K. B. Bravaya,
 D. Casanova,  Chun-Min Chang,  Yunqing Chen,  A. Chien,  K. D. Closser,
 M. P. Coons,  S. Dasgupta,  M. Diedenhofen,  Hainam Do,  R. G. Edgar,
 Po-Tung Fang,  S. Fatehi,  Qingguo Feng,  Qinghui Ge,  A. Ghysels,
 J. Gomes,  J. Gonthier,  A. Gunina,  M. W. D. Hanson-Heine,
 P. H. P. Harbach,  A. W. Hauser,  J. E. Herr,  E. G. Hohenstein,
 Z. C. Holden,  Kerwin Hui,  T.-C. Jagau,  Hyunjun Ji,  B. Kaduk,
 K. Khistyaev,  Jaehoon Kim,  P. Klunzinger,  K. Koh,  D. Kosenkov,
 T. Kowalczyk,  C. M. Krauter,  A. Kunitsa,  Ka Un Lao,  A. Laurent,
 K. V. Lawler,  Joonho Lee,  D. Lefrancois,  S. Lehtola,  D. S. Levine,
 Yi-Pei Li,  You-Sheng Lin,  Fenglai Liu,  E. Livshits,  A. Luenser,
 P. Manohar,  E. Mansoor,  S. F. Manzer,  Shan-Ping Mao,  Yuezhi Mao,
 N. Mardirossian,  A. V. Marenich,  L. A. Martinez-Martinez,  S. A. Maurer,
 N. J. Mayhall,  S. C. McKenzie,  J.-M. Mewes,  A. F. Morrison,  K. Nanda,
 T. S. Nguyen-Beck,  R. Olivares-Amaya,  J. A. Parkhill,  T. M. Perrine,
 F. Plasser,  S. Prager,  A. Prociuk,  D. R. Rehn,  F. Rob,  M. Schneider,
 N. Sergueev,  S. M. Sharada,  S. Sharma,  D. W. Small,  T. Stauch,
 T. Stein,  Yu-Chuan Su,  A. J. W. Thom,  T. Tsuchimochi,  L. Vogt,
 O. Vydrov,  M. A. Watson,  J. Wenzel,  M. de Wergifosse,  T. A. Wesolowski,
 A. White,  J. Witte,  A. Yamada,  Jun Yang,  K. Yao,  S. Yeganeh,
 S. R. Yost,  Zhi-Qiang You,  A. Zech,  Igor Ying Zhang,  Xing Zhang,
 Yan Zhao,  Ying Zhu,  B. R. Brooks,  G. K. L. Chan,  C. J. Cramer,
 M. S. Gordon,  W. J. Hehre,  A. Klamt,  M. W. Schmidt,  C. D. Sherrill,
 D. G. Truhlar,  A. Aspuru-Guzik,  R. Baer,  A. T. Bell,  N. A. Besley,
 Jeng-Da Chai,  A. Dreuw,  B. D. Dunietz,  T. R. Furlani,  Chao-Ping Hsu,
 Yousung Jung,  Jing Kong,  D. S. Lambrecht,  WanZhen Liang,  C. Ochsenfeld,
 V. A. Rassolov,  L. V. Slipchenko,  J. E. Subotnik,  T. Van Voorhis,
 J. M. Herbert,  A. I. Krylov,  P. M. W. Gill,  M. Head-Gordon

 Contributors to earlier versions of Q-Chem not listed above:
 R. D. Adamson,  B. Austin,  J. Baker,  G. J. O. Beran,  K. Brandhorst,
 S. T. Brown,  E. F. C. Byrd,  A. K. Chakraborty,  C.-L. Cheng,
 Siu Hung Chien,  D. M. Chipman,  D. L. Crittenden,  H. Dachsel,
 R. A. DiStasio Jr.,  R. J. Doerksen,  A. D. Dutoi,  L. Fusti-Molnar,
 W. A. Goddard III,  A. Golubeva-Zadorozhnaya,  S. R. Gwaltney,  G. Hawkins,
 A. Heyden,  S. Hirata,  G. Kedziora,  F. J. Keil,  C. Kelley,  Jihan Kim,
 R. A. King,  R. Z. Khaliullin,  P. P. Korambath,  W. Kurlancheek,
 A. M. Lee,  M. S. Lee,  S. V. Levchenko,  Ching Yeh Lin,  D. Liotard,
 R. C. Lochan,  I. Lotan,  P. E. Maslen,  N. Nair,  D. P. O'Neill,
 D. Neuhauser,  E. Neuscamman,  C. M. Oana,  R. Olson,  B. Peters,
 R. Peverati,  P. A. Pieniazek,  Y. M. Rhee,  J. Ritchie,  M. A. Rohrdanz,
 E. Rosta,  N. J. Russ,  H. F. Schaefer III,  N. E. Schultz,  N. Shenvi,
 A. C. Simmonett,  A. Sodt,  D. Stuck,  K. S. Thanthiriwatte,  V. Vanovschi,
 Tao Wang,  A. Warshel,  C. F. Williams,  Q. Wu,  X. Xu,  W. Zhang

 Please cite Q-Chem as follows:
 Y. Shao et al., Mol. Phys. 113, 184-215 (2015)
 DOI: 10.1080/00268976.2014.952696

 Q-Chem 5.0.0 for Intel X86 EM64T Linux

 Parts of Q-Chem use Armadillo 5.200.1 (Boston Tea Smuggler).
 http://arma.sourceforge.net/

 Q-Chem begins on Wed Oct  4 18:01:55 2017

Host: nid04267
0

     Scratch files written to /global/cscratch1/sd/junteng/scratch/15/opt_1111oo.save//
The previous job contains 0 fragments, simply inherited here

Checking the input file for inconsistencies... 	...done.

--------------------------------------------------------------
User input:
--------------------------------------------------------------

$molecule
   read
$end

$rem
JOBTYPE                   OPT
METHOD                    B3LYP
DFT_D                     D3_OP
BASIS                     6-311++G(d,p)
GEOM_OPT_MAX_CYCLES       500
GEOM_OPT_TOL_GRADIENT     1
GEOM_OPT_TOL_DISPLACEMENT 1
GEOM_OPT_TOL_ENERGY       1
SYMMETRY                  False
THRESH                    12
SCF_CONVERGENCE           8
MAX_SUB_FILE_NUM          128
MEM_STATIC                400
MEM_TOTAL                 4000
$end

--------------------------------------------------------------

    7    -844.5292390086      5.99E-09 Convergence criterion met
 Total energy in the final basis set = -844.5292390086
    6    -844.5292389864      4.42E-09 Convergence criterion met
 Total energy in the final basis set = -844.5292389864
    5    -844.5292390081      9.98E-09 Convergence criterion met
 Total energy in the final basis set = -844.5292390081
    5    -844.5292389926      9.11E-09 Convergence criterion met
 Total energy in the final basis set = -844.5292389926
    5    -844.5292390046      9.16E-09 Convergence criterion met
 Total energy in the final basis set = -844.5292390046
    5    -844.5292389950      8.71E-09 Convergence criterion met
 Total energy in the final basis set = -844.5292389950
 Final energy is   -844.529238995034
        *  Thank you very much for using Q-Chem.  Have a nice day.  *
 Q-Chem 5.0, Q-Chem, Inc., Pleasanton, CA (2017)
 Q-Chem 5.0.0 for Intel X86 EM64T Linux

             Standard Nuclear Orientation (Angstroms)
    I     Atom           X                Y                Z
 ----------------------------------------------------------------
    1      C       0.0294105141     0.6607495944     0.6485377833
    2      C       0.5117837577    -0.8304111539     0.6437042020
    3      C      -1.2614093110     0.9270640300    -0.0922997452
    4      C      -0.5049648711    -1.8067535371     0.0682851482
    5      O      -1.9800377848     1.8780476315     0.5476888340
    6      O      -1.6075129017     0.4248120957    -1.1323112884
    7      O      -1.6292042797    -1.7564761984     0.8261969528
    8      O      -0.3702047138    -2.5605753500    -0.8579439248
    9      C      -2.7408958580    -2.5355774016     0.3484933565
   10      C      -3.2037261349     2.2805376557    -0.0947708896
   11      C       1.2395787652     1.3711777376    -0.0722348719
   12      C       2.4067345536     1.4213645524     0.9462483280
   13      C       2.8681332613    -0.0580172759     0.9581357537
   14      C       1.8992412806    -0.7135667634    -0.0681963317
   15      O       1.6739845405     0.3674724943    -0.9954062827
   16      H      -0.0901359284     1.0413650954     1.6611847959
   17      H       0.6478735334    -1.1548002690     1.6785368870
   18      H      -2.4812650148    -3.5944196296     0.3078137140
   19      H      -3.8632392874     1.4222726321    -0.2306272228
   20      H       3.1917742445     2.0807967575     0.5707107222
   21      H       2.0938845450     1.7948870458     1.9231749035
   22      H       3.8942636618    -0.1549969732     0.5997455963
   23      H       2.8128071364    -0.5274831017     1.9424744724
   24      H      -3.5429761024    -2.3660552725     1.0639010752
   25      H      -3.0321252345    -2.1944068042    -0.6462216443
   26      H      -2.9948036813     2.7287822991    -1.0675592545
   27      H      -3.6560144519     3.0100710173     0.5734045494
   28      C       2.4678475708    -1.9214468769    -0.7810574767
   29      H       3.4628818155    -1.6784293132    -1.1613386535
   30      H       2.5583969722    -2.7631550396    -0.0890599027
   31      H       1.8277161080    -2.2276620276    -1.6039845851
   32      C       0.9351150605     2.6676022350    -0.7901873238
   33      H       1.8434400449     3.0494150251    -1.2606660989
   34      H       0.1852948911     2.5132754012    -1.5681363196
   35      H       0.5649363316     3.4179609938    -0.0870949574
 ----------------------------------------------------------------

   15    -844.5292060093      3.72E-09 Convergence criterion met
 Total energy in the final basis set = -844.5292060093

                    Orbital Energies (a.u.)
 --------------------------------------------------------------

 Alpha MOs
 -- Occupied --
-19.176 -19.166 -19.125 -19.117 -19.111 -10.306 -10.303 -10.242
-10.236 -10.232 -10.223 -10.203 -10.203 -10.177 -10.175 -10.168
-10.154  -1.117  -1.108  -1.059  -1.029  -1.023  -0.830  -0.803
 -0.782  -0.749  -0.725  -0.720  -0.670  -0.642  -0.601  -0.581
 -0.563  -0.553  -0.526  -0.508  -0.501  -0.491  -0.488  -0.480
 -0.473  -0.470  -0.456  -0.439  -0.433  -0.422  -0.419  -0.411
 -0.405  -0.396  -0.392  -0.373  -0.369  -0.365  -0.358  -0.355
 -0.352  -0.346  -0.331  -0.323  -0.318  -0.308  -0.289  -0.274
 -0.269

          Ground-State Mulliken Net Atomic Charges

     Atom                 Charge (a.u.)
  ----------------------------------------
      1 C                     0.693180
      2 C                     0.417904
      3 C                    -1.524691
      4 C                    -0.525736
      5 O                     0.041858
      6 O                    -0.151793
      7 O                    -0.018855
      8 O                    -0.171862
      9 C                    -0.176143
     10 C                    -0.186812
     11 C                    -0.177138
     12 C                    -0.292822
     13 C                    -0.438148
     14 C                    -0.749809
     15 O                     0.038966
     16 H                     0.295057
     17 H                     0.261184
     18 H                     0.169515
     19 H                     0.162257
     20 H                     0.170219
     21 H                     0.140854
     22 H                     0.174711
     23 H                     0.139384
     24 H                     0.148801
     25 H                     0.190491
     26 H                     0.178621
     27 H                     0.154231
     28 C                    -0.021844
     29 H                     0.141316
     30 H                     0.159666
     31 H                     0.207924
     32 C                    -0.011505
     33 H                     0.178622
     34 H                     0.218760
     35 H                     0.163636
  ----------------------------------------
  Sum of atomic charges =     0.000000

                    Cartesian Multipole Moments
 -----------------------------------------------------------------
    Charge (ESU x 10^10)
                 0.0000
    Dipole Moment (Debye)
         X      -0.8256      Y       2.0059      Z       3.5040
       Tot       4.1211
    Quadrupole Moments (Debye-Ang)
        XX     -89.2104     XY      -0.9600     YY     -97.7902
        XZ       1.5811     YZ      -4.7474     ZZ    -107.8500

 Frequency:        24.56                  37.71                  79.99
 Force Cnst:      0.0014                 0.0041                 0.0192
 Red. Mass:       3.8744                 4.8871                 5.0832
 IR Intens:        0.025                  0.844                  3.010
 Frequency:       100.07                 121.55                 146.74
 Force Cnst:      0.0206                 0.0156                 0.0249
 Red. Mass:       3.4922                 1.7923                 1.9648
 IR Intens:        2.028                  0.228                  1.452
 Frequency:       149.90                 151.48                 185.96
 Force Cnst:      0.0202                 0.0219                 0.0628
 Red. Mass:       1.5250                 1.6194                 3.0803
 IR Intens:        0.872                  0.470                  0.505
 Frequency:       219.65                 220.78                 225.61
 Force Cnst:      0.0923                 0.0383                 0.0521
 Red. Mass:       3.2463                 1.3325                 1.7360
 IR Intens:        0.801                  1.846                  2.737
 Frequency:       233.30                 247.13                 260.48
 Force Cnst:      0.0515                 0.0806                 0.1877
 Red. Mass:       1.6056                 2.2390                 4.6950
 IR Intens:        2.663                  1.822                  4.148
 Frequency:       280.98                 320.01                 325.13
 Force Cnst:      0.1708                 0.2430                 0.1626
 Red. Mass:       3.6720                 4.0279                 2.6110
 IR Intens:        1.163                 12.273                  0.377
 Frequency:       339.87                 367.42                 369.65
 Force Cnst:      0.2391                 0.3389                 0.3002
 Red. Mass:       3.5136                 4.2610                 3.7287
 IR Intens:        5.401                  4.091                  8.896
 Frequency:       422.87                 489.20                 572.57
 Force Cnst:      0.3042                 0.4710                 0.7417
 Red. Mass:       2.8878                 3.3406                 3.8399
 IR Intens:        3.858                 12.588                 11.420
 Frequency:       596.55                 613.51                 647.93
 Force Cnst:      0.9862                 0.8970                 1.1171
 Red. Mass:       4.7033                 4.0447                 4.5164
 IR Intens:        8.740                  3.912                  2.087
 Frequency:       674.68                 719.42                 754.98
 Force Cnst:      1.2907                 1.8107                 1.5438
 Red. Mass:       4.8126                 5.9379                 4.5970
 IR Intens:        1.020                  7.442                  2.864
 Frequency:       807.98                 825.07                 858.22
 Force Cnst:      1.1963                 1.0335                 1.3459
 Red. Mass:       3.1103                 2.5768                 3.1014
 IR Intens:        1.770                  8.499                  6.185
 Frequency:       862.14                 872.02                 887.60
 Force Cnst:      2.1052                 1.9103                 1.1510
 Red. Mass:       4.8072                 4.2638                 2.4797
 IR Intens:        7.273                 23.077                 18.625
 Frequency:       890.54                 914.41                 926.41
 Force Cnst:      1.1347                 1.0998                 1.3217
 Red. Mass:       2.4284                 2.2325                 2.6139
 IR Intens:        8.318                 11.624                 30.516
 Frequency:       968.13                 971.82                 985.82
 Force Cnst:      1.8319                 2.4718                 1.9220
 Red. Mass:       3.3174                 4.4422                 3.3566
 IR Intens:        7.644                  3.382                  5.399
 Frequency:      1010.78                1056.37                1064.99
 Force Cnst:      0.9543                 2.4521                 2.0139
 Red. Mass:       1.5853                 3.7295                 3.0136
 IR Intens:        2.055                 62.262                 53.520
 Frequency:      1109.76                1129.39                1137.50
 Force Cnst:      1.0834                 1.3184                 1.8624
 Red. Mass:       1.4930                 1.7544                 2.4430
 IR Intens:        7.271                 22.044                 23.253
 Frequency:      1165.45                1171.11                1172.16
 Force Cnst:      1.7440                 1.0473                 1.1059
 Red. Mass:       2.1792                 1.2961                 1.3662
 IR Intens:      112.248                  9.232                 13.185
 Frequency:      1181.07                1195.14                1204.89
 Force Cnst:      1.9189                 2.4182                 1.6151
 Red. Mass:       2.3348                 2.8735                 1.8882
 IR Intens:       57.392                369.449                  7.034
 Frequency:      1209.79                1212.37                1220.79
 Force Cnst:      1.3522                 1.6392                 1.6048
 Red. Mass:       1.5681                 1.8928                 1.8277
 IR Intens:       19.390                159.749                 17.003
 Frequency:      1245.92                1257.62                1263.25
 Force Cnst:      2.0309                 1.2599                 1.4033
 Red. Mass:       2.2205                 1.3520                 1.4926
 IR Intens:       37.539                  3.200                 26.474
 Frequency:      1286.42                1329.92                1343.70
 Force Cnst:      1.6648                 1.6270                 2.4282
 Red. Mass:       1.7074                 1.5613                 2.2826
 IR Intens:        8.372                  1.638                  6.372
 Frequency:      1370.46                1396.28                1417.62
 Force Cnst:      1.7467                 1.8179                 1.6246
 Red. Mass:       1.5784                 1.5826                 1.3721
 IR Intens:      101.236                 39.188                 24.211
 Frequency:      1428.73                1466.87                1468.75
 Force Cnst:      1.5960                 1.5036                 1.5303
 Red. Mass:       1.3270                 1.1860                 1.2040
 IR Intens:       11.937                 14.327                 14.330
 Frequency:      1482.57                1483.86                1484.04
 Force Cnst:      1.3751                 1.3569                 1.3573
 Red. Mass:       1.0618                 1.0460                 1.0460
 IR Intens:        4.227                  1.178                 16.912
 Frequency:      1488.32                1494.43                1495.78
 Force Cnst:      1.3854                 1.3943                 1.3812
 Red. Mass:       1.0615                 1.0596                 1.0478
 IR Intens:        5.492                  0.910                  7.804
 Frequency:      1499.13                1501.52                1508.16
 Force Cnst:      1.3839                 1.3981                 1.4218
 Red. Mass:       1.0451                 1.0525                 1.0609
 IR Intens:       14.331                  7.398                 11.016
 Frequency:      1511.76                1791.40                1811.76
 Force Cnst:      1.4626                20.8481                22.1107
 Red. Mass:       1.0862                11.0263                11.4328
 IR Intens:        7.647                 89.511                319.727
 Frequency:      3041.14                3042.30                3048.85
 Force Cnst:      5.6405                 5.6758                 5.6382
 Red. Mass:       1.0351                 1.0408                 1.0295
 IR Intens:       14.474                 16.631                 18.395
 Frequency:      3049.18                3053.50                3061.72
 Force Cnst:      5.6402                 5.8281                 5.9065
 Red. Mass:       1.0296                 1.0609                 1.0694
 IR Intens:       51.686                 30.258                 23.471
 Frequency:      3067.68                3090.51                3099.25
 Force Cnst:      5.9439                 6.2290                 6.2376
 Red. Mass:       1.0720                 1.1069                 1.1022
 IR Intens:       28.531                  0.260                 12.796
 Frequency:      3108.44                3110.50                3116.71
 Force Cnst:      6.2811                 6.2745                 6.3106
 Red. Mass:       1.1033                 1.1007                 1.1026
 IR Intens:       14.742                 29.097                 20.085
 Frequency:      3118.53                3122.18                3123.46
 Force Cnst:      6.2425                 6.3577                 6.3639
 Red. Mass:       1.0895                 1.1070                 1.1071
 IR Intens:       26.155                 20.333                 14.038
 Frequency:      3152.51                3156.24                3165.33
 Force Cnst:      6.4790                 6.4921                 6.4726
 Red. Mass:       1.1065                 1.1061                 1.0965
 IR Intens:       14.035                 14.384                  2.163

 STANDARD THERMODYNAMIC QUANTITIES AT   298.15 K  AND     1.00 ATM

   This Molecule has  0 Imaginary Frequencies
   Zero point vibrational energy:      183.654 kcal/mol

   Atom    1 Element C  Has Mass   12.00000
   Atom    2 Element C  Has Mass   12.00000
   Atom    3 Element C  Has Mass   12.00000
   Atom    4 Element C  Has Mass   12.00000
   Atom    5 Element O  Has Mass   15.99491
   Atom    6 Element O  Has Mass   15.99491
   Atom    7 Element O  Has Mass   15.99491
   Atom    8 Element O  Has Mass   15.99491
   Atom    9 Element C  Has Mass   12.00000
   Atom   10 Element C  Has Mass   12.00000
   Atom   11 Element C  Has Mass   12.00000
   Atom   12 Element C  Has Mass   12.00000
   Atom   13 Element C  Has Mass   12.00000
   Atom   14 Element C  Has Mass   12.00000
   Atom   15 Element O  Has Mass   15.99491
   Atom   16 Element H  Has Mass    1.00783
   Atom   17 Element H  Has Mass    1.00783
   Atom   18 Element H  Has Mass    1.00783
   Atom   19 Element H  Has Mass    1.00783
   Atom   20 Element H  Has Mass    1.00783
   Atom   21 Element H  Has Mass    1.00783
   Atom   22 Element H  Has Mass    1.00783
   Atom   23 Element H  Has Mass    1.00783
   Atom   24 Element H  Has Mass    1.00783
   Atom   25 Element H  Has Mass    1.00783
   Atom   26 Element H  Has Mass    1.00783
   Atom   27 Element H  Has Mass    1.00783
   Atom   28 Element C  Has Mass   12.00000
   Atom   29 Element H  Has Mass    1.00783
   Atom   30 Element H  Has Mass    1.00783
   Atom   31 Element H  Has Mass    1.00783
   Atom   32 Element C  Has Mass   12.00000
   Atom   33 Element H  Has Mass    1.00783
   Atom   34 Element H  Has Mass    1.00783
   Atom   35 Element H  Has Mass    1.00783
   Molecular Mass:   242.115490 amu
   Principal axes and moments of inertia in amu*Bohr^2:
                             1           2           3
    Eigenvalues --     2977.16070  3616.89369  5613.45742
          X               0.99992    -0.01163     0.00564
          Y               0.01166     0.99992    -0.00476
          Z              -0.00558     0.00483     0.99997
   Rotational Symmetry Number is   1
   The Molecule is an Asymmetric Top
   Translational Enthalpy:        0.889 kcal/mol
   Rotational Enthalpy:           0.889 kcal/mol
   Vibrational Enthalpy:        192.705 kcal/mol
   gas constant (RT):             0.592 kcal/mol
   Translational Entropy:        42.354  cal/mol.K
   Rotational Entropy:           32.469  cal/mol.K
   Vibrational Entropy:          58.042  cal/mol.K

   Total Enthalpy:              195.075 kcal/mol
   Total Entropy:               132.864  cal/mol.K

 Total job time:  14296.57s(wall), 84775.78s(cpu)
        *  Thank you very much for using Q-Chem.  Have a nice day.  *
