 Q-Chem 5.0, Q-Chem, Inc., Pleasanton, CA (2017)
 Q-Chem 5.0.0 for Intel X86 EM64T Linux

User input:
--------------------------------------------------------------
$molecule
0  1
C    0.304  -2.425   0.241
C   -0.187  -2.670   1.539
C    0.664  -1.037  -0.131
C   -0.223  -1.586   2.547
O    1.892  -1.027  -0.706
O   -0.050  -0.071   0.073
O    1.036  -1.102   2.698
O   -1.208  -1.281   3.197
C    1.131  -0.051   3.659
C    2.346   0.277  -1.069
C    0.337  -3.468  -0.713
C   -0.078  -4.750  -0.324
C   -0.556  -4.992   0.965
C   -0.619  -3.961   1.912
H    0.496   0.792   3.371
H    1.683   0.717  -1.820
H   -0.885  -5.997   1.223
H    0.862  -0.417   4.655
H    2.169   0.291   3.685
H    3.345   0.180  -1.503
H    2.413   0.921  -0.186
H   -0.050  -5.576  -1.034
C   -1.153  -4.262   3.286
C    0.800  -3.263  -2.130
H    0.377  -2.346  -2.553
H    0.472  -4.085  -2.776
H    1.893  -3.221  -2.170
H   -2.134  -3.796   3.422
H   -0.464  -3.904   4.057
H   -1.273  -5.340   3.441
$end

$opt
CONSTRAINT
tors    2    1    3    5    135.2
tors    1    2    4    7    -57.3
ENDCONSTRAINT
$end

$rem
JOBTYPE                   OPT
METHOD                    B3LYP
DFT_D                     D3_OP
BASIS                     STO-3G
GEOM_OPT_MAX_CYCLES       500
SYMMETRY                  False
THRESH                    12
SCF_CONVERGENCE           8
MAX_SUB_FILE_NUM          128
MEM_STATIC                400
MEM_TOTAL                 4000
$end

--------------------------------------------------------------

   15    -756.7774928998      6.43E-09 Convergence criterion met
 Total energy in the final basis set = -756.7774928998
   14    -756.8050535725      5.38E-09 Convergence criterion met
 Total energy in the final basis set = -756.8050535725
   14    -756.8077145134      3.15E-09 Convergence criterion met
 Total energy in the final basis set = -756.8077145134
   12    -756.8080222143      8.81E-09 Convergence criterion met
 Total energy in the final basis set = -756.8080222143
   11    -756.8080499171      4.20E-09 Convergence criterion met
 Total energy in the final basis set = -756.8080499171
   10    -756.8080662073      1.00E-08 Convergence criterion met
 Total energy in the final basis set = -756.8080662073
   11    -756.8080815991      1.53E-09 Convergence criterion met
 Total energy in the final basis set = -756.8080815991
   11    -756.8081165974      2.78E-09 Convergence criterion met
 **  OPTIMIZATION CONVERGED  **
 Total job time:  139.61s(wall), 3184.52s(cpu)
        *  Thank you very much for using Q-Chem.  Have a nice day.  *

User input: 2 of 3

nid03065 10.128.12
Q-Chem Developer Version! Running on 10.128.12.*
                  Welcome to Q-Chem
     A Quantum Leap Into The Future Of Chemistry

 Q-Chem 5.0, Q-Chem, Inc., Pleasanton, CA (2017)

 Yihan Shao,  Zhengting Gan,  E. Epifanovsky,  A. T. B. Gilbert,  M. Wormit,
 J. Kussmann,  A. W. Lange,  A. Behn,  Jia Deng,  Xintian Feng,  D. Ghosh,
 M. Goldey,  P. R. Horn,  L. D. Jacobson,  I. Kaliman,  T. Kus,  A. Landau,
 Jie Liu,  E. I. Proynov,  R. M. Richard,  R. P. Steele,  E. J. Sundstrom,
 H. L. Woodcock III,  P. M. Zimmerman,  D. Zuev,  B. Albrecht,  E. Alguire,
 S. A. Baeppler,  Z. Benda,  Y. A. Bernard,  E. J. Berquist,  K. B. Bravaya,
 D. Casanova,  Chun-Min Chang,  Yunqing Chen,  A. Chien,  K. D. Closser,
 M. P. Coons,  S. Dasgupta,  M. Diedenhofen,  Hainam Do,  R. G. Edgar,
 Po-Tung Fang,  S. Fatehi,  Qingguo Feng,  Qinghui Ge,  A. Ghysels,
 J. Gomes,  J. Gonthier,  A. Gunina,  M. W. D. Hanson-Heine,
 P. H. P. Harbach,  A. W. Hauser,  J. E. Herr,  E. G. Hohenstein,
 Z. C. Holden,  Kerwin Hui,  T.-C. Jagau,  Hyunjun Ji,  B. Kaduk,
 K. Khistyaev,  Jaehoon Kim,  P. Klunzinger,  K. Koh,  D. Kosenkov,
 T. Kowalczyk,  C. M. Krauter,  A. Kunitsa,  Ka Un Lao,  A. Laurent,
 K. V. Lawler,  Joonho Lee,  D. Lefrancois,  S. Lehtola,  D. S. Levine,
 Yi-Pei Li,  You-Sheng Lin,  Fenglai Liu,  E. Livshits,  A. Luenser,
 P. Manohar,  E. Mansoor,  S. F. Manzer,  Shan-Ping Mao,  Yuezhi Mao,
 N. Mardirossian,  A. V. Marenich,  L. A. Martinez-Martinez,  S. A. Maurer,
 N. J. Mayhall,  S. C. McKenzie,  J.-M. Mewes,  A. F. Morrison,  K. Nanda,
 T. S. Nguyen-Beck,  R. Olivares-Amaya,  J. A. Parkhill,  T. M. Perrine,
 F. Plasser,  S. Prager,  A. Prociuk,  D. R. Rehn,  F. Rob,  M. Schneider,
 N. Sergueev,  S. M. Sharada,  S. Sharma,  D. W. Small,  T. Stauch,
 T. Stein,  Yu-Chuan Su,  A. J. W. Thom,  T. Tsuchimochi,  L. Vogt,
 O. Vydrov,  M. A. Watson,  J. Wenzel,  M. de Wergifosse,  T. A. Wesolowski,
 A. White,  J. Witte,  A. Yamada,  Jun Yang,  K. Yao,  S. Yeganeh,
 S. R. Yost,  Zhi-Qiang You,  A. Zech,  Igor Ying Zhang,  Xing Zhang,
 Yan Zhao,  Ying Zhu,  B. R. Brooks,  G. K. L. Chan,  C. J. Cramer,
 M. S. Gordon,  W. J. Hehre,  A. Klamt,  M. W. Schmidt,  C. D. Sherrill,
 D. G. Truhlar,  A. Aspuru-Guzik,  R. Baer,  A. T. Bell,  N. A. Besley,
 Jeng-Da Chai,  A. Dreuw,  B. D. Dunietz,  T. R. Furlani,  Chao-Ping Hsu,
 Yousung Jung,  Jing Kong,  D. S. Lambrecht,  WanZhen Liang,  C. Ochsenfeld,
 V. A. Rassolov,  L. V. Slipchenko,  J. E. Subotnik,  T. Van Voorhis,
 J. M. Herbert,  A. I. Krylov,  P. M. W. Gill,  M. Head-Gordon

 Contributors to earlier versions of Q-Chem not listed above:
 R. D. Adamson,  B. Austin,  J. Baker,  G. J. O. Beran,  K. Brandhorst,
 S. T. Brown,  E. F. C. Byrd,  A. K. Chakraborty,  C.-L. Cheng,
 Siu Hung Chien,  D. M. Chipman,  D. L. Crittenden,  H. Dachsel,
 R. A. DiStasio Jr.,  R. J. Doerksen,  A. D. Dutoi,  L. Fusti-Molnar,
 W. A. Goddard III,  A. Golubeva-Zadorozhnaya,  S. R. Gwaltney,  G. Hawkins,
 A. Heyden,  S. Hirata,  G. Kedziora,  F. J. Keil,  C. Kelley,  Jihan Kim,
 R. A. King,  R. Z. Khaliullin,  P. P. Korambath,  W. Kurlancheek,
 A. M. Lee,  M. S. Lee,  S. V. Levchenko,  Ching Yeh Lin,  D. Liotard,
 R. C. Lochan,  I. Lotan,  P. E. Maslen,  N. Nair,  D. P. O'Neill,
 D. Neuhauser,  E. Neuscamman,  C. M. Oana,  R. Olson,  B. Peters,
 R. Peverati,  P. A. Pieniazek,  Y. M. Rhee,  J. Ritchie,  M. A. Rohrdanz,
 E. Rosta,  N. J. Russ,  H. F. Schaefer III,  N. E. Schultz,  N. Shenvi,
 A. C. Simmonett,  A. Sodt,  D. Stuck,  K. S. Thanthiriwatte,  V. Vanovschi,
 Tao Wang,  A. Warshel,  C. F. Williams,  Q. Wu,  X. Xu,  W. Zhang

 Please cite Q-Chem as follows:
 Y. Shao et al., Mol. Phys. 113, 184-215 (2015)
 DOI: 10.1080/00268976.2014.952696

 Q-Chem 5.0.0 for Intel X86 EM64T Linux

 Parts of Q-Chem use Armadillo 5.200.1 (Boston Tea Smuggler).
 http://arma.sourceforge.net/

 Q-Chem begins on Wed Oct  4 18:28:45 2017

Host: nid03065
0

     Scratch files written to /global/cscratch1/sd/junteng/scratch/18/opt_11n11oo.save//
The previous job contains 0 fragments, simply inherited here

Checking the input file for inconsistencies... 	...done.

--------------------------------------------------------------
User input:
--------------------------------------------------------------

$molecule
   read
$end

$rem
JOBTYPE                   OPT
METHOD                    B3LYP
DFT_D                     D3_OP
BASIS                     6-311++G(d,p)
GEOM_OPT_MAX_CYCLES       500
GEOM_OPT_TOL_GRADIENT     1
GEOM_OPT_TOL_DISPLACEMENT 1
GEOM_OPT_TOL_ENERGY       1
SYMMETRY                  False
THRESH                    12
SCF_CONVERGENCE           8
MAX_SUB_FILE_NUM          128
MEM_STATIC                400
MEM_TOTAL                 4000
$end

--------------------------------------------------------------

    8    -766.8750704430      4.99E-09 Convergence criterion met
 Total energy in the final basis set = -766.8750704430
    7    -766.8750706591      4.51E-09 Convergence criterion met
 Total energy in the final basis set = -766.8750706591
    5    -766.8750706322      9.93E-09 Convergence criterion met
 Total energy in the final basis set = -766.8750706322
    5    -766.8750706542      5.41E-09 Convergence criterion met
 Total energy in the final basis set = -766.8750706542
    4    -766.8750706430      8.55E-09 Convergence criterion met
 Total energy in the final basis set = -766.8750706430
    4    -766.8750706475      5.77E-09 Convergence criterion met
 Total energy in the final basis set = -766.8750706475
 Final energy is   -766.875070647524
        *  Thank you very much for using Q-Chem.  Have a nice day.  *
 Q-Chem 5.0, Q-Chem, Inc., Pleasanton, CA (2017)
 Q-Chem 5.0.0 for Intel X86 EM64T Linux

             Standard Nuclear Orientation (Angstroms)
    I     Atom           X                Y                Z
 ----------------------------------------------------------------
    1      C       0.1690023716    -0.7398097005    -0.0937449001
    2      C      -0.9824419893     0.0661164591    -0.0319872146
    3      C       1.4976456406    -0.1021002463    -0.3761158491
    4      C      -0.8653352363     1.5534388536    -0.1468765337
    5      O       2.3973865832    -0.3706686209     0.5873803681
    6      O       1.7446950363     0.5494767892    -1.3624599400
    7      O       0.1320586881     2.0309282339     0.6276551997
    8      O      -1.5773427827     2.2544197053    -0.8239322530
    9      C       0.4334900535     3.4292884002     0.4722752417
   10      C       3.7123488094     0.1799810991     0.3856206830
   11      C       0.0767563175    -2.1389435677    -0.0137532895
   12      C      -1.1931464888    -2.6949062652     0.1485875299
   13      C      -2.3293556395    -1.8999546221     0.2258894788
   14      C      -2.2569444195    -0.5094852138     0.1268001165
   15      H       0.7732277278     3.6237936703    -0.5462810011
   16      H       4.1514414534    -0.2071929445    -0.5351574742
   17      H      -3.2989434872    -2.3682874510     0.3585308703
   18      H      -0.4463719753     4.0374670078     0.6851806505
   19      H       1.2260611994     3.6354445263     1.1881768542
   20      H       4.2928384350    -0.1320071402     1.2507970996
   21      H       3.6604781198     1.2680896765     0.3282532181
   22      H      -1.2934816720    -3.7736517103     0.2081104493
   23      C      -3.5250940862     0.3073316304     0.2000085574
   24      C       1.2845239489    -3.0397658221    -0.1234471861
   25      H       1.9171089286    -2.7654369617    -0.9717491513
   26      H       0.9739364827    -4.0770453572    -0.2608709798
   27      H       1.9033892523    -2.9823147469     0.7751387116
   28      H      -3.7581942180     0.7571679962    -0.7671878785
   29      H      -3.4424197279     1.1283855387     0.9161086804
   30      H      -4.3621464091    -0.3248069925     0.5022631484
 ----------------------------------------------------------------

   15    -766.8749758119      8.84E-09 Convergence criterion met
 Total energy in the final basis set = -766.8749758119

                    Orbital Energies (a.u.)
 --------------------------------------------------------------

 Alpha MOs
 -- Occupied --
-19.178 -19.173 -19.120 -19.116 -10.312 -10.308 -10.233 -10.227
-10.205 -10.203 -10.201 -10.200 -10.187 -10.185 -10.176 -10.168
 -1.121  -1.114  -1.032  -1.028  -0.885  -0.808  -0.792  -0.748
 -0.732  -0.726  -0.674  -0.648  -0.620  -0.576  -0.568  -0.531
 -0.519  -0.513  -0.489  -0.488  -0.480  -0.476  -0.469  -0.441
 -0.436  -0.428  -0.423  -0.415  -0.412  -0.406  -0.396  -0.388
 -0.381  -0.372  -0.360  -0.358  -0.357  -0.320  -0.312  -0.298
 -0.287  -0.265  -0.253

          Ground-State Mulliken Net Atomic Charges

     Atom                 Charge (a.u.)
  ----------------------------------------
      1 C                     0.452687
      2 C                     0.546599
      3 C                    -0.908301
      4 C                    -0.456824
      5 O                     0.039557
      6 O                    -0.131034
      7 O                    -0.005298
      8 O                    -0.194829
      9 C                    -0.223585
     10 C                    -0.212779
     11 C                     0.613665
     12 C                    -0.552186
     13 C                    -0.659648
     14 C                     0.513273
     15 H                     0.194778
     16 H                     0.185400
     17 H                     0.125784
     18 H                     0.174504
     19 H                     0.150587
     20 H                     0.158646
     21 H                     0.158021
     22 H                     0.131506
     23 C                    -0.564205
     24 C                    -0.574315
     25 H                     0.175409
     26 H                     0.151223
     27 H                     0.192816
     28 H                     0.204019
     29 H                     0.174935
     30 H                     0.139593
  ----------------------------------------
  Sum of atomic charges =     0.000000

                    Cartesian Multipole Moments
 -----------------------------------------------------------------
    Charge (ESU x 10^10)
                 0.0000
    Dipole Moment (Debye)
         X       1.5457      Y      -1.4827      Z       2.4776
       Tot       3.2751
    Quadrupole Moments (Debye-Ang)
        XX     -82.3261     XY       5.3540     YY     -84.4851
        XZ       0.2015     YZ       5.7923     ZZ    -102.0795

 Frequency:        21.80                  53.48                  69.29
 Force Cnst:      0.0015                 0.0069                 0.0114
 Red. Mass:       5.3842                 4.0878                 4.0352
 IR Intens:        0.391                  0.058                  3.368
 Frequency:        79.23                 110.57                 117.63
 Force Cnst:      0.0106                 0.0104                 0.0192
 Red. Mass:       2.8765                 1.4502                 2.3562
 IR Intens:        3.301                  0.523                  0.711
 Frequency:       127.29                 136.88                 141.05
 Force Cnst:      0.0256                 0.0161                 0.0132
 Red. Mass:       2.6772                 1.4557                 1.1251
 IR Intens:        4.999                  0.347                  0.095
 Frequency:       147.57                 153.53                 219.80
 Force Cnst:      0.0176                 0.0194                 0.1449
 Red. Mass:       1.3731                 1.3966                 5.0888
 IR Intens:        0.120                  0.713                  0.258
 Frequency:       240.88                 250.34                 291.34
 Force Cnst:      0.2006                 0.1673                 0.1567
 Red. Mass:       5.8685                 4.5318                 3.1337
 IR Intens:        0.785                  3.748                  1.219
 Frequency:       303.84                 314.57                 322.83
 Force Cnst:      0.2618                 0.2308                 0.2251
 Red. Mass:       4.8137                 3.9592                 3.6652
 IR Intens:        4.663                 10.872                  7.730
 Frequency:       368.36                 401.17                 424.04
 Force Cnst:      0.4579                 0.3690                 0.5297
 Red. Mass:       5.7281                 3.8919                 4.9999
 IR Intens:        5.234                  6.630                  1.151
 Frequency:       486.70                 494.91                 555.78
 Force Cnst:      0.5983                 0.5391                 0.7882
 Red. Mass:       4.2866                 3.7357                 4.3310
 IR Intens:        1.304                  9.941                  1.877
 Frequency:       616.57                 712.62                 725.49
 Force Cnst:      1.0652                 1.8470                 1.9466
 Red. Mass:       4.7557                 6.1731                 6.2772
 IR Intens:        7.150                  1.278                  0.335
 Frequency:       735.88                 798.94                 805.85
 Force Cnst:      1.9902                 2.1431                 2.3438
 Red. Mass:       6.2377                 5.6987                 6.1259
 IR Intens:       23.602                  7.013                 10.224
 Frequency:       814.59                 831.00                 890.01
 Force Cnst:      2.6775                 0.5268                 2.6343
 Red. Mass:       6.8486                 1.2948                 5.6444
 IR Intens:        9.832                 18.886                  4.961
 Frequency:       922.18                 969.31                 988.63
 Force Cnst:      2.1837                 0.7386                 1.5074
 Red. Mass:       4.3583                 1.3342                 2.6177
 IR Intens:        9.757                  0.146                  5.614
 Frequency:       997.44                1046.98                1055.81
 Force Cnst:      2.8239                 1.0042                 1.4930
 Red. Mass:       4.8176                 1.5549                 2.2731
 IR Intens:       12.237                  4.137                 56.834
 Frequency:      1059.55                1062.97                1134.02
 Force Cnst:      1.0852                 1.0151                 4.0160
 Red. Mass:       1.6406                 1.5248                 5.3003
 IR Intens:        7.924                  3.766                 88.976
 Frequency:      1169.71                1170.96                1184.70
 Force Cnst:      1.0363                 1.0404                 1.2854
 Red. Mass:       1.2855                 1.2878                 1.5545
 IR Intens:        0.411                  2.093                 96.353
 Frequency:      1202.57                1210.58                1222.53
 Force Cnst:      1.5353                 1.3699                 2.8271
 Red. Mass:       1.8018                 1.5865                 3.2105
 IR Intens:       18.052                 12.538                292.269
 Frequency:      1275.24                1287.57                1293.07
 Force Cnst:      1.8497                 5.9516                 3.9954
 Red. Mass:       1.9305                 6.0932                 4.0557
 IR Intens:       16.207                175.512                209.420
 Frequency:      1315.86                1418.99                1421.02
 Force Cnst:      6.4504                 1.4704                 1.4791
 Red. Mass:       6.3229                 1.2395                 1.2432
 IR Intens:       47.362                  1.344                  4.853
 Frequency:      1432.77                1465.42                1468.51
 Force Cnst:      3.4841                 1.5196                 1.5969
 Red. Mass:       2.8806                 1.2010                 1.2568
 IR Intens:       52.132                 10.846                 47.569
 Frequency:      1481.19                1482.28                1484.13
 Force Cnst:      1.4170                 1.4010                 1.3592
 Red. Mass:       1.0962                 1.0823                 1.0474
 IR Intens:        3.706                  3.790                 17.321
 Frequency:      1486.74                1490.88                1495.84
 Force Cnst:      1.4136                 1.4390                 1.3896
 Red. Mass:       1.0855                 1.0988                 1.0540
 IR Intens:        0.132                 10.200                 15.680
 Frequency:      1496.94                1501.62                1503.43
 Force Cnst:      1.3924                 1.6508                 2.6930
 Red. Mass:       1.0546                 1.2426                 2.0222
 IR Intens:        3.067                  6.836                 19.856
 Frequency:      1608.78                1633.26                1771.88
 Force Cnst:      8.1749                11.1165                21.8574
 Red. Mass:       5.3609                 7.0730                11.8162
 IR Intens:       12.893                  2.405                122.382
 Frequency:      1778.85                3035.96                3041.00
 Force Cnst:     21.8150                 5.6259                 5.6424
 Red. Mass:      11.7011                 1.0360                 1.0356
 IR Intens:      395.592                 24.774                 22.937
 Frequency:      3050.36                3050.66                3091.94
 Force Cnst:      5.6430                 5.6447                 6.1971
 Red. Mass:       1.0293                 1.0294                 1.1002
 IR Intens:       15.429                 52.697                 11.238
 Frequency:      3099.32                3108.35                3111.29
 Force Cnst:      6.2263                 6.2748                 6.2904
 Red. Mass:       1.1001                 1.1023                 1.1029
 IR Intens:       11.530                 17.197                 14.063
 Frequency:      3122.78                3126.00                3156.46
 Force Cnst:      6.3595                 6.3748                 6.4951
 Red. Mass:       1.1068                 1.1072                 1.1065
 IR Intens:       17.871                 13.651                 13.152
 Frequency:      3158.25                3160.81                3177.87
 Force Cnst:      6.5017                 6.3992                 6.5128
 Red. Mass:       1.1063                 1.0871                 1.0946
 IR Intens:       12.606                  8.189                 20.370

 STANDARD THERMODYNAMIC QUANTITIES AT   298.15 K  AND     1.00 ATM

   This Molecule has  0 Imaginary Frequencies
   Zero point vibrational energy:      150.458 kcal/mol

   Atom    1 Element C  Has Mass   12.00000
   Atom    2 Element C  Has Mass   12.00000
   Atom    3 Element C  Has Mass   12.00000
   Atom    4 Element C  Has Mass   12.00000
   Atom    5 Element O  Has Mass   15.99491
   Atom    6 Element O  Has Mass   15.99491
   Atom    7 Element O  Has Mass   15.99491
   Atom    8 Element O  Has Mass   15.99491
   Atom    9 Element C  Has Mass   12.00000
   Atom   10 Element C  Has Mass   12.00000
   Atom   11 Element C  Has Mass   12.00000
   Atom   12 Element C  Has Mass   12.00000
   Atom   13 Element C  Has Mass   12.00000
   Atom   14 Element C  Has Mass   12.00000
   Atom   15 Element H  Has Mass    1.00783
   Atom   16 Element H  Has Mass    1.00783
   Atom   17 Element H  Has Mass    1.00783
   Atom   18 Element H  Has Mass    1.00783
   Atom   19 Element H  Has Mass    1.00783
   Atom   20 Element H  Has Mass    1.00783
   Atom   21 Element H  Has Mass    1.00783
   Atom   22 Element H  Has Mass    1.00783
   Atom   23 Element C  Has Mass   12.00000
   Atom   24 Element C  Has Mass   12.00000
   Atom   25 Element H  Has Mass    1.00783
   Atom   26 Element H  Has Mass    1.00783
   Atom   27 Element H  Has Mass    1.00783
   Atom   28 Element H  Has Mass    1.00783
   Atom   29 Element H  Has Mass    1.00783
   Atom   30 Element H  Has Mass    1.00783
   Molecular Mass:   222.089260 amu
   Principal axes and moments of inertia in amu*Bohr^2:
                             1           2           3
    Eigenvalues --     2857.89709  3195.19305  5565.89787
          X               0.99994     0.01114     0.00074
          Y              -0.01115     0.99990     0.00826
          Z              -0.00065    -0.00827     0.99997
   Rotational Symmetry Number is   1
   The Molecule is an Asymmetric Top
   Translational Enthalpy:        0.889 kcal/mol
   Rotational Enthalpy:           0.889 kcal/mol
   Vibrational Enthalpy:        159.308 kcal/mol
   gas constant (RT):             0.592 kcal/mol
   Translational Entropy:        42.096  cal/mol.K
   Rotational Entropy:           32.297  cal/mol.K
   Vibrational Entropy:          58.929  cal/mol.K

   Total Enthalpy:              161.678 kcal/mol
   Total Entropy:               133.322  cal/mol.K

 Total job time:  8381.67s(wall), 47268.50s(cpu)
        *  Thank you very much for using Q-Chem.  Have a nice day.  *
