 Q-Chem 5.0, Q-Chem, Inc., Pleasanton, CA (2017)
 Q-Chem 5.0.0 for Intel X86 EM64T Linux

User input:
--------------------------------------------------------------
$molecule
0  1
C    0.579  -1.978   0.499
C   -0.345  -1.987   1.740
C    0.941  -0.610  -0.048
C   -0.562  -0.630   2.386
O    2.215  -0.645  -0.542
O    0.210   0.366  -0.087
O    0.648  -0.161   2.826
O   -1.631  -0.088   2.617
C    0.572   1.116   3.461
C    2.652   0.593  -1.106
C   -0.242  -2.782  -0.524
C   -0.292  -4.259  -0.098
C   -1.265  -4.223   1.081
C   -1.594  -2.718   1.188
O   -1.591  -2.362  -0.216
H    1.516  -2.494   0.747
H    0.090  -2.606   2.538
H   -0.024   1.052   4.377
H    2.622   1.389  -0.356
H   -0.708  -4.895  -0.888
H    0.690  -4.657   0.174
H   -2.154  -4.811   0.825
H   -0.840  -4.639   1.999
H    1.587   1.422   3.729
H    0.156   1.863   2.777
H    2.039   0.852  -1.975
H    3.687   0.467  -1.436
C   -2.945  -2.478   1.828
H   -3.699  -3.155   1.411
H   -2.911  -2.635   2.910
H   -3.320  -1.473   1.614
C    0.085  -2.603  -1.994
H   -0.579  -3.214  -2.616
H   -0.074  -1.570  -2.320
H    1.119  -2.890  -2.210
$end

$opt
CONSTRAINT
tors    2    1    3    5    147.3
tors    1    2    4    7    -64.6
ENDCONSTRAINT
$end

$rem
JOBTYPE                   OPT
METHOD                    B3LYP
DFT_D                     D3_OP
BASIS                     6-311++G(d,p)
GEOM_OPT_MAX_CYCLES       500
GEOM_OPT_TOL_DISPLACEMENT 1
SYMMETRY                  False
THRESH                    12
SCF_CONVERGENCE           8
MAX_SUB_FILE_NUM          128
MEM_STATIC                400
MEM_TOTAL                 4000
$end

--------------------------------------------------------------

   15    -844.5212060254      3.96E-09 Convergence criterion met
 Total energy in the final basis set = -844.5212060254
   12    -844.5276407107      7.19E-09 Convergence criterion met
 Total energy in the final basis set = -844.5276407107
   12    -844.5285315370      3.28E-09 Convergence criterion met
 Total energy in the final basis set = -844.5285315370
   11    -844.5287949653      7.86E-09 Convergence criterion met
 Total energy in the final basis set = -844.5287949653
   11    -844.5288771654      4.77E-09 Convergence criterion met
 Total energy in the final basis set = -844.5288771654
   11    -844.5289296047      5.84E-09 Convergence criterion met
 Total energy in the final basis set = -844.5289296047
   11    -844.5289713378      5.32E-09 Convergence criterion met
 Total energy in the final basis set = -844.5289713378
   11    -844.5290099874      8.13E-09 Convergence criterion met
 **  OPTIMIZATION CONVERGED  **
 Total job time:  1911.75s(wall), 39075.24s(cpu)
        *  Thank you very much for using Q-Chem.  Have a nice day.  *

User input: 2 of 2

nid03725 10.128.14
Q-Chem Developer Version! Running on 10.128.14.*
                  Welcome to Q-Chem
     A Quantum Leap Into The Future Of Chemistry

 Q-Chem 5.0, Q-Chem, Inc., Pleasanton, CA (2017)

 Yihan Shao,  Zhengting Gan,  E. Epifanovsky,  A. T. B. Gilbert,  M. Wormit,
 J. Kussmann,  A. W. Lange,  A. Behn,  Jia Deng,  Xintian Feng,  D. Ghosh,
 M. Goldey,  P. R. Horn,  L. D. Jacobson,  I. Kaliman,  T. Kus,  A. Landau,
 Jie Liu,  E. I. Proynov,  R. M. Richard,  R. P. Steele,  E. J. Sundstrom,
 H. L. Woodcock III,  P. M. Zimmerman,  D. Zuev,  B. Albrecht,  E. Alguire,
 S. A. Baeppler,  Z. Benda,  Y. A. Bernard,  E. J. Berquist,  K. B. Bravaya,
 D. Casanova,  Chun-Min Chang,  Yunqing Chen,  A. Chien,  K. D. Closser,
 M. P. Coons,  S. Dasgupta,  M. Diedenhofen,  Hainam Do,  R. G. Edgar,
 Po-Tung Fang,  S. Fatehi,  Qingguo Feng,  Qinghui Ge,  A. Ghysels,
 J. Gomes,  J. Gonthier,  A. Gunina,  M. W. D. Hanson-Heine,
 P. H. P. Harbach,  A. W. Hauser,  J. E. Herr,  E. G. Hohenstein,
 Z. C. Holden,  Kerwin Hui,  T.-C. Jagau,  Hyunjun Ji,  B. Kaduk,
 K. Khistyaev,  Jaehoon Kim,  P. Klunzinger,  K. Koh,  D. Kosenkov,
 T. Kowalczyk,  C. M. Krauter,  A. Kunitsa,  Ka Un Lao,  A. Laurent,
 K. V. Lawler,  Joonho Lee,  D. Lefrancois,  S. Lehtola,  D. S. Levine,
 Yi-Pei Li,  You-Sheng Lin,  Fenglai Liu,  E. Livshits,  A. Luenser,
 P. Manohar,  E. Mansoor,  S. F. Manzer,  Shan-Ping Mao,  Yuezhi Mao,
 N. Mardirossian,  A. V. Marenich,  L. A. Martinez-Martinez,  S. A. Maurer,
 N. J. Mayhall,  S. C. McKenzie,  J.-M. Mewes,  A. F. Morrison,  K. Nanda,
 T. S. Nguyen-Beck,  R. Olivares-Amaya,  J. A. Parkhill,  T. M. Perrine,
 F. Plasser,  S. Prager,  A. Prociuk,  D. R. Rehn,  F. Rob,  M. Schneider,
 N. Sergueev,  S. M. Sharada,  S. Sharma,  D. W. Small,  T. Stauch,
 T. Stein,  Yu-Chuan Su,  A. J. W. Thom,  T. Tsuchimochi,  L. Vogt,
 O. Vydrov,  M. A. Watson,  J. Wenzel,  M. de Wergifosse,  T. A. Wesolowski,
 A. White,  J. Witte,  A. Yamada,  Jun Yang,  K. Yao,  S. Yeganeh,
 S. R. Yost,  Zhi-Qiang You,  A. Zech,  Igor Ying Zhang,  Xing Zhang,
 Yan Zhao,  Ying Zhu,  B. R. Brooks,  G. K. L. Chan,  C. J. Cramer,
 M. S. Gordon,  W. J. Hehre,  A. Klamt,  M. W. Schmidt,  C. D. Sherrill,
 D. G. Truhlar,  A. Aspuru-Guzik,  R. Baer,  A. T. Bell,  N. A. Besley,
 Jeng-Da Chai,  A. Dreuw,  B. D. Dunietz,  T. R. Furlani,  Chao-Ping Hsu,
 Yousung Jung,  Jing Kong,  D. S. Lambrecht,  WanZhen Liang,  C. Ochsenfeld,
 V. A. Rassolov,  L. V. Slipchenko,  J. E. Subotnik,  T. Van Voorhis,
 J. M. Herbert,  A. I. Krylov,  P. M. W. Gill,  M. Head-Gordon

 Contributors to earlier versions of Q-Chem not listed above:
 R. D. Adamson,  B. Austin,  J. Baker,  G. J. O. Beran,  K. Brandhorst,
 S. T. Brown,  E. F. C. Byrd,  A. K. Chakraborty,  C.-L. Cheng,
 Siu Hung Chien,  D. M. Chipman,  D. L. Crittenden,  H. Dachsel,
 R. A. DiStasio Jr.,  R. J. Doerksen,  A. D. Dutoi,  L. Fusti-Molnar,
 W. A. Goddard III,  A. Golubeva-Zadorozhnaya,  S. R. Gwaltney,  G. Hawkins,
 A. Heyden,  S. Hirata,  G. Kedziora,  F. J. Keil,  C. Kelley,  Jihan Kim,
 R. A. King,  R. Z. Khaliullin,  P. P. Korambath,  W. Kurlancheek,
 A. M. Lee,  M. S. Lee,  S. V. Levchenko,  Ching Yeh Lin,  D. Liotard,
 R. C. Lochan,  I. Lotan,  P. E. Maslen,  N. Nair,  D. P. O'Neill,
 D. Neuhauser,  E. Neuscamman,  C. M. Oana,  R. Olson,  B. Peters,
 R. Peverati,  P. A. Pieniazek,  Y. M. Rhee,  J. Ritchie,  M. A. Rohrdanz,
 E. Rosta,  N. J. Russ,  H. F. Schaefer III,  N. E. Schultz,  N. Shenvi,
 A. C. Simmonett,  A. Sodt,  D. Stuck,  K. S. Thanthiriwatte,  V. Vanovschi,
 Tao Wang,  A. Warshel,  C. F. Williams,  Q. Wu,  X. Xu,  W. Zhang

 Please cite Q-Chem as follows:
 Y. Shao et al., Mol. Phys. 113, 184-215 (2015)
 DOI: 10.1080/00268976.2014.952696

 Q-Chem 5.0.0 for Intel X86 EM64T Linux

 Parts of Q-Chem use Armadillo 5.200.1 (Boston Tea Smuggler).
 http://arma.sourceforge.net/

 Q-Chem begins on Tue Oct  3 18:41:28 2017

Host: nid03725
0

     Scratch files written to /global/cscratch1/sd/junteng/scratch/15/opt_1111.save//
The previous job contains 0 fragments, simply inherited here

Checking the input file for inconsistencies... 	...done.

--------------------------------------------------------------
User input:
--------------------------------------------------------------

$molecule
   read
$end

$rem
JOBTYPE                   OPT
METHOD                    B3LYP
DFT_D                     D3_OP
BASIS                     6-311++G(d,p)
GEOM_OPT_MAX_CYCLES       500
GEOM_OPT_TOL_DISPLACEMENT 1
SYMMETRY                  False
THRESH                    12
SCF_CONVERGENCE           8
MAX_SUB_FILE_NUM          128
MEM_STATIC                400
MEM_TOTAL                 4000
$end
--------------------------------------------------------------

   12    -844.5291446751      3.06E-09 Convergence criterion met
 Total energy in the final basis set = -844.5291446751
   12    -844.5292123890      3.17E-09 Convergence criterion met
 Total energy in the final basis set = -844.5292123890
   11    -844.5292088141      6.14E-09 Convergence criterion met
 Total energy in the final basis set = -844.5292088141
   11    -844.5292162925      7.22E-09 Convergence criterion met
 Total energy in the final basis set = -844.5292162925
   11    -844.5292226557      4.84E-09 Convergence criterion met
 Total energy in the final basis set = -844.5292226557
   11    -844.5292262686      2.58E-09 Convergence criterion met
 Total energy in the final basis set = -844.5292262686

             Standard Nuclear Orientation (Angstroms)
    I     Atom           X                Y                Z
 ----------------------------------------------------------------
    1      C       0.0276216622     0.6618277528     0.6492555515
    2      C       0.5245887532    -0.8244512111     0.6461774493
    3      C      -1.2659744861     0.9132273347    -0.0919879023
    4      C      -0.4853951934    -1.8108121557     0.0768232933
    5      O      -1.9920978077     1.8617522837     0.5432166600
    6      O      -1.6080722672     0.4031555600    -1.1295269068
    7      O      -1.6077573654    -1.7684654796     0.8381957572
    8      O      -0.3469010649    -2.5663132519    -0.8474664582
    9      C      -2.7143182433    -2.5576428337     0.3650666844
   10      C      -3.2180464341     2.2523584801    -0.1022529808
   11      C       1.2298986593     1.3825492960    -0.0739446905
   12      C       2.3991567430     1.4430235234     0.9417084438
   13      C       2.8752693868    -0.0316659261     0.9510737105
   14      C       1.9081362806    -0.6963235710    -0.0713797296
   15      O       1.6704549477     0.3823600127    -0.9980758099
   16      H      -0.0949285029     1.0433428690     1.6611970393
   17      H       0.6676702781    -1.1453972594     1.6811821193
   18      H      -2.4469940109    -3.6147065403     0.3283226054
   19      H      -3.8729766952     1.3894945538    -0.2312329018
   20      H       3.1764917654     2.1105036647     0.5643990727
   21      H       2.0850583086     1.8123072154     1.9198490915
   22      H       3.9007390742    -0.1189858722     0.5882843988
   23      H       2.8290732162    -0.5021982163     1.9354974687
   24      H      -3.5166608471    -2.3910409305     1.0808574892
   25      H      -3.0094555321    -2.2226733816    -0.6305909826
   26      H      -3.0115892084     2.6940051881    -1.0785590081
   27      H      -3.6743221044     2.9846435043     0.5601850268
   28      C       2.4845357509    -1.8998125489    -0.7856512343
   29      H       3.4774811065    -1.6493161583    -1.1665452678
   30      H       2.5813393382    -2.7414240797    -0.0944603627
   31      H       1.8457333308    -2.2099031442    -1.6082197457
   32      C       0.9123083972     2.6761995645    -0.7911225393
   33      H       1.8166599356     3.0680599093    -1.2609800414
   34      H       0.1642683074     2.5143609571    -1.5692527411
   35      H       0.5337043524     3.4219194000    -0.0876399046
 ----------------------------------------------------------------

   10    -844.5292264123      5.79E-09 Convergence criterion met
 Total energy in the final basis set = -844.5292264123
 Final energy is   -844.529226412294
 **  OPTIMIZATION CONVERGED  **

                    Orbital Energies (a.u.)
 --------------------------------------------------------------

 Alpha MOs
 -- Occupied --
-19.176 -19.166 -19.125 -19.117 -19.111 -10.306 -10.303 -10.243
-10.236 -10.232 -10.223 -10.203 -10.203 -10.177 -10.175 -10.168
-10.154  -1.117  -1.108  -1.059  -1.029  -1.023  -0.830  -0.803
 -0.782  -0.749  -0.725  -0.720  -0.670  -0.642  -0.601  -0.581
 -0.563  -0.553  -0.526  -0.508  -0.501  -0.491  -0.488  -0.480
 -0.473  -0.470  -0.456  -0.439  -0.433  -0.422  -0.419  -0.411
 -0.405  -0.396  -0.392  -0.373  -0.369  -0.365  -0.358  -0.355
 -0.352  -0.346  -0.331  -0.323  -0.318  -0.308  -0.289  -0.274
 -0.269

          Ground-State Mulliken Net Atomic Charges

     Atom                 Charge (a.u.)
  ----------------------------------------
      1 C                     0.685849
      2 C                     0.420726
      3 C                    -1.523032
      4 C                    -0.524401
      5 O                     0.041739
      6 O                    -0.151548
      7 O                    -0.018530
      8 O                    -0.171849
      9 C                    -0.176033
     10 C                    -0.186893
     11 C                    -0.172992
     12 C                    -0.290656
     13 C                    -0.439915
     14 C                    -0.751166
     15 O                     0.039338
     16 H                     0.294882
     17 H                     0.261265
     18 H                     0.169506
     19 H                     0.162213
     20 H                     0.170026
     21 H                     0.140926
     22 H                     0.174633
     23 H                     0.139408
     24 H                     0.148767
     25 H                     0.190480
     26 H                     0.178812
     27 H                     0.154248
     28 C                    -0.021751
     29 H                     0.140961
     30 H                     0.159963
     31 H                     0.208092
     32 C                    -0.013942
     33 H                     0.178319
     34 H                     0.218733
     35 H                     0.163823
  ----------------------------------------
  Sum of atomic charges =     0.000000

                    Cartesian Multipole Moments
 -----------------------------------------------------------------
    Charge (ESU x 10^10)
                 0.0000
    Dipole Moment (Debye)
         X      -0.8332      Y       2.0138      Z       3.4938
       Tot       4.1178
    Quadrupole Moments (Debye-Ang)
        XX     -89.2007     XY      -0.9051     YY     -97.8457
        XZ       1.6218     YZ      -4.7625     ZZ    -107.8115

 Total job time:  1013.56s(wall), 20759.61s(cpu)
        *  Thank you very much for using Q-Chem.  Have a nice day.  *
