 Q-Chem 5.0, Q-Chem, Inc., Pleasanton, CA (2017)
 Q-Chem 5.0.0 for Intel X86 EM64T Linux

User input:
--------------------------------------------------------------
$molecule
0  1
C    0.469  -2.369   0.246
C   -0.100  -2.666   1.497
C    0.820  -0.970  -0.128
C   -0.250  -1.617   2.525
O    1.710  -0.973  -1.154
O    0.353   0.027   0.395
O    0.994  -1.244   2.918
O   -1.315  -1.271   3.005
C    0.990  -0.231   3.923
C    2.104   0.331  -1.586
C    0.633  -3.406  -0.690
C    0.237  -4.708  -0.384
C   -0.335  -4.993   0.854
C   -0.510  -3.982   1.810
H    0.475   0.666   3.564
H    1.246   0.871  -1.997
H   -0.645  -6.015   1.070
H    0.524  -0.605   4.840
H    2.028   0.031   4.144
H    2.851   0.214  -2.376
H    2.557   0.890  -0.761
H    0.365  -5.501  -1.118
H    1.053  -3.209  -1.674
C   -1.128  -4.326   3.139
H   -2.093  -3.824   3.253
H   -0.462  -4.036   3.958
H   -1.304  -5.403   3.231
$end

$opt
CONSTRAINT
tors    2    1    3    5    163.6
tors    1    2    4    7    -67.3
ENDCONSTRAINT
$end

$rem
JOBTYPE                   OPT
METHOD                    B3LYP
DFT_D                     D3_OP
BASIS                     6-311++G(d,p)
GEOM_OPT_MAX_CYCLES       500
GEOM_OPT_TOL_DISPLACEMENT 1
SYMMETRY                  False
THRESH                    12
SCF_CONVERGENCE           8
MAX_SUB_FILE_NUM          128
MEM_STATIC                400
MEM_TOTAL                 4000
$end

--------------------------------------------------------------

   15    -727.5419522659      6.56E-09 Convergence criterion met
 Total energy in the final basis set = -727.5419522659
   13    -727.5466684951      4.10E-09 Convergence criterion met
 Total energy in the final basis set = -727.5466684951
   11    -727.5470358234      7.96E-09 Convergence criterion met
 Total energy in the final basis set = -727.5470358234
   11    -727.5470908009      3.53E-09 Convergence criterion met
 Total energy in the final basis set = -727.5470908009
   10    -727.5471126618      6.92E-09 Convergence criterion met
 Total energy in the final basis set = -727.5471126618
   10    -727.5471209874      4.41E-09 Convergence criterion met
 Total energy in the final basis set = -727.5471209874
    9    -727.5471302735      7.84E-09 Convergence criterion met
 Total energy in the final basis set = -727.5471302735
    9    -727.5471381275      5.89E-09 Convergence criterion met
 **  OPTIMIZATION CONVERGED  **
 Total job time:  668.99s(wall), 12527.46s(cpu)
        *  Thank you very much for using Q-Chem.  Have a nice day.  *

User input: 2 of 2

nid05393 10.128.21
Q-Chem Developer Version! Running on 10.128.21.*
                  Welcome to Q-Chem
     A Quantum Leap Into The Future Of Chemistry

 Q-Chem 5.0, Q-Chem, Inc., Pleasanton, CA (2017)

 Yihan Shao,  Zhengting Gan,  E. Epifanovsky,  A. T. B. Gilbert,  M. Wormit,
 J. Kussmann,  A. W. Lange,  A. Behn,  Jia Deng,  Xintian Feng,  D. Ghosh,
 M. Goldey,  P. R. Horn,  L. D. Jacobson,  I. Kaliman,  T. Kus,  A. Landau,
 Jie Liu,  E. I. Proynov,  R. M. Richard,  R. P. Steele,  E. J. Sundstrom,
 H. L. Woodcock III,  P. M. Zimmerman,  D. Zuev,  B. Albrecht,  E. Alguire,
 S. A. Baeppler,  Z. Benda,  Y. A. Bernard,  E. J. Berquist,  K. B. Bravaya,
 D. Casanova,  Chun-Min Chang,  Yunqing Chen,  A. Chien,  K. D. Closser,
 M. P. Coons,  S. Dasgupta,  M. Diedenhofen,  Hainam Do,  R. G. Edgar,
 Po-Tung Fang,  S. Fatehi,  Qingguo Feng,  Qinghui Ge,  A. Ghysels,
 J. Gomes,  J. Gonthier,  A. Gunina,  M. W. D. Hanson-Heine,
 P. H. P. Harbach,  A. W. Hauser,  J. E. Herr,  E. G. Hohenstein,
 Z. C. Holden,  Kerwin Hui,  T.-C. Jagau,  Hyunjun Ji,  B. Kaduk,
 K. Khistyaev,  Jaehoon Kim,  P. Klunzinger,  K. Koh,  D. Kosenkov,
 T. Kowalczyk,  C. M. Krauter,  A. Kunitsa,  Ka Un Lao,  A. Laurent,
 K. V. Lawler,  Joonho Lee,  D. Lefrancois,  S. Lehtola,  D. S. Levine,
 Yi-Pei Li,  You-Sheng Lin,  Fenglai Liu,  E. Livshits,  A. Luenser,
 P. Manohar,  E. Mansoor,  S. F. Manzer,  Shan-Ping Mao,  Yuezhi Mao,
 N. Mardirossian,  A. V. Marenich,  L. A. Martinez-Martinez,  S. A. Maurer,
 N. J. Mayhall,  S. C. McKenzie,  J.-M. Mewes,  A. F. Morrison,  K. Nanda,
 T. S. Nguyen-Beck,  R. Olivares-Amaya,  J. A. Parkhill,  T. M. Perrine,
 F. Plasser,  S. Prager,  A. Prociuk,  D. R. Rehn,  F. Rob,  M. Schneider,
 N. Sergueev,  S. M. Sharada,  S. Sharma,  D. W. Small,  T. Stauch,
 T. Stein,  Yu-Chuan Su,  A. J. W. Thom,  T. Tsuchimochi,  L. Vogt,
 O. Vydrov,  M. A. Watson,  J. Wenzel,  M. de Wergifosse,  T. A. Wesolowski,
 A. White,  J. Witte,  A. Yamada,  Jun Yang,  K. Yao,  S. Yeganeh,
 S. R. Yost,  Zhi-Qiang You,  A. Zech,  Igor Ying Zhang,  Xing Zhang,
 Yan Zhao,  Ying Zhu,  B. R. Brooks,  G. K. L. Chan,  C. J. Cramer,
 M. S. Gordon,  W. J. Hehre,  A. Klamt,  M. W. Schmidt,  C. D. Sherrill,
 D. G. Truhlar,  A. Aspuru-Guzik,  R. Baer,  A. T. Bell,  N. A. Besley,
 Jeng-Da Chai,  A. Dreuw,  B. D. Dunietz,  T. R. Furlani,  Chao-Ping Hsu,
 Yousung Jung,  Jing Kong,  D. S. Lambrecht,  WanZhen Liang,  C. Ochsenfeld,
 V. A. Rassolov,  L. V. Slipchenko,  J. E. Subotnik,  T. Van Voorhis,
 J. M. Herbert,  A. I. Krylov,  P. M. W. Gill,  M. Head-Gordon

 Contributors to earlier versions of Q-Chem not listed above:
 R. D. Adamson,  B. Austin,  J. Baker,  G. J. O. Beran,  K. Brandhorst,
 S. T. Brown,  E. F. C. Byrd,  A. K. Chakraborty,  C.-L. Cheng,
 Siu Hung Chien,  D. M. Chipman,  D. L. Crittenden,  H. Dachsel,
 R. A. DiStasio Jr.,  R. J. Doerksen,  A. D. Dutoi,  L. Fusti-Molnar,
 W. A. Goddard III,  A. Golubeva-Zadorozhnaya,  S. R. Gwaltney,  G. Hawkins,
 A. Heyden,  S. Hirata,  G. Kedziora,  F. J. Keil,  C. Kelley,  Jihan Kim,
 R. A. King,  R. Z. Khaliullin,  P. P. Korambath,  W. Kurlancheek,
 A. M. Lee,  M. S. Lee,  S. V. Levchenko,  Ching Yeh Lin,  D. Liotard,
 R. C. Lochan,  I. Lotan,  P. E. Maslen,  N. Nair,  D. P. O'Neill,
 D. Neuhauser,  E. Neuscamman,  C. M. Oana,  R. Olson,  B. Peters,
 R. Peverati,  P. A. Pieniazek,  Y. M. Rhee,  J. Ritchie,  M. A. Rohrdanz,
 E. Rosta,  N. J. Russ,  H. F. Schaefer III,  N. E. Schultz,  N. Shenvi,
 A. C. Simmonett,  A. Sodt,  D. Stuck,  K. S. Thanthiriwatte,  V. Vanovschi,
 Tao Wang,  A. Warshel,  C. F. Williams,  Q. Wu,  X. Xu,  W. Zhang

 Please cite Q-Chem as follows:
 Y. Shao et al., Mol. Phys. 113, 184-215 (2015)
 DOI: 10.1080/00268976.2014.952696

 Q-Chem 5.0.0 for Intel X86 EM64T Linux

 Parts of Q-Chem use Armadillo 5.200.1 (Boston Tea Smuggler).
 http://arma.sourceforge.net/

 Q-Chem begins on Tue Oct  3 18:31:04 2017

Host: nid05393
0

     Scratch files written to /global/cscratch1/sd/junteng/scratch/17/opt_11n01.save//
The previous job contains 0 fragments, simply inherited here

Checking the input file for inconsistencies... 	...done.

--------------------------------------------------------------
User input:
--------------------------------------------------------------

$molecule
   read
$end

$rem
JOBTYPE                   OPT
METHOD                    B3LYP
DFT_D                     D3_OP
BASIS                     6-311++G(d,p)
GEOM_OPT_MAX_CYCLES       500
GEOM_OPT_TOL_DISPLACEMENT 1
SYMMETRY                  False
THRESH                    12
SCF_CONVERGENCE           8
MAX_SUB_FILE_NUM          128
MEM_STATIC                400
MEM_TOTAL                 4000
$end
--------------------------------------------------------------

   12    -727.5472559902      4.43E-09 Convergence criterion met
 Total energy in the final basis set = -727.5472559902
   12    -727.5472925215      8.15E-09 Convergence criterion met
 Total energy in the final basis set = -727.5472925215
   13    -727.5473035024      3.37E-09 Convergence criterion met
 Total energy in the final basis set = -727.5473035024
   12    -727.5473220046      5.43E-09 Convergence criterion met
 Total energy in the final basis set = -727.5473220046
   11    -727.5473305424      7.47E-09 Convergence criterion met
 Total energy in the final basis set = -727.5473305424
   10    -727.5473335829      7.84E-09 Convergence criterion met
 Total energy in the final basis set = -727.5473335829

             Standard Nuclear Orientation (Angstroms)
    I     Atom           X                Y                Z
 ----------------------------------------------------------------
    1      C       0.4424522010    -0.8992882341     0.0013556598
    2      C      -0.7606732968    -0.1771548955    -0.0663829162
    3      C       1.7420164804    -0.1824470052    -0.1405572268
    4      C      -0.7810267428     1.3135848433    -0.2730933676
    5      O       2.8001678189    -1.0039664019     0.0254013580
    6      O       1.8580232054     0.9970788235    -0.3840577668
    7      O      -0.5762832409     1.9650068579     0.8837005258
    8      O      -1.0394547438     1.8455422519    -1.3233649739
    9      C      -0.4836411159     3.3985587516     0.7846887699
   10      C       4.0963244453    -0.3974692480    -0.1188128956
   11      C       0.4091073469    -2.2886411676     0.1743694071
   12      C      -0.8081885256    -2.9472361618     0.2800816349
   13      C      -1.9963652627    -2.2250745030     0.2085376565
   14      C      -1.9961068246    -0.8392571050     0.0302700871
   15      H       0.3704644081     3.6668987745     0.1612703975
   16      H       4.2083594931     0.0298829516    -1.1163946145
   17      H      -2.9456538779    -2.7437756601     0.2929808739
   18      H      -1.3963214538     3.8144186046     0.3553506337
   19      H      -0.3417374468     3.7501543412     1.8041383117
   20      H       4.8098491979    -1.2037500101     0.0359594594
   21      H       4.2350339131     0.3871973851     0.6262720472
   22      H      -0.8343464109    -4.0222824066     0.4164855391
   23      H       1.3387285574    -2.8382189864     0.2227278823
   24      C      -3.3000293529    -0.0824274187    -0.0582621517
   25      H      -3.4358805093     0.3475016536    -1.0539442779
   26      H      -3.3317332211     0.7426299739     0.6588104339
   27      H      -4.1447453724    -0.7415200501     0.1487528143
 ----------------------------------------------------------------

    9    -727.5473345554      4.33E-09 Convergence criterion met
 Total energy in the final basis set = -727.5473345554
 Final energy is   -727.547334555422
 **  OPTIMIZATION CONVERGED  **

                    Orbital Energies (a.u.)
 --------------------------------------------------------------

 Alpha MOs
 -- Occupied --
-19.178 -19.168 -19.120 -19.112 -10.312 -10.306 -10.233 -10.222
-10.207 -10.207 -10.204 -10.192 -10.192 -10.190 -10.175  -1.120
 -1.110  -1.031  -1.024  -0.885  -0.801  -0.790  -0.747  -0.726
 -0.700  -0.652  -0.624  -0.580  -0.571  -0.543  -0.519  -0.501
 -0.495  -0.490  -0.479  -0.477  -0.462  -0.444  -0.434  -0.429
 -0.423  -0.416  -0.403  -0.393  -0.381  -0.371  -0.370  -0.367
 -0.356  -0.321  -0.307  -0.293  -0.290  -0.271  -0.261

          Ground-State Mulliken Net Atomic Charges

     Atom                 Charge (a.u.)
  ----------------------------------------
      1 C                     0.077228
      2 C                     0.784347
      3 C                    -0.047504
      4 C                    -0.963805
      5 O                    -0.108114
      6 O                    -0.221915
      7 O                     0.087620
      8 O                    -0.126155
      9 C                    -0.208898
     10 C                    -0.214368
     11 C                    -0.356690
     12 C                    -0.069520
     13 C                    -0.658661
     14 C                     0.479639
     15 H                     0.190439
     16 H                     0.186454
     17 H                     0.116933
     18 H                     0.162890
     19 H                     0.149303
     20 H                     0.153390
     21 H                     0.179751
     22 H                     0.183753
     23 H                     0.187104
     24 C                    -0.487348
     25 H                     0.190591
     26 H                     0.167820
     27 H                     0.165719
  ----------------------------------------
  Sum of atomic charges =     0.000000

                    Cartesian Multipole Moments
 -----------------------------------------------------------------
    Charge (ESU x 10^10)
                 0.0000
    Dipole Moment (Debye)
         X       0.4622      Y      -1.7635      Z       1.9782
       Tot       2.6901
    Quadrupole Moments (Debye-Ang)
        XX     -71.9001     XY       0.1571     YY     -79.4459
        XZ      -1.9805     YZ       5.3637     ZZ     -93.9225

 Total job time:  714.91s(wall), 13489.89s(cpu)
        *  Thank you very much for using Q-Chem.  Have a nice day.  *
