 Q-Chem 5.0, Q-Chem, Inc., Pleasanton, CA (2017)
 Q-Chem 5.0.0 for Intel X86 EM64T Linux

User input:
--------------------------------------------------------------
$molecule
0  1
C    0.304  -2.425   0.241
C   -0.187  -2.670   1.539
C    0.664  -1.037  -0.131
C   -0.223  -1.586   2.547
O    1.892  -1.027  -0.706
O   -0.050  -0.071   0.073
O    1.036  -1.102   2.698
O   -1.208  -1.281   3.197
C    1.131  -0.051   3.659
C    2.346   0.277  -1.069
C    0.337  -3.468  -0.713
C   -0.078  -4.750  -0.324
C   -0.556  -4.992   0.965
C   -0.619  -3.961   1.912
H    0.496   0.792   3.371
H    1.683   0.717  -1.820
H   -0.885  -5.997   1.223
H    0.862  -0.417   4.655
H    2.169   0.291   3.685
H    3.345   0.180  -1.503
H    2.413   0.921  -0.186
H   -0.050  -5.576  -1.034
C   -1.153  -4.262   3.286
C    0.800  -3.263  -2.130
H    0.377  -2.346  -2.553
H    0.472  -4.085  -2.776
H    1.893  -3.221  -2.170
H   -2.134  -3.796   3.422
H   -0.464  -3.904   4.057
H   -1.273  -5.340   3.441
$end

$opt
CONSTRAINT
tors    2    1    3    5    140.2
tors    1    2    4    7    -62.3
ENDCONSTRAINT
$end

$rem
JOBTYPE                   OPT
METHOD                    B3LYP
DFT_D                     D3_OP
BASIS                     STO-3G
GEOM_OPT_MAX_CYCLES       500
SYMMETRY                  False
THRESH                    12
SCF_CONVERGENCE           8
MAX_SUB_FILE_NUM          128
MEM_STATIC                400
MEM_TOTAL                 4000
$end

--------------------------------------------------------------

   15    -756.7774928998      6.43E-09 Convergence criterion met
 Total energy in the final basis set = -756.7774928998
   14    -756.8033871395      6.55E-09 Convergence criterion met
 Total energy in the final basis set = -756.8033871395
   14    -756.8074020003      3.99E-09 Convergence criterion met
 Total energy in the final basis set = -756.8074020003
   13    -756.8078678031      3.55E-09 Convergence criterion met
 Total energy in the final basis set = -756.8078678031
   11    -756.8079659379      5.71E-09 Convergence criterion met
 Total energy in the final basis set = -756.8079659379
   11    -756.8080084403      4.95E-09 Convergence criterion met
 Total energy in the final basis set = -756.8080084403
   11    -756.8080241615      2.16E-09 Convergence criterion met
 Total energy in the final basis set = -756.8080241615
   11    -756.8080345417      2.01E-09 Convergence criterion met
 **  OPTIMIZATION CONVERGED  **
 Total job time:  177.32s(wall), 4064.85s(cpu)
        *  Thank you very much for using Q-Chem.  Have a nice day.  *

User input: 2 of 3

nid03055 10.128.12
Q-Chem Developer Version! Running on 10.128.12.*
                  Welcome to Q-Chem
     A Quantum Leap Into The Future Of Chemistry

 Q-Chem 5.0, Q-Chem, Inc., Pleasanton, CA (2017)

 Yihan Shao,  Zhengting Gan,  E. Epifanovsky,  A. T. B. Gilbert,  M. Wormit,
 J. Kussmann,  A. W. Lange,  A. Behn,  Jia Deng,  Xintian Feng,  D. Ghosh,
 M. Goldey,  P. R. Horn,  L. D. Jacobson,  I. Kaliman,  T. Kus,  A. Landau,
 Jie Liu,  E. I. Proynov,  R. M. Richard,  R. P. Steele,  E. J. Sundstrom,
 H. L. Woodcock III,  P. M. Zimmerman,  D. Zuev,  B. Albrecht,  E. Alguire,
 S. A. Baeppler,  Z. Benda,  Y. A. Bernard,  E. J. Berquist,  K. B. Bravaya,
 D. Casanova,  Chun-Min Chang,  Yunqing Chen,  A. Chien,  K. D. Closser,
 M. P. Coons,  S. Dasgupta,  M. Diedenhofen,  Hainam Do,  R. G. Edgar,
 Po-Tung Fang,  S. Fatehi,  Qingguo Feng,  Qinghui Ge,  A. Ghysels,
 J. Gomes,  J. Gonthier,  A. Gunina,  M. W. D. Hanson-Heine,
 P. H. P. Harbach,  A. W. Hauser,  J. E. Herr,  E. G. Hohenstein,
 Z. C. Holden,  Kerwin Hui,  T.-C. Jagau,  Hyunjun Ji,  B. Kaduk,
 K. Khistyaev,  Jaehoon Kim,  P. Klunzinger,  K. Koh,  D. Kosenkov,
 T. Kowalczyk,  C. M. Krauter,  A. Kunitsa,  Ka Un Lao,  A. Laurent,
 K. V. Lawler,  Joonho Lee,  D. Lefrancois,  S. Lehtola,  D. S. Levine,
 Yi-Pei Li,  You-Sheng Lin,  Fenglai Liu,  E. Livshits,  A. Luenser,
 P. Manohar,  E. Mansoor,  S. F. Manzer,  Shan-Ping Mao,  Yuezhi Mao,
 N. Mardirossian,  A. V. Marenich,  L. A. Martinez-Martinez,  S. A. Maurer,
 N. J. Mayhall,  S. C. McKenzie,  J.-M. Mewes,  A. F. Morrison,  K. Nanda,
 T. S. Nguyen-Beck,  R. Olivares-Amaya,  J. A. Parkhill,  T. M. Perrine,
 F. Plasser,  S. Prager,  A. Prociuk,  D. R. Rehn,  F. Rob,  M. Schneider,
 N. Sergueev,  S. M. Sharada,  S. Sharma,  D. W. Small,  T. Stauch,
 T. Stein,  Yu-Chuan Su,  A. J. W. Thom,  T. Tsuchimochi,  L. Vogt,
 O. Vydrov,  M. A. Watson,  J. Wenzel,  M. de Wergifosse,  T. A. Wesolowski,
 A. White,  J. Witte,  A. Yamada,  Jun Yang,  K. Yao,  S. Yeganeh,
 S. R. Yost,  Zhi-Qiang You,  A. Zech,  Igor Ying Zhang,  Xing Zhang,
 Yan Zhao,  Ying Zhu,  B. R. Brooks,  G. K. L. Chan,  C. J. Cramer,
 M. S. Gordon,  W. J. Hehre,  A. Klamt,  M. W. Schmidt,  C. D. Sherrill,
 D. G. Truhlar,  A. Aspuru-Guzik,  R. Baer,  A. T. Bell,  N. A. Besley,
 Jeng-Da Chai,  A. Dreuw,  B. D. Dunietz,  T. R. Furlani,  Chao-Ping Hsu,
 Yousung Jung,  Jing Kong,  D. S. Lambrecht,  WanZhen Liang,  C. Ochsenfeld,
 V. A. Rassolov,  L. V. Slipchenko,  J. E. Subotnik,  T. Van Voorhis,
 J. M. Herbert,  A. I. Krylov,  P. M. W. Gill,  M. Head-Gordon

 Contributors to earlier versions of Q-Chem not listed above:
 R. D. Adamson,  B. Austin,  J. Baker,  G. J. O. Beran,  K. Brandhorst,
 S. T. Brown,  E. F. C. Byrd,  A. K. Chakraborty,  C.-L. Cheng,
 Siu Hung Chien,  D. M. Chipman,  D. L. Crittenden,  H. Dachsel,
 R. A. DiStasio Jr.,  R. J. Doerksen,  A. D. Dutoi,  L. Fusti-Molnar,
 W. A. Goddard III,  A. Golubeva-Zadorozhnaya,  S. R. Gwaltney,  G. Hawkins,
 A. Heyden,  S. Hirata,  G. Kedziora,  F. J. Keil,  C. Kelley,  Jihan Kim,
 R. A. King,  R. Z. Khaliullin,  P. P. Korambath,  W. Kurlancheek,
 A. M. Lee,  M. S. Lee,  S. V. Levchenko,  Ching Yeh Lin,  D. Liotard,
 R. C. Lochan,  I. Lotan,  P. E. Maslen,  N. Nair,  D. P. O'Neill,
 D. Neuhauser,  E. Neuscamman,  C. M. Oana,  R. Olson,  B. Peters,
 R. Peverati,  P. A. Pieniazek,  Y. M. Rhee,  J. Ritchie,  M. A. Rohrdanz,
 E. Rosta,  N. J. Russ,  H. F. Schaefer III,  N. E. Schultz,  N. Shenvi,
 A. C. Simmonett,  A. Sodt,  D. Stuck,  K. S. Thanthiriwatte,  V. Vanovschi,
 Tao Wang,  A. Warshel,  C. F. Williams,  Q. Wu,  X. Xu,  W. Zhang

 Please cite Q-Chem as follows:
 Y. Shao et al., Mol. Phys. 113, 184-215 (2015)
 DOI: 10.1080/00268976.2014.952696

 Q-Chem 5.0.0 for Intel X86 EM64T Linux

 Parts of Q-Chem use Armadillo 5.200.1 (Boston Tea Smuggler).
 http://arma.sourceforge.net/

 Q-Chem begins on Wed Oct  4 18:29:22 2017

Host: nid03055
0

     Scratch files written to /global/cscratch1/sd/junteng/scratch/18/opt_11n11+-.save//
The previous job contains 0 fragments, simply inherited here

Checking the input file for inconsistencies... 	...done.

--------------------------------------------------------------
User input:
--------------------------------------------------------------

$molecule
   read
$end

$rem
JOBTYPE                   OPT
METHOD                    B3LYP
DFT_D                     D3_OP
BASIS                     6-311++G(d,p)
GEOM_OPT_MAX_CYCLES       500
GEOM_OPT_TOL_GRADIENT     1
GEOM_OPT_TOL_DISPLACEMENT 1
GEOM_OPT_TOL_ENERGY       1
SYMMETRY                  False
THRESH                    12
SCF_CONVERGENCE           8
MAX_SUB_FILE_NUM          128
MEM_STATIC                400
MEM_TOTAL                 4000
$end

--------------------------------------------------------------

    8    -766.8750486760      5.14E-09 Convergence criterion met
 Total energy in the final basis set = -766.8750486760
    7    -766.8750487844      8.31E-09 Convergence criterion met
 Total energy in the final basis set = -766.8750487844
    7    -766.8750488794      4.50E-09 Convergence criterion met
 Total energy in the final basis set = -766.8750488794
    6    -766.8750488988      4.78E-09 Convergence criterion met
 Total energy in the final basis set = -766.8750488988
    5    -766.8750489178      5.37E-09 Convergence criterion met
 Total energy in the final basis set = -766.8750489178
    4    -766.8750489205      6.77E-09 Convergence criterion met
 Total energy in the final basis set = -766.8750489205
 Final energy is   -766.875048920475
        *  Thank you very much for using Q-Chem.  Have a nice day.  *
 Q-Chem 5.0, Q-Chem, Inc., Pleasanton, CA (2017)
 Q-Chem 5.0.0 for Intel X86 EM64T Linux

             Standard Nuclear Orientation (Angstroms)
    I     Atom           X                Y                Z
 ----------------------------------------------------------------
    1      C       0.1585854538    -0.7394708486    -0.0951632220
    2      C      -0.9839863839     0.0786934023    -0.0307955770
    3      C       1.4971711471    -0.1225382180    -0.3792965432
    4      C      -0.8517704420     1.5646671900    -0.1427891211
    5      O       2.3790876514    -0.3693753653     0.6060957653
    6      O       1.7666443863     0.4891178877    -1.3848756329
    7      O       0.1760336395     2.0252083907     0.6017636071
    8      O      -1.5740107055     2.2800398529    -0.7939923782
    9      C       0.4835898514     3.4228102057     0.4526176881
   10      C       3.7070827693     0.1482502037     0.4039028237
   11      C       0.0533007682    -2.1370120109    -0.0148514914
   12      C      -1.2212238804    -2.6813519642     0.1505174844
   13      C      -2.3494997358    -1.8754197931     0.2283675196
   14      C      -2.2645014300    -0.4856040202     0.1282325411
   15      H       0.7750503060     3.6323738122    -0.5778465945
   16      H       4.1570992020    -0.2922090310    -0.4872998485
   17      H      -3.3235661026    -2.3342383517     0.3607618405
   18      H      -0.3792263106     4.0349545195     0.7178152385
   19      H       1.3115761217     3.6104353401     1.1326382386
   20      H       4.2651013687    -0.1313431086     1.2945987234
   21      H       3.6780378423     1.2329255738     0.2915927085
   22      H      -1.3310059849    -3.7591038549     0.2115735323
   23      C      -3.5259259235     0.3415177166     0.2002700196
   24      C       1.2526709425    -3.0485105047    -0.1271512545
   25      H       1.8839795788    -2.7811039492    -0.9787614119
   26      H       0.9321234894    -4.0829874348    -0.2617786306
   27      H       1.8751033409    -2.9961005849     0.7695783914
   28      H      -3.7444694677     0.8075145446    -0.7624025372
   29      H      -3.4437530636     1.1509168512     0.9295293407
   30      H      -4.3710489141    -0.2881486046     0.4849049148
 ----------------------------------------------------------------

   15    -766.8749257125      8.86E-09 Convergence criterion met
 Total energy in the final basis set = -766.8749257125

                    Orbital Energies (a.u.)
 --------------------------------------------------------------

 Alpha MOs
 -- Occupied --
-19.178 -19.173 -19.120 -19.116 -10.312 -10.308 -10.233 -10.228
-10.205 -10.204 -10.201 -10.200 -10.187 -10.185 -10.176 -10.168
 -1.120  -1.114  -1.031  -1.028  -0.885  -0.808  -0.792  -0.748
 -0.733  -0.726  -0.674  -0.648  -0.620  -0.576  -0.568  -0.532
 -0.519  -0.513  -0.489  -0.488  -0.480  -0.477  -0.469  -0.441
 -0.436  -0.428  -0.423  -0.414  -0.412  -0.405  -0.396  -0.387
 -0.381  -0.372  -0.360  -0.358  -0.357  -0.320  -0.312  -0.298
 -0.287  -0.265  -0.253

          Ground-State Mulliken Net Atomic Charges

     Atom                 Charge (a.u.)
  ----------------------------------------
      1 C                     0.432220
      2 C                     0.565549
      3 C                    -0.942450
      4 C                    -0.440309
      5 O                     0.047335
      6 O                    -0.121611
      7 O                    -0.014072
      8 O                    -0.197772
      9 C                    -0.224076
     10 C                    -0.214397
     11 C                     0.623598
     12 C                    -0.539742
     13 C                    -0.672475
     14 C                     0.515686
     15 H                     0.196104
     16 H                     0.184151
     17 H                     0.124827
     18 H                     0.175192
     19 H                     0.149680
     20 H                     0.159014
     21 H                     0.158994
     22 H                     0.132105
     23 C                    -0.560468
     24 C                    -0.574384
     25 H                     0.176844
     26 H                     0.152238
     27 H                     0.191284
     28 H                     0.203501
     29 H                     0.174190
     30 H                     0.139244
  ----------------------------------------
  Sum of atomic charges =     0.000000

                    Cartesian Multipole Moments
 -----------------------------------------------------------------
    Charge (ESU x 10^10)
                 0.0000
    Dipole Moment (Debye)
         X       1.5306      Y      -1.4675      Z       2.4806
       Tot       3.2633
    Quadrupole Moments (Debye-Ang)
        XX     -82.4812     XY       5.4854     YY     -84.4694
        XZ       0.4497     YZ       5.5733     ZZ    -102.0854

 Frequency:        21.36                  52.57                  67.88
 Force Cnst:      0.0014                 0.0066                 0.0105
 Red. Mass:       5.2913                 4.0738                 3.8529
 IR Intens:        0.383                  0.093                  2.997
 Frequency:        80.31                 111.49                 117.08
 Force Cnst:      0.0115                 0.0109                 0.0178
 Red. Mass:       3.0338                 1.4847                 2.2099
 IR Intens:        3.650                  0.285                  0.734
 Frequency:       126.20                 130.54                 136.85
 Force Cnst:      0.0220                 0.0131                 0.0120
 Red. Mass:       2.3396                 1.3016                 1.0873
 IR Intens:        4.570                  0.814                  0.076
 Frequency:       144.05                 150.43                 217.57
 Force Cnst:      0.0206                 0.0196                 0.1436
 Red. Mass:       1.6823                 1.4667                 5.1486
 IR Intens:        0.181                  0.612                  0.249
 Frequency:       240.01                 248.82                 291.51
 Force Cnst:      0.2036                 0.1642                 0.1554
 Red. Mass:       5.9999                 4.5011                 3.1031
 IR Intens:        0.656                  3.816                  0.894
 Frequency:       303.74                 313.19                 323.16
 Force Cnst:      0.2550                 0.2300                 0.2298
 Red. Mass:       4.6906                 3.9796                 3.7346
 IR Intens:        5.464                  9.533                  8.725
 Frequency:       368.29                 400.95                 423.25
 Force Cnst:      0.4623                 0.3682                 0.5326
 Red. Mass:       5.7846                 3.8877                 5.0462
 IR Intens:        5.030                  6.535                  1.055
 Frequency:       486.70                 494.33                 554.76
 Force Cnst:      0.6016                 0.5362                 0.7817
 Red. Mass:       4.3102                 3.7245                 4.3109
 IR Intens:        1.220                 10.031                  2.100
 Frequency:       616.69                 712.61                 726.43
 Force Cnst:      1.0603                 1.8429                 1.9554
 Red. Mass:       4.7321                 6.1594                 6.2894
 IR Intens:        7.171                  1.126                  0.444
 Frequency:       736.17                 798.90                 805.42
 Force Cnst:      2.0017                 2.1505                 2.3569
 Red. Mass:       6.2689                 5.7188                 6.1665
 IR Intens:       23.517                  6.493                 10.632
 Frequency:       814.19                 830.77                 890.53
 Force Cnst:      2.5470                 0.5305                 2.6301
 Red. Mass:       6.5210                 1.3045                 5.6289
 IR Intens:       10.478                 18.363                  5.141
 Frequency:       921.83                 969.02                 988.34
 Force Cnst:      2.1816                 0.7382                 1.5159
 Red. Mass:       4.3574                 1.3342                 2.6340
 IR Intens:        9.631                  0.138                  5.568
 Frequency:       996.90                1046.72                1055.65
 Force Cnst:      2.7665                 0.9952                 1.5059
 Red. Mass:       4.7248                 1.5417                 2.2935
 IR Intens:       12.102                  3.347                 56.223
 Frequency:      1059.36                1063.02                1133.84
 Force Cnst:      1.0916                 1.0162                 4.0528
 Red. Mass:       1.6509                 1.5264                 5.3506
 IR Intens:        8.651                  3.841                 87.077
 Frequency:      1168.93                1169.60                1184.46
 Force Cnst:      1.0346                 1.0363                 1.2788
 Red. Mass:       1.2851                 1.2858                 1.5471
 IR Intens:        0.530                  1.753                 95.668
 Frequency:      1202.44                1210.73                1222.59
 Force Cnst:      1.5417                 1.3705                 2.8137
 Red. Mass:       1.8098                 1.5869                 3.1949
 IR Intens:       19.844                 11.626                296.422
 Frequency:      1275.22                1286.73                1292.82
 Force Cnst:      1.8375                 5.9304                 4.0732
 Red. Mass:       1.9178                 6.0794                 4.1363
 IR Intens:       14.155                174.622                211.813
 Frequency:      1315.49                1418.45                1420.33
 Force Cnst:      6.5144                 1.4684                 1.4774
 Red. Mass:       6.3892                 1.2387                 1.2430
 IR Intens:       48.633                  1.230                  5.048
 Frequency:      1432.55                1465.26                1468.48
 Force Cnst:      3.5150                 1.5190                 1.5958
 Red. Mass:       2.9070                 1.2008                 1.2560
 IR Intens:       51.651                 10.719                 47.207
 Frequency:      1481.26                1481.77                1483.13
 Force Cnst:      1.4483                 1.3541                 1.3641
 Red. Mass:       1.1203                 1.0468                 1.0525
 IR Intens:        4.029                  2.517                 18.254
 Frequency:      1486.07                1490.82                1495.80
 Force Cnst:      1.4279                 1.4419                 1.3866
 Red. Mass:       1.0974                 1.1011                 1.0519
 IR Intens:        0.205                 10.863                 15.524
 Frequency:      1496.71                1501.24                1503.36
 Force Cnst:      1.3962                 1.8407                 2.2801
 Red. Mass:       1.0579                 1.3862                 1.7123
 IR Intens:        2.776                  4.463                 21.472
 Frequency:      1608.34                1633.19                1773.05
 Force Cnst:      8.1570                11.1285                21.8440
 Red. Mass:       5.3521                 7.0812                11.7934
 IR Intens:       13.633                  2.225                 98.878
 Frequency:      1778.39                3034.88                3041.21
 Force Cnst:     21.8363                 5.6223                 5.6436
 Red. Mass:      11.7185                 1.0361                 1.0356
 IR Intens:      421.381                 24.316                 23.330
 Frequency:      3050.11                3050.49                3090.37
 Force Cnst:      5.6430                 5.6436                 6.1918
 Red. Mass:       1.0295                 1.0294                 1.1004
 IR Intens:       20.939                 47.452                 10.730
 Frequency:      3099.82                3108.37                3112.04
 Force Cnst:      6.2291                 6.2737                 6.2919
 Red. Mass:       1.1003                 1.1021                 1.1027
 IR Intens:       12.711                 17.551                 12.717
 Frequency:      3122.34                3125.31                3156.35
 Force Cnst:      6.3573                 6.3721                 6.4942
 Red. Mass:       1.1068                 1.1073                 1.1064
 IR Intens:       18.038                 13.769                 13.120
 Frequency:      3158.06                3160.94                3177.99
 Force Cnst:      6.5007                 6.3998                 6.5135
 Red. Mass:       1.1063                 1.0871                 1.0946
 IR Intens:       12.729                  8.196                 20.439

 STANDARD THERMODYNAMIC QUANTITIES AT   298.15 K  AND     1.00 ATM

   This Molecule has  0 Imaginary Frequencies
   Zero point vibrational energy:      150.401 kcal/mol

   Atom    1 Element C  Has Mass   12.00000
   Atom    2 Element C  Has Mass   12.00000
   Atom    3 Element C  Has Mass   12.00000
   Atom    4 Element C  Has Mass   12.00000
   Atom    5 Element O  Has Mass   15.99491
   Atom    6 Element O  Has Mass   15.99491
   Atom    7 Element O  Has Mass   15.99491
   Atom    8 Element O  Has Mass   15.99491
   Atom    9 Element C  Has Mass   12.00000
   Atom   10 Element C  Has Mass   12.00000
   Atom   11 Element C  Has Mass   12.00000
   Atom   12 Element C  Has Mass   12.00000
   Atom   13 Element C  Has Mass   12.00000
   Atom   14 Element C  Has Mass   12.00000
   Atom   15 Element H  Has Mass    1.00783
   Atom   16 Element H  Has Mass    1.00783
   Atom   17 Element H  Has Mass    1.00783
   Atom   18 Element H  Has Mass    1.00783
   Atom   19 Element H  Has Mass    1.00783
   Atom   20 Element H  Has Mass    1.00783
   Atom   21 Element H  Has Mass    1.00783
   Atom   22 Element H  Has Mass    1.00783
   Atom   23 Element C  Has Mass   12.00000
   Atom   24 Element C  Has Mass   12.00000
   Atom   25 Element H  Has Mass    1.00783
   Atom   26 Element H  Has Mass    1.00783
   Atom   27 Element H  Has Mass    1.00783
   Atom   28 Element H  Has Mass    1.00783
   Atom   29 Element H  Has Mass    1.00783
   Atom   30 Element H  Has Mass    1.00783
   Molecular Mass:   222.089260 amu
   Principal axes and moments of inertia in amu*Bohr^2:
                             1           2           3
    Eigenvalues --     2853.52258  3199.45183  5565.26998
          X               0.99994     0.01132     0.00103
          Y              -0.01133     0.99990     0.00800
          Z              -0.00094    -0.00801     0.99997
   Rotational Symmetry Number is   1
   The Molecule is an Asymmetric Top
   Translational Enthalpy:        0.889 kcal/mol
   Rotational Enthalpy:           0.889 kcal/mol
   Vibrational Enthalpy:        159.280 kcal/mol
   gas constant (RT):             0.592 kcal/mol
   Translational Entropy:        42.096  cal/mol.K
   Rotational Entropy:           32.296  cal/mol.K
   Vibrational Entropy:          59.309  cal/mol.K

   Total Enthalpy:              161.650 kcal/mol
   Total Entropy:               133.702  cal/mol.K

 Total job time:  8357.74s(wall), 47336.12s(cpu)
        *  Thank you very much for using Q-Chem.  Have a nice day.  *
