 Q-Chem 5.0, Q-Chem, Inc., Pleasanton, CA (2017)
 Q-Chem 5.0.0 for Intel X86 EM64T Linux

User input:
--------------------------------------------------------------
$molecule
0  1
C    0.656  -1.997   0.550
C   -0.379  -2.055   1.685
C    1.075  -0.633   0.035
C   -0.743  -0.756   2.367
O    2.254  -0.766  -0.643
O    0.466   0.414   0.178
O    0.380  -0.211   2.923
O   -1.879  -0.339   2.537
C    0.159   1.039   3.578
C    2.798   0.433  -1.203
C   -0.074  -2.721  -0.584
C   -0.239  -4.209  -0.268
C   -1.341  -4.194   0.796
C   -1.585  -2.694   0.978
O   -1.425  -2.250  -0.391
H    1.566  -2.528   0.855
H   -0.041  -2.721   2.491
H   -0.505   1.690   2.999
H    2.061   1.233  -1.326
H    0.286  -2.514  -1.595
H   -0.592  -4.755  -1.150
H    0.687  -4.677   0.078
H   -2.237  -4.682   0.398
H   -1.053  -4.703   1.720
H   -2.574  -2.451   1.372
H   -0.249   0.863   4.578
H    1.124   1.543   3.677
H    3.204   0.190  -2.189
H    3.617   0.777  -0.565
$end

$opt
CONSTRAINT
tors    2    1    3    5    157.3
tors    1    2    4    7    -56.6
ENDCONSTRAINT
$end

$rem
JOBTYPE                   OPT
METHOD                    B3LYP
DFT_D                     D3_OP
BASIS                     STO-3G
GEOM_OPT_MAX_CYCLES       500
SYMMETRY                  False
THRESH                    12
SCF_CONVERGENCE           8
MAX_SUB_FILE_NUM          128
MEM_STATIC                400
MEM_TOTAL                 4000
$end

--------------------------------------------------------------

   14    -755.6953363584      6.30E-09 Convergence criterion met
 Total energy in the final basis set = -755.6953363584
   13    -755.7254034649      4.28E-09 Convergence criterion met
 Total energy in the final basis set = -755.7254034649
   13    -755.7311994726      4.20E-09 Convergence criterion met
 Total energy in the final basis set = -755.7311994726
   12    -755.7319317908      4.00E-09 Convergence criterion met
 Total energy in the final basis set = -755.7319317908
   12    -755.7321712786      2.42E-09 Convergence criterion met
 Total energy in the final basis set = -755.7321712786
   11    -755.7322593565      7.05E-09 Convergence criterion met
 Total energy in the final basis set = -755.7322593565
   11    -755.7322988340      4.11E-09 Convergence criterion met
 Total energy in the final basis set = -755.7322988340
   11    -755.7323482527      3.42E-09 Convergence criterion met
 **  OPTIMIZATION CONVERGED  **
 Total job time:  57.41s(wall), 1337.68s(cpu)
        *  Thank you very much for using Q-Chem.  Have a nice day.  *

User input: 2 of 3

nid04577 10.128.18
Q-Chem Developer Version! Running on 10.128.18.*
                  Welcome to Q-Chem
     A Quantum Leap Into The Future Of Chemistry

 Q-Chem 5.0, Q-Chem, Inc., Pleasanton, CA (2017)

 Yihan Shao,  Zhengting Gan,  E. Epifanovsky,  A. T. B. Gilbert,  M. Wormit,
 J. Kussmann,  A. W. Lange,  A. Behn,  Jia Deng,  Xintian Feng,  D. Ghosh,
 M. Goldey,  P. R. Horn,  L. D. Jacobson,  I. Kaliman,  T. Kus,  A. Landau,
 Jie Liu,  E. I. Proynov,  R. M. Richard,  R. P. Steele,  E. J. Sundstrom,
 H. L. Woodcock III,  P. M. Zimmerman,  D. Zuev,  B. Albrecht,  E. Alguire,
 S. A. Baeppler,  Z. Benda,  Y. A. Bernard,  E. J. Berquist,  K. B. Bravaya,
 D. Casanova,  Chun-Min Chang,  Yunqing Chen,  A. Chien,  K. D. Closser,
 M. P. Coons,  S. Dasgupta,  M. Diedenhofen,  Hainam Do,  R. G. Edgar,
 Po-Tung Fang,  S. Fatehi,  Qingguo Feng,  Qinghui Ge,  A. Ghysels,
 J. Gomes,  J. Gonthier,  A. Gunina,  M. W. D. Hanson-Heine,
 P. H. P. Harbach,  A. W. Hauser,  J. E. Herr,  E. G. Hohenstein,
 Z. C. Holden,  Kerwin Hui,  T.-C. Jagau,  Hyunjun Ji,  B. Kaduk,
 K. Khistyaev,  Jaehoon Kim,  P. Klunzinger,  K. Koh,  D. Kosenkov,
 T. Kowalczyk,  C. M. Krauter,  A. Kunitsa,  Ka Un Lao,  A. Laurent,
 K. V. Lawler,  Joonho Lee,  D. Lefrancois,  S. Lehtola,  D. S. Levine,
 Yi-Pei Li,  You-Sheng Lin,  Fenglai Liu,  E. Livshits,  A. Luenser,
 P. Manohar,  E. Mansoor,  S. F. Manzer,  Shan-Ping Mao,  Yuezhi Mao,
 N. Mardirossian,  A. V. Marenich,  L. A. Martinez-Martinez,  S. A. Maurer,
 N. J. Mayhall,  S. C. McKenzie,  J.-M. Mewes,  A. F. Morrison,  K. Nanda,
 T. S. Nguyen-Beck,  R. Olivares-Amaya,  J. A. Parkhill,  T. M. Perrine,
 F. Plasser,  S. Prager,  A. Prociuk,  D. R. Rehn,  F. Rob,  M. Schneider,
 N. Sergueev,  S. M. Sharada,  S. Sharma,  D. W. Small,  T. Stauch,
 T. Stein,  Yu-Chuan Su,  A. J. W. Thom,  T. Tsuchimochi,  L. Vogt,
 O. Vydrov,  M. A. Watson,  J. Wenzel,  M. de Wergifosse,  T. A. Wesolowski,
 A. White,  J. Witte,  A. Yamada,  Jun Yang,  K. Yao,  S. Yeganeh,
 S. R. Yost,  Zhi-Qiang You,  A. Zech,  Igor Ying Zhang,  Xing Zhang,
 Yan Zhao,  Ying Zhu,  B. R. Brooks,  G. K. L. Chan,  C. J. Cramer,
 M. S. Gordon,  W. J. Hehre,  A. Klamt,  M. W. Schmidt,  C. D. Sherrill,
 D. G. Truhlar,  A. Aspuru-Guzik,  R. Baer,  A. T. Bell,  N. A. Besley,
 Jeng-Da Chai,  A. Dreuw,  B. D. Dunietz,  T. R. Furlani,  Chao-Ping Hsu,
 Yousung Jung,  Jing Kong,  D. S. Lambrecht,  WanZhen Liang,  C. Ochsenfeld,
 V. A. Rassolov,  L. V. Slipchenko,  J. E. Subotnik,  T. Van Voorhis,
 J. M. Herbert,  A. I. Krylov,  P. M. W. Gill,  M. Head-Gordon

 Contributors to earlier versions of Q-Chem not listed above:
 R. D. Adamson,  B. Austin,  J. Baker,  G. J. O. Beran,  K. Brandhorst,
 S. T. Brown,  E. F. C. Byrd,  A. K. Chakraborty,  C.-L. Cheng,
 Siu Hung Chien,  D. M. Chipman,  D. L. Crittenden,  H. Dachsel,
 R. A. DiStasio Jr.,  R. J. Doerksen,  A. D. Dutoi,  L. Fusti-Molnar,
 W. A. Goddard III,  A. Golubeva-Zadorozhnaya,  S. R. Gwaltney,  G. Hawkins,
 A. Heyden,  S. Hirata,  G. Kedziora,  F. J. Keil,  C. Kelley,  Jihan Kim,
 R. A. King,  R. Z. Khaliullin,  P. P. Korambath,  W. Kurlancheek,
 A. M. Lee,  M. S. Lee,  S. V. Levchenko,  Ching Yeh Lin,  D. Liotard,
 R. C. Lochan,  I. Lotan,  P. E. Maslen,  N. Nair,  D. P. O'Neill,
 D. Neuhauser,  E. Neuscamman,  C. M. Oana,  R. Olson,  B. Peters,
 R. Peverati,  P. A. Pieniazek,  Y. M. Rhee,  J. Ritchie,  M. A. Rohrdanz,
 E. Rosta,  N. J. Russ,  H. F. Schaefer III,  N. E. Schultz,  N. Shenvi,
 A. C. Simmonett,  A. Sodt,  D. Stuck,  K. S. Thanthiriwatte,  V. Vanovschi,
 Tao Wang,  A. Warshel,  C. F. Williams,  Q. Wu,  X. Xu,  W. Zhang

 Please cite Q-Chem as follows:
 Y. Shao et al., Mol. Phys. 113, 184-215 (2015)
 DOI: 10.1080/00268976.2014.952696

 Q-Chem 5.0.0 for Intel X86 EM64T Linux

 Parts of Q-Chem use Armadillo 5.200.1 (Boston Tea Smuggler).
 http://arma.sourceforge.net/

 Q-Chem begins on Wed Oct  4 17:30:52 2017

Host: nid04577
0

     Scratch files written to /global/cscratch1/sd/junteng/scratch/13/opt_1001-+.save//
The previous job contains 0 fragments, simply inherited here

Checking the input file for inconsistencies... 	...done.

--------------------------------------------------------------
User input:
--------------------------------------------------------------

$molecule
   read
$end

$rem
JOBTYPE                   OPT
METHOD                    B3LYP
DFT_D                     D3_OP
BASIS                     6-311++G(d,p)
GEOM_OPT_MAX_CYCLES       500
GEOM_OPT_TOL_GRADIENT     1
GEOM_OPT_TOL_DISPLACEMENT 1
GEOM_OPT_TOL_ENERGY       1
SYMMETRY                  False
THRESH                    12
SCF_CONVERGENCE           8
MAX_SUB_FILE_NUM          128
MEM_STATIC                400
MEM_TOTAL                 4000
$end

--------------------------------------------------------------

   11    -765.8625204865      3.45E-09 Convergence criterion met
 Total energy in the final basis set = -765.8625204865
    9    -765.8625212325      8.41E-09 Convergence criterion met
 Total energy in the final basis set = -765.8625212325
    8    -765.8625214364      9.72E-09 Convergence criterion met
 Total energy in the final basis set = -765.8625214364
    8    -765.8625214502      5.09E-09 Convergence criterion met
 Total energy in the final basis set = -765.8625214502
    5    -765.8625214645      8.98E-09 Convergence criterion met
 Total energy in the final basis set = -765.8625214645
    5    -765.8625214606      4.89E-09 Convergence criterion met
 Total energy in the final basis set = -765.8625214606
 Final energy is   -765.862521460641
        *  Thank you very much for using Q-Chem.  Have a nice day.  *
 Q-Chem 5.0, Q-Chem, Inc., Pleasanton, CA (2017)
 Q-Chem 5.0.0 for Intel X86 EM64T Linux

             Standard Nuclear Orientation (Angstroms)
    I     Atom           X                Y                Z
 ----------------------------------------------------------------
    1      C       0.3777822453    -0.6459533601    -0.6000910748
    2      C       0.6136103126     0.8949817525    -0.4822485258
    3      C      -0.8715889712    -1.1786323784     0.0677822700
    4      C      -0.5580504419     1.7269344383     0.0097465038
    5      O      -1.1882051201    -2.3868030915    -0.4542774209
    6      O      -1.4846337919    -0.6647045026     0.9681456278
    7      O      -1.6060270533     1.5862049987    -0.8310694138
    8      O      -0.5464359607     2.4718031471     0.9546879672
    9      C      -2.8246594152     2.2401325004    -0.4332282223
   10      C      -2.3129613396    -3.0578414877     0.1446209769
   11      C       1.6289166957    -1.1684946784     0.1782016064
   12      C       2.9079734872    -0.8990497183    -0.6489697306
   13      C       3.1116245557     0.6273201963    -0.3982468275
   14      C       1.8585976013     0.9529484266     0.4387714103
   15      O       1.7230612241    -0.2289071240     1.2495265891
   16      H       0.3816164359    -0.9874321223    -1.6343313774
   17      H       0.8470949403     1.2872421531    -1.4760714610
   18      H      -3.1651834941     1.8362437659     0.5213960822
   19      H      -2.1393125934    -3.2193557035     1.2095319140
   20      H       1.5261474491    -2.1775914137     0.5719031572
   21      H       3.7413974049    -1.4844621682    -0.2585663220
   22      H       2.7816571349    -1.1520077203    -1.7036623829
   23      H       4.0132772899     0.8159705761     0.1861092207
   24      H       3.1722067343     1.2118545549    -1.3186113167
   25      H       1.9032649134     1.8315623137     1.0750406125
   26      H      -2.6714512686     3.3162383243    -0.3409433661
   27      H      -3.5424579246     2.0213564052    -1.2210742373
   28      H      -2.3966357753    -4.0072841651    -0.3796286256
   29      H      -3.2211640103    -2.4671563693     0.0147709890
 ----------------------------------------------------------------

   15    -765.8625220592      3.39E-09 Convergence criterion met
 Total energy in the final basis set = -765.8625220592

                    Orbital Energies (a.u.)
 --------------------------------------------------------------

 Alpha MOs
 -- Occupied --
-19.177 -19.167 -19.131 -19.120 -19.111 -10.308 -10.302 -10.240
-10.232 -10.229 -10.222 -10.207 -10.203 -10.183 -10.180  -1.118
 -1.108  -1.064  -1.031  -1.023  -0.831  -0.785  -0.777  -0.738
 -0.725  -0.654  -0.605  -0.597  -0.577  -0.559  -0.546  -0.520
 -0.504  -0.492  -0.487  -0.485  -0.478  -0.471  -0.459  -0.431
 -0.421  -0.420  -0.412  -0.397  -0.385  -0.374  -0.368  -0.366
 -0.360  -0.358  -0.339  -0.333  -0.320  -0.307  -0.291  -0.281
 -0.273

          Ground-State Mulliken Net Atomic Charges

     Atom                 Charge (a.u.)
  ----------------------------------------
      1 C                     0.031617
      2 C                     0.100364
      3 C                    -0.645181
      4 C                    -0.402588
      5 O                    -0.028963
      6 O                    -0.202540
      7 O                    -0.045451
      8 O                    -0.220353
      9 C                    -0.191687
     10 C                    -0.237283
     11 C                     0.351363
     12 C                    -0.464458
     13 C                    -0.470882
     14 C                    -0.140699
     15 O                    -0.141210
     16 H                     0.283963
     17 H                     0.235194
     18 H                     0.190402
     19 H                     0.184423
     20 H                     0.267525
     21 H                     0.179837
     22 H                     0.123971
     23 H                     0.192259
     24 H                     0.125424
     25 H                     0.286567
     26 H                     0.165822
     27 H                     0.149000
     28 H                     0.151112
     29 H                     0.172451
  ----------------------------------------
  Sum of atomic charges =     0.000000

                    Cartesian Multipole Moments
 -----------------------------------------------------------------
    Charge (ESU x 10^10)
                 0.0000
    Dipole Moment (Debye)
         X       0.0200      Y      -2.1078      Z      -3.7295
       Tot       4.2840
    Quadrupole Moments (Debye-Ang)
        XX     -76.8344     XY       2.2972     YY     -83.5014
        XZ      -0.8433     YZ      -5.1621     ZZ     -95.2073

 Frequency:        25.55                  61.10                  84.34
 Force Cnst:      0.0018                 0.0080                 0.0176
 Red. Mass:       4.7965                 3.6203                 4.2076
 IR Intens:        0.505                  0.665                  3.897
 Frequency:        86.98                 106.96                 133.19
 Force Cnst:      0.0142                 0.0088                 0.0178
 Red. Mass:       3.1852                 1.3000                 1.7054
 IR Intens:        0.487                  1.008                  0.296
 Frequency:       138.78                 144.02                 196.74
 Force Cnst:      0.0200                 0.0405                 0.0969
 Red. Mass:       1.7655                 3.3164                 4.2505
 IR Intens:        0.842                  2.229                  0.283
 Frequency:       216.76                 242.81                 275.74
 Force Cnst:      0.1438                 0.1163                 0.2226
 Red. Mass:       5.1961                 3.3477                 4.9697
 IR Intens:        2.401                  3.288                  8.148
 Frequency:       293.57                 328.68                 335.26
 Force Cnst:      0.1584                 0.2289                 0.2813
 Red. Mass:       3.1201                 3.5956                 4.2481
 IR Intens:        5.496                  5.357                 11.635
 Frequency:       372.69                 469.76                 563.39
 Force Cnst:      0.4725                 0.6364                 0.8181
 Red. Mass:       5.7739                 4.8946                 4.3747
 IR Intens:        9.901                  9.617                 22.115
 Frequency:       627.53                 657.88                 684.34
 Force Cnst:      1.4668                 1.1684                 1.5447
 Red. Mass:       6.3221                 4.5819                 5.5983
 IR Intens:       13.993                  1.377                  4.089
 Frequency:       741.60                 796.52                 816.06
 Force Cnst:      1.7885                 1.5709                 0.9085
 Red. Mass:       5.5195                 4.2023                 2.3154
 IR Intens:        7.591                  7.064                  5.781
 Frequency:       828.01                 835.83                 860.75
 Force Cnst:      1.3868                 1.8750                 1.6192
 Red. Mass:       3.4331                 4.5553                 3.7094
 IR Intens:       20.129                  3.488                  2.065
 Frequency:       897.65                 909.08                 915.39
 Force Cnst:      1.2619                 1.3533                 1.5242
 Red. Mass:       2.6581                 2.7793                 3.0873
 IR Intens:        3.646                 11.451                  4.241
 Frequency:       934.69                 957.52                 975.01
 Force Cnst:      1.6962                 3.0904                 1.3209
 Red. Mass:       3.2954                 5.7209                 2.3584
 IR Intens:       26.094                 33.555                 16.281
 Frequency:       984.48                1014.64                1025.61
 Force Cnst:      2.5269                 2.0327                 2.2580
 Red. Mass:       4.4251                 3.3512                 3.6433
 IR Intens:        3.859                 31.205                 17.645
 Frequency:      1067.99                1072.57                1073.72
 Force Cnst:      2.3226                 1.3392                 1.6912
 Red. Mass:       3.4562                 1.9757                 2.4897
 IR Intens:       34.756                 17.907                 17.732
 Frequency:      1162.84                1171.91                1172.88
 Force Cnst:      1.0140                 1.0791                 1.0734
 Red. Mass:       1.2728                 1.3336                 1.3244
 IR Intens:       57.442                 18.010                 20.300
 Frequency:      1177.25                1200.14                1207.95
 Force Cnst:      1.7632                 1.2885                 1.4741
 Red. Mass:       2.1593                 1.5183                 1.7147
 IR Intens:      219.104                  4.324                 91.139
 Frequency:      1211.60                1216.04                1229.81
 Force Cnst:      1.3822                 1.7557                 1.0902
 Red. Mass:       1.5981                 2.0151                 1.2235
 IR Intens:       59.275                263.722                 21.140
 Frequency:      1242.18                1248.11                1281.79
 Force Cnst:      1.3869                 1.4321                 1.2198
 Red. Mass:       1.5255                 1.5604                 1.2601
 IR Intens:       25.798                 27.029                  4.502
 Frequency:      1287.09                1314.01                1320.06
 Force Cnst:      1.5186                 1.4322                 1.4934
 Red. Mass:       1.5559                 1.4078                 1.4546
 IR Intens:       16.605                  1.724                 35.972
 Frequency:      1353.03                1372.58                1389.99
 Force Cnst:      1.6767                 1.8037                 1.9444
 Red. Mass:       1.5545                 1.6250                 1.7081
 IR Intens:       22.414                 79.444                 37.409
 Frequency:      1470.09                1470.71                1482.72
 Force Cnst:      1.5202                 1.5322                 1.3527
 Red. Mass:       1.1939                 1.2023                 1.0443
 IR Intens:       19.444                 10.115                  7.982
 Frequency:      1484.16                1489.05                1497.94
 Force Cnst:      1.3540                 1.4132                 1.3855
 Red. Mass:       1.0433                 1.0818                 1.0480
 IR Intens:       11.097                  2.266                 13.308
 Frequency:      1498.81                1510.63                1796.53
 Force Cnst:      1.3838                 1.4800                21.9677
 Red. Mass:       1.0455                 1.1007                11.5523
 IR Intens:        5.585                  6.034                 64.215
 Frequency:      1805.02                3049.50                3049.86
 Force Cnst:     21.9757                 5.6414                 5.6410
 Red. Mass:      11.4479                 1.0296                 1.0293
 IR Intens:      398.978                 24.758                 46.101
 Frequency:      3056.60                3061.56                3067.31
 Force Cnst:      5.8557                 5.9424                 5.8936
 Red. Mass:       1.0638                 1.0760                 1.0632
 IR Intens:       16.506                 14.258                 35.668
 Frequency:      3096.22                3109.92                3116.68
 Force Cnst:      6.2516                 6.2246                 6.2965
 Red. Mass:       1.1068                 1.0923                 1.1002
 IR Intens:        0.890                  8.072                 36.316
 Frequency:      3122.63                3124.84                3131.98
 Force Cnst:      6.3602                 6.3709                 6.2990
 Red. Mass:       1.1071                 1.1074                 1.0899
 IR Intens:       18.532                 15.560                 21.703
 Frequency:      3153.26                3156.19                3162.54
 Force Cnst:      6.4820                 6.4922                 6.4267
 Red. Mass:       1.1065                 1.1062                 1.0906
 IR Intens:       14.096                 14.358                  5.594

 STANDARD THERMODYNAMIC QUANTITIES AT   298.15 K  AND     1.00 ATM

   This Molecule has  0 Imaginary Frequencies
   Zero point vibrational energy:      149.072 kcal/mol

   Atom    1 Element C  Has Mass   12.00000
   Atom    2 Element C  Has Mass   12.00000
   Atom    3 Element C  Has Mass   12.00000
   Atom    4 Element C  Has Mass   12.00000
   Atom    5 Element O  Has Mass   15.99491
   Atom    6 Element O  Has Mass   15.99491
   Atom    7 Element O  Has Mass   15.99491
   Atom    8 Element O  Has Mass   15.99491
   Atom    9 Element C  Has Mass   12.00000
   Atom   10 Element C  Has Mass   12.00000
   Atom   11 Element C  Has Mass   12.00000
   Atom   12 Element C  Has Mass   12.00000
   Atom   13 Element C  Has Mass   12.00000
   Atom   14 Element C  Has Mass   12.00000
   Atom   15 Element O  Has Mass   15.99491
   Atom   16 Element H  Has Mass    1.00783
   Atom   17 Element H  Has Mass    1.00783
   Atom   18 Element H  Has Mass    1.00783
   Atom   19 Element H  Has Mass    1.00783
   Atom   20 Element H  Has Mass    1.00783
   Atom   21 Element H  Has Mass    1.00783
   Atom   22 Element H  Has Mass    1.00783
   Atom   23 Element H  Has Mass    1.00783
   Atom   24 Element H  Has Mass    1.00783
   Atom   25 Element H  Has Mass    1.00783
   Atom   26 Element H  Has Mass    1.00783
   Atom   27 Element H  Has Mass    1.00783
   Atom   28 Element H  Has Mass    1.00783
   Atom   29 Element H  Has Mass    1.00783
   Molecular Mass:   214.084170 amu
   Principal axes and moments of inertia in amu*Bohr^2:
                             1           2           3
    Eigenvalues --     2459.52871  2964.17476  4690.24206
          X               0.99987     0.01247    -0.00995
          Y              -0.01255     0.99989    -0.00750
          Z               0.00986     0.00763     0.99992
   Rotational Symmetry Number is   1
   The Molecule is an Asymmetric Top
   Translational Enthalpy:        0.889 kcal/mol
   Rotational Enthalpy:           0.889 kcal/mol
   Vibrational Enthalpy:        156.329 kcal/mol
   gas constant (RT):             0.592 kcal/mol
   Translational Entropy:        41.987  cal/mol.K
   Rotational Entropy:           31.903  cal/mol.K
   Vibrational Entropy:          47.882  cal/mol.K

   Total Enthalpy:              158.699 kcal/mol
   Total Entropy:               121.772  cal/mol.K

 Total job time:  7415.49s(wall), 39750.42s(cpu)
        *  Thank you very much for using Q-Chem.  Have a nice day.  *
