 Q-Chem 5.0, Q-Chem, Inc., Pleasanton, CA (2017)
 Q-Chem 5.0.0 for Intel X86 EM64T Linux

User input:
--------------------------------------------------------------
$molecule
0  1
C    0.711  -1.958   0.589
C   -0.299  -1.995   1.756
C    1.089  -0.603   0.022
C   -0.528  -0.668   2.454
O    2.255  -0.726  -0.682
O    0.458   0.435   0.138
O    0.672  -0.221   2.944
O   -1.603  -0.140   2.687
C    0.580   1.027   3.634
C    2.698   0.490  -1.286
C   -0.031  -2.720  -0.508
C   -0.144  -4.202  -0.153
C   -1.210  -4.188   0.944
C   -1.515  -2.680   1.086
O   -1.391  -2.278  -0.299
H    1.639  -2.461   0.888
H    0.068  -2.659   2.552
H   -0.050   0.928   4.523
H    1.951   0.864  -1.993
H   -0.511  -4.776  -1.011
H    0.804  -4.638   0.173
H   -2.087  -4.746   0.595
H   -0.869  -4.649   1.876
H    1.587   1.311   3.953
H    0.196   1.807   2.969
H    3.619   0.278  -1.837
H    2.918   1.240  -0.519
H    0.300  -2.531  -1.532
C   -2.908  -2.427   1.624
H   -3.642  -3.061   1.114
H   -2.968  -2.632   2.696
H   -3.235  -1.402   1.426
$end

$opt
CONSTRAINT
tors    2    1    3    5    162.3
tors    1    2    4    7    -60.0
ENDCONSTRAINT
$end

$rem
JOBTYPE                   OPT
METHOD                    B3LYP
DFT_D                     D3_OP
BASIS                     STO-3G
GEOM_OPT_MAX_CYCLES       500
SYMMETRY                  False
THRESH                    12
SCF_CONVERGENCE           8
MAX_SUB_FILE_NUM          128
MEM_STATIC                400
MEM_TOTAL                 4000
$end

--------------------------------------------------------------

   14    -794.5514909720      6.56E-09 Convergence criterion met
 Total energy in the final basis set = -794.5514909720
   13    -794.5826344822      3.19E-09 Convergence criterion met
 Total energy in the final basis set = -794.5826344822
   13    -794.5888689291      3.79E-09 Convergence criterion met
 Total energy in the final basis set = -794.5888689291
   12    -794.5894607741      4.80E-09 Convergence criterion met
 Total energy in the final basis set = -794.5894607741
   11    -794.5896404405      6.45E-09 Convergence criterion met
 Total energy in the final basis set = -794.5896404405
   11    -794.5897738478      3.92E-09 Convergence criterion met
 Total energy in the final basis set = -794.5897738478
   11    -794.5899140430      4.89E-09 Convergence criterion met
 Total energy in the final basis set = -794.5899140430
   11    -794.5901242778      5.88E-09 Convergence criterion met
 **  OPTIMIZATION CONVERGED  **
 Total job time:  51.71s(wall), 1216.87s(cpu)
        *  Thank you very much for using Q-Chem.  Have a nice day.  *

User input: 2 of 3

nid00665 10.128.2
Q-Chem Developer Version! Running on 10.128.2.*
                  Welcome to Q-Chem
     A Quantum Leap Into The Future Of Chemistry

 Q-Chem 5.0, Q-Chem, Inc., Pleasanton, CA (2017)

 Yihan Shao,  Zhengting Gan,  E. Epifanovsky,  A. T. B. Gilbert,  M. Wormit,
 J. Kussmann,  A. W. Lange,  A. Behn,  Jia Deng,  Xintian Feng,  D. Ghosh,
 M. Goldey,  P. R. Horn,  L. D. Jacobson,  I. Kaliman,  T. Kus,  A. Landau,
 Jie Liu,  E. I. Proynov,  R. M. Richard,  R. P. Steele,  E. J. Sundstrom,
 H. L. Woodcock III,  P. M. Zimmerman,  D. Zuev,  B. Albrecht,  E. Alguire,
 S. A. Baeppler,  Z. Benda,  Y. A. Bernard,  E. J. Berquist,  K. B. Bravaya,
 D. Casanova,  Chun-Min Chang,  Yunqing Chen,  A. Chien,  K. D. Closser,
 M. P. Coons,  S. Dasgupta,  M. Diedenhofen,  Hainam Do,  R. G. Edgar,
 Po-Tung Fang,  S. Fatehi,  Qingguo Feng,  Qinghui Ge,  A. Ghysels,
 J. Gomes,  J. Gonthier,  A. Gunina,  M. W. D. Hanson-Heine,
 P. H. P. Harbach,  A. W. Hauser,  J. E. Herr,  E. G. Hohenstein,
 Z. C. Holden,  Kerwin Hui,  T.-C. Jagau,  Hyunjun Ji,  B. Kaduk,
 K. Khistyaev,  Jaehoon Kim,  P. Klunzinger,  K. Koh,  D. Kosenkov,
 T. Kowalczyk,  C. M. Krauter,  A. Kunitsa,  Ka Un Lao,  A. Laurent,
 K. V. Lawler,  Joonho Lee,  D. Lefrancois,  S. Lehtola,  D. S. Levine,
 Yi-Pei Li,  You-Sheng Lin,  Fenglai Liu,  E. Livshits,  A. Luenser,
 P. Manohar,  E. Mansoor,  S. F. Manzer,  Shan-Ping Mao,  Yuezhi Mao,
 N. Mardirossian,  A. V. Marenich,  L. A. Martinez-Martinez,  S. A. Maurer,
 N. J. Mayhall,  S. C. McKenzie,  J.-M. Mewes,  A. F. Morrison,  K. Nanda,
 T. S. Nguyen-Beck,  R. Olivares-Amaya,  J. A. Parkhill,  T. M. Perrine,
 F. Plasser,  S. Prager,  A. Prociuk,  D. R. Rehn,  F. Rob,  M. Schneider,
 N. Sergueev,  S. M. Sharada,  S. Sharma,  D. W. Small,  T. Stauch,
 T. Stein,  Yu-Chuan Su,  A. J. W. Thom,  T. Tsuchimochi,  L. Vogt,
 O. Vydrov,  M. A. Watson,  J. Wenzel,  M. de Wergifosse,  T. A. Wesolowski,
 A. White,  J. Witte,  A. Yamada,  Jun Yang,  K. Yao,  S. Yeganeh,
 S. R. Yost,  Zhi-Qiang You,  A. Zech,  Igor Ying Zhang,  Xing Zhang,
 Yan Zhao,  Ying Zhu,  B. R. Brooks,  G. K. L. Chan,  C. J. Cramer,
 M. S. Gordon,  W. J. Hehre,  A. Klamt,  M. W. Schmidt,  C. D. Sherrill,
 D. G. Truhlar,  A. Aspuru-Guzik,  R. Baer,  A. T. Bell,  N. A. Besley,
 Jeng-Da Chai,  A. Dreuw,  B. D. Dunietz,  T. R. Furlani,  Chao-Ping Hsu,
 Yousung Jung,  Jing Kong,  D. S. Lambrecht,  WanZhen Liang,  C. Ochsenfeld,
 V. A. Rassolov,  L. V. Slipchenko,  J. E. Subotnik,  T. Van Voorhis,
 J. M. Herbert,  A. I. Krylov,  P. M. W. Gill,  M. Head-Gordon

 Contributors to earlier versions of Q-Chem not listed above:
 R. D. Adamson,  B. Austin,  J. Baker,  G. J. O. Beran,  K. Brandhorst,
 S. T. Brown,  E. F. C. Byrd,  A. K. Chakraborty,  C.-L. Cheng,
 Siu Hung Chien,  D. M. Chipman,  D. L. Crittenden,  H. Dachsel,
 R. A. DiStasio Jr.,  R. J. Doerksen,  A. D. Dutoi,  L. Fusti-Molnar,
 W. A. Goddard III,  A. Golubeva-Zadorozhnaya,  S. R. Gwaltney,  G. Hawkins,
 A. Heyden,  S. Hirata,  G. Kedziora,  F. J. Keil,  C. Kelley,  Jihan Kim,
 R. A. King,  R. Z. Khaliullin,  P. P. Korambath,  W. Kurlancheek,
 A. M. Lee,  M. S. Lee,  S. V. Levchenko,  Ching Yeh Lin,  D. Liotard,
 R. C. Lochan,  I. Lotan,  P. E. Maslen,  N. Nair,  D. P. O'Neill,
 D. Neuhauser,  E. Neuscamman,  C. M. Oana,  R. Olson,  B. Peters,
 R. Peverati,  P. A. Pieniazek,  Y. M. Rhee,  J. Ritchie,  M. A. Rohrdanz,
 E. Rosta,  N. J. Russ,  H. F. Schaefer III,  N. E. Schultz,  N. Shenvi,
 A. C. Simmonett,  A. Sodt,  D. Stuck,  K. S. Thanthiriwatte,  V. Vanovschi,
 Tao Wang,  A. Warshel,  C. F. Williams,  Q. Wu,  X. Xu,  W. Zhang

 Please cite Q-Chem as follows:
 Y. Shao et al., Mol. Phys. 113, 184-215 (2015)
 DOI: 10.1080/00268976.2014.952696

 Q-Chem 5.0.0 for Intel X86 EM64T Linux

 Parts of Q-Chem use Armadillo 5.200.1 (Boston Tea Smuggler).
 http://arma.sourceforge.net/

 Q-Chem begins on Wed Oct  4 17:38:07 2017

Host: nid00665
0

     Scratch files written to /global/cscratch1/sd/junteng/scratch/14/opt_1101oo.save//
The previous job contains 0 fragments, simply inherited here

Checking the input file for inconsistencies... 	...done.

--------------------------------------------------------------
User input:
--------------------------------------------------------------

$molecule
   read
$end

$rem
JOBTYPE                   OPT
METHOD                    B3LYP
DFT_D                     D3_OP
BASIS                     6-311++G(d,p)
GEOM_OPT_MAX_CYCLES       500
GEOM_OPT_TOL_GRADIENT     1
GEOM_OPT_TOL_DISPLACEMENT 1
GEOM_OPT_TOL_ENERGY       1
SYMMETRY                  False
THRESH                    12
SCF_CONVERGENCE           8
MAX_SUB_FILE_NUM          128
MEM_STATIC                400
MEM_TOTAL                 4000
$end

--------------------------------------------------------------

    9    -805.1940559942      4.84E-09 Convergence criterion met
 Total energy in the final basis set = -805.1940559942
    8    -805.1940560894      8.01E-09 Convergence criterion met
 Total energy in the final basis set = -805.1940560894
    7    -805.1940560443      9.32E-09 Convergence criterion met
 Total energy in the final basis set = -805.1940560443
    7    -805.1940560295      4.90E-09 Convergence criterion met
 Total energy in the final basis set = -805.1940560295
    5    -805.1940560407      5.26E-09 Convergence criterion met
 Total energy in the final basis set = -805.1940560407
    4    -805.1940560375      8.09E-09 Convergence criterion met
 Total energy in the final basis set = -805.1940560375
 Final energy is   -805.194056037509
        *  Thank you very much for using Q-Chem.  Have a nice day.  *
 Q-Chem 5.0, Q-Chem, Inc., Pleasanton, CA (2017)
 Q-Chem 5.0.0 for Intel X86 EM64T Linux

             Standard Nuclear Orientation (Angstroms)
    I     Atom           X                Y                Z
 ----------------------------------------------------------------
    1      C      -0.0491902380     0.8273838280     0.6263837258
    2      C       0.6587936055    -0.5674329628     0.5969110386
    3      C      -1.3334011804     0.9261319367    -0.1680254645
    4      C      -0.2316109388    -1.7151125320     0.1441226280
    5      O      -2.0731530102     1.9678608431     0.2778981814
    6      O      -1.6578670220     0.2357964504    -1.1007742998
    7      O      -1.3047942025    -1.7807265758     0.9710062904
    8      O      -0.0291844028    -2.5074773942    -0.7367233537
    9      C      -2.3082026647    -2.7489697673     0.6156160839
   10      C      -3.2929727211     2.2248602979    -0.4434420570
   11      C       1.0365476112     1.7066077450    -0.0681042720
   12      C       2.2386598864     1.8818423199     0.8847557826
   13      C       2.9186707367     0.4904818351     0.7533303107
   14      C       1.9607472554    -0.2513691636    -0.2220268827
   15      O       1.5324597719     0.8334487996    -1.0780982112
   16      H      -0.2507760088     1.1710789785     1.6398381143
   17      H       0.9301187983    -0.8304508621     1.6231591930
   18      H      -1.8928647513    -3.7577412920     0.6300825700
   19      H      -3.0781276748     2.4523172384    -1.4886478634
   20      H       2.8904900873     2.6803550587     0.5273515001
   21      H       1.9315642841     2.1257727155     1.9037089358
   22      H       3.9051245630     0.5750866454     0.2949313101
   23      H       3.0324308223    -0.0308378868     1.7058355342
   24      H      -3.0895236951    -2.6461789640     1.3658450017
   25      H      -2.6972202292    -2.5292498409    -0.3797208939
   26      H      -3.7474363980     3.0807268368     0.0507205017
   27      H      -3.9532762209     1.3577006273    -0.3942116941
   28      H       0.6537583713     2.6206698264    -0.5177808199
   29      C       2.6138336285    -1.3435319581    -1.0391527686
   30      H       3.5131994449    -0.9433561122    -1.5134010057
   31      H       2.9035631318    -2.1784526591    -0.3960182413
   32      H       1.9380365161    -1.7240067666    -1.8003697479
 ----------------------------------------------------------------

   15    -805.1940750324      3.66E-09 Convergence criterion met
 Total energy in the final basis set = -805.1940750324

                    Orbital Energies (a.u.)
 --------------------------------------------------------------

 Alpha MOs
 -- Occupied --
-19.177 -19.166 -19.128 -19.119 -19.111 -10.308 -10.303 -10.238
-10.238 -10.232 -10.222 -10.205 -10.203 -10.181 -10.177 -10.154
 -1.118  -1.107  -1.062  -1.030  -1.022  -0.831  -0.793  -0.780
 -0.748  -0.723  -0.686  -0.650  -0.603  -0.594  -0.569  -0.553
 -0.532  -0.510  -0.504  -0.491  -0.489  -0.482  -0.477  -0.471
 -0.458  -0.436  -0.425  -0.420  -0.417  -0.407  -0.394  -0.377
 -0.373  -0.369  -0.365  -0.359  -0.359  -0.349  -0.335  -0.328
 -0.319  -0.307  -0.290  -0.275  -0.271

          Ground-State Mulliken Net Atomic Charges

     Atom                 Charge (a.u.)
  ----------------------------------------
      1 C                     0.038536
      2 C                     0.301347
      3 C                    -0.919899
      4 C                    -0.432666
      5 O                    -0.011353
      6 O                    -0.187773
      7 O                    -0.018926
      8 O                    -0.188704
      9 C                    -0.180661
     10 C                    -0.230761
     11 C                     0.467707
     12 C                    -0.454455
     13 C                    -0.461401
     14 C                    -0.289906
     15 O                    -0.051893
     16 H                     0.289554
     17 H                     0.249814
     18 H                     0.165894
     19 H                     0.184076
     20 H                     0.184020
     21 H                     0.121379
     22 H                     0.173747
     23 H                     0.142920
     24 H                     0.148966
     25 H                     0.189777
     26 H                     0.150963
     27 H                     0.170173
     28 H                     0.277586
     29 C                    -0.337943
     30 H                     0.143196
     31 H                     0.157968
     32 H                     0.208717
  ----------------------------------------
  Sum of atomic charges =     0.000000

                    Cartesian Multipole Moments
 -----------------------------------------------------------------
    Charge (ESU x 10^10)
                 0.0000
    Dipole Moment (Debye)
         X      -0.8218      Y       1.9608      Z       3.4263
       Tot       4.0324
    Quadrupole Moments (Debye-Ang)
        XX     -82.7515     XY      -0.7725     YY     -91.7386
        XZ       2.3245     YZ      -4.4228     ZZ    -100.3291

 Frequency:        25.25                  34.08                  78.56
 Force Cnst:      0.0014                 0.0031                 0.0070
 Red. Mass:       3.6453                 4.5398                 1.9374
 IR Intens:        0.129                  0.576                  0.182
 Frequency:        84.01                 111.12                 124.33
 Force Cnst:      0.0145                 0.0130                 0.0214
 Red. Mass:       3.4783                 1.7931                 2.3542
 IR Intens:        4.906                  0.036                  1.062
 Frequency:       144.47                 153.74                 189.04
 Force Cnst:      0.0471                 0.0187                 0.0737
 Red. Mass:       3.8326                 1.3445                 3.4982
 IR Intens:        1.959                  0.315                  0.442
 Frequency:       213.93                 232.27                 246.82
 Force Cnst:      0.1155                 0.0795                 0.0489
 Red. Mass:       4.2845                 2.5015                 1.3621
 IR Intens:        1.496                  4.158                  1.669
 Frequency:       268.00                 294.51                 317.47
 Force Cnst:      0.1726                 0.2538                 0.1695
 Red. Mass:       4.0781                 4.9674                 2.8546
 IR Intens:        3.670                  3.970                  8.768
 Frequency:       328.87                 343.94                 359.37
 Force Cnst:      0.1876                 0.3069                 0.2065
 Red. Mass:       2.9445                 4.4031                 2.7132
 IR Intens:        0.033                 13.095                  2.913
 Frequency:       378.67                 476.80                 574.27
 Force Cnst:      0.4108                 0.5341                 0.7243
 Red. Mass:       4.8630                 3.9872                 3.7276
 IR Intens:        8.429                 13.578                 17.241
 Frequency:       606.50                 644.61                 663.85
 Force Cnst:      1.1216                 1.1712                 1.1144
 Red. Mass:       5.1750                 4.7839                 4.2920
 IR Intens:       11.276                  4.321                  0.200
 Frequency:       699.92                 750.40                 802.17
 Force Cnst:      1.7660                 1.7321                 1.3459
 Red. Mass:       6.1185                 5.2207                 3.5501
 IR Intens:        4.285                  4.609                  5.136
 Frequency:       814.01                 831.34                 841.64
 Force Cnst:      0.9699                 1.7260                 1.6518
 Red. Mass:       2.4844                 4.2388                 3.9578
 IR Intens:       10.694                 12.750                 11.005
 Frequency:       858.58                 898.59                 904.51
 Force Cnst:      1.2448                 1.2060                 1.3161
 Red. Mass:       2.8661                 2.5349                 2.7302
 IR Intens:       10.346                  6.983                  3.469
 Frequency:       915.40                 933.87                 967.40
 Force Cnst:      1.2165                 1.5841                 2.3660
 Red. Mass:       2.4641                 3.0828                 4.2909
 IR Intens:       12.476                  5.902                  2.999
 Frequency:       973.98                 993.85                1011.56
 Force Cnst:      2.0011                 1.7416                 2.4576
 Red. Mass:       3.5803                 2.9926                 4.0763
 IR Intens:       14.752                 14.137                 41.880
 Frequency:      1036.21                1061.82                1074.06
 Force Cnst:      1.1861                 2.5289                 1.7215
 Red. Mass:       1.8749                 3.8070                 2.5328
 IR Intens:       25.709                 59.436                 22.130
 Frequency:      1123.82                1137.66                1171.05
 Force Cnst:      1.3717                 1.2776                 1.1002
 Red. Mass:       1.8434                 1.6754                 1.3616
 IR Intens:       30.951                 14.010                 25.284
 Frequency:      1171.32                1178.93                1189.09
 Force Cnst:      1.0407                 1.9279                 1.6893
 Red. Mass:       1.2874                 2.3543                 2.0278
 IR Intens:        3.618                182.952                298.572
 Frequency:      1201.95                1204.71                1211.23
 Force Cnst:      1.3550                 1.3909                 1.3433
 Red. Mass:       1.5919                 1.6266                 1.5541
 IR Intens:       12.258                 42.326                 20.739
 Frequency:      1212.89                1216.83                1249.72
 Force Cnst:      1.5258                 1.5362                 1.3999
 Red. Mass:       1.7604                 1.7609                 1.5214
 IR Intens:      141.924                 79.462                 14.384
 Frequency:      1255.06                1290.56                1317.37
 Force Cnst:      1.1759                 1.8482                 1.4607
 Red. Mass:       1.2670                 1.8834                 1.4286
 IR Intens:        3.924                  8.497                 17.030
 Frequency:      1325.22                1336.38                1362.46
 Force Cnst:      1.6340                 2.0334                 1.7468
 Red. Mass:       1.5792                 1.9325                 1.5971
 IR Intens:       19.982                 10.165                 84.831
 Frequency:      1388.94                1431.12                1466.16
 Force Cnst:      1.9213                 1.5972                 1.5002
 Red. Mass:       1.6904                 1.3236                 1.1845
 IR Intens:       49.322                 14.952                 12.547
 Frequency:      1469.02                1481.84                1483.11
 Force Cnst:      1.5287                 1.3534                 1.3902
 Red. Mass:       1.2023                 1.0461                 1.0727
 IR Intens:       15.979                  8.124                  1.830
 Frequency:      1484.12                1490.94                1497.15
 Force Cnst:      1.3557                 1.3854                 1.3806
 Red. Mass:       1.0446                 1.0578                 1.0454
 IR Intens:       11.194                  2.275                 11.807
 Frequency:      1498.98                1500.09                1508.73
 Force Cnst:      1.3872                 1.3957                 1.4734
 Red. Mass:       1.0479                 1.0527                 1.0986
 IR Intens:       10.864                  9.096                  6.254
 Frequency:      1795.26                1811.36                3044.57
 Force Cnst:     21.6561                22.1924                 5.6833
 Red. Mass:      11.4045                11.4800                 1.0406
 IR Intens:       89.373                349.509                 19.068
 Frequency:      3048.69                3049.73                3055.12
 Force Cnst:      5.6372                 5.6422                 5.8724
 Red. Mass:       1.0294                 1.0296                 1.0678
 IR Intens:       33.797                 37.277                 13.328
 Frequency:      3059.92                3067.32                3093.81
 Force Cnst:      5.9110                 5.8879                 6.2450
 Red. Mass:       1.0715                 1.0622                 1.1074
 IR Intens:       22.111                 37.881                  0.593
 Frequency:      3102.55                3110.18                3116.45
 Force Cnst:      6.2497                 6.2476                 6.2721
 Red. Mass:       1.1020                 1.0962                 1.0961
 IR Intens:       12.553                 17.529                 37.607
 Frequency:      3122.38                3123.64                3128.35
 Force Cnst:      6.3590                 6.3654                 6.2856
 Red. Mass:       1.1070                 1.1073                 1.0901
 IR Intens:       19.128                 15.314                 23.660
 Frequency:      3152.60                3157.09                3164.36
 Force Cnst:      6.4788                 6.4970                 6.4729
 Red. Mass:       1.1064                 1.1063                 1.0972
 IR Intens:       14.471                 14.497                  2.822

 STANDARD THERMODYNAMIC QUANTITIES AT   298.15 K  AND     1.00 ATM

   This Molecule has  0 Imaginary Frequencies
   Zero point vibrational energy:      166.293 kcal/mol

   Atom    1 Element C  Has Mass   12.00000
   Atom    2 Element C  Has Mass   12.00000
   Atom    3 Element C  Has Mass   12.00000
   Atom    4 Element C  Has Mass   12.00000
   Atom    5 Element O  Has Mass   15.99491
   Atom    6 Element O  Has Mass   15.99491
   Atom    7 Element O  Has Mass   15.99491
   Atom    8 Element O  Has Mass   15.99491
   Atom    9 Element C  Has Mass   12.00000
   Atom   10 Element C  Has Mass   12.00000
   Atom   11 Element C  Has Mass   12.00000
   Atom   12 Element C  Has Mass   12.00000
   Atom   13 Element C  Has Mass   12.00000
   Atom   14 Element C  Has Mass   12.00000
   Atom   15 Element O  Has Mass   15.99491
   Atom   16 Element H  Has Mass    1.00783
   Atom   17 Element H  Has Mass    1.00783
   Atom   18 Element H  Has Mass    1.00783
   Atom   19 Element H  Has Mass    1.00783
   Atom   20 Element H  Has Mass    1.00783
   Atom   21 Element H  Has Mass    1.00783
   Atom   22 Element H  Has Mass    1.00783
   Atom   23 Element H  Has Mass    1.00783
   Atom   24 Element H  Has Mass    1.00783
   Atom   25 Element H  Has Mass    1.00783
   Atom   26 Element H  Has Mass    1.00783
   Atom   27 Element H  Has Mass    1.00783
   Atom   28 Element H  Has Mass    1.00783
   Atom   29 Element C  Has Mass   12.00000
   Atom   30 Element H  Has Mass    1.00783
   Atom   31 Element H  Has Mass    1.00783
   Atom   32 Element H  Has Mass    1.00783
   Molecular Mass:   228.099830 amu
   Principal axes and moments of inertia in amu*Bohr^2:
                             1           2           3
    Eigenvalues --     2653.56400  3418.93712  5127.39946
          X               0.99998    -0.00312     0.00562
          Y               0.00310     0.99999     0.00238
          Z              -0.00563    -0.00237     0.99998
   Rotational Symmetry Number is   1
   The Molecule is an Asymmetric Top
   Translational Enthalpy:        0.889 kcal/mol
   Rotational Enthalpy:           0.889 kcal/mol
   Vibrational Enthalpy:        174.466 kcal/mol
   gas constant (RT):             0.592 kcal/mol
   Translational Entropy:        42.176  cal/mol.K
   Rotational Entropy:           32.209  cal/mol.K
   Vibrational Entropy:          53.852  cal/mol.K

   Total Enthalpy:              176.836 kcal/mol
   Total Entropy:               128.236  cal/mol.K

 Total job time:  10618.20s(wall), 59468.84s(cpu)
        *  Thank you very much for using Q-Chem.  Have a nice day.  *
