 Q-Chem 5.0, Q-Chem, Inc., Pleasanton, CA (2017)
 Q-Chem 5.0.0 for Intel X86 EM64T Linux

User input:
--------------------------------------------------------------
$molecule
0  1
C    0.355  -2.424   0.293
C   -0.264  -2.685   1.524
C    0.749  -1.045  -0.086
C   -0.385  -1.681   2.598
O    1.805  -1.090  -0.938
O    0.175  -0.038   0.291
O    0.833  -1.128   2.820
O   -1.397  -1.517   3.259
C    0.836  -0.152   3.862
C    2.258   0.195  -1.365
C    0.489  -3.469  -0.639
C    0.011  -4.748  -0.345
C   -0.620  -4.996   0.872
C   -0.760  -3.969   1.804
H    0.142   0.662   3.629
H    1.480   0.699  -1.947
H   -1.003  -5.990   1.096
H    0.581  -0.616   4.820
H    1.845   0.263   3.935
H    3.132   0.050  -2.006
H    2.557   0.804  -0.506
H    0.116  -5.548  -1.075
H   -1.248  -4.169   2.757
H    0.945  -3.290  -1.611
$end

$opt
CONSTRAINT
tors    2    1    3    5    155.0
tors    1    2    4    7    -55.0
ENDCONSTRAINT
$end

$rem
JOBTYPE                   OPT
METHOD                    B3LYP
DFT_D                     D3_OP
BASIS                     STO-3G
GEOM_OPT_MAX_CYCLES       500
SYMMETRY                  False
THRESH                    12
SCF_CONVERGENCE           8
MAX_SUB_FILE_NUM          128
MEM_STATIC                400
MEM_TOTAL                 4000
$end

--------------------------------------------------------------

   15    -679.0688361291      6.94E-09 Convergence criterion met
 Total energy in the final basis set = -679.0688361291
   14    -679.0942777413      5.40E-09 Convergence criterion met
 Total energy in the final basis set = -679.0942777413
   14    -679.0966917236      1.93E-09 Convergence criterion met
 Total energy in the final basis set = -679.0966917236
   12    -679.0969826807      6.87E-09 Convergence criterion met
 Total energy in the final basis set = -679.0969826807
   11    -679.0970165102      6.76E-09 Convergence criterion met
 Total energy in the final basis set = -679.0970165102
   11    -679.0970362698      5.57E-09 Convergence criterion met
 Total energy in the final basis set = -679.0970362698
   11    -679.0970421640      7.27E-10 Convergence criterion met
 Total energy in the final basis set = -679.0970421640
   11    -679.0970511394      1.94E-09 Convergence criterion met
 **  OPTIMIZATION CONVERGED  **
 Total job time:  29.15s(wall), 681.01s(cpu)
        *  Thank you very much for using Q-Chem.  Have a nice day.  *

User input: 2 of 3

nid04366 10.128.17
Q-Chem Developer Version! Running on 10.128.17.*
                  Welcome to Q-Chem
     A Quantum Leap Into The Future Of Chemistry

 Q-Chem 5.0, Q-Chem, Inc., Pleasanton, CA (2017)

 Yihan Shao,  Zhengting Gan,  E. Epifanovsky,  A. T. B. Gilbert,  M. Wormit,
 J. Kussmann,  A. W. Lange,  A. Behn,  Jia Deng,  Xintian Feng,  D. Ghosh,
 M. Goldey,  P. R. Horn,  L. D. Jacobson,  I. Kaliman,  T. Kus,  A. Landau,
 Jie Liu,  E. I. Proynov,  R. M. Richard,  R. P. Steele,  E. J. Sundstrom,
 H. L. Woodcock III,  P. M. Zimmerman,  D. Zuev,  B. Albrecht,  E. Alguire,
 S. A. Baeppler,  Z. Benda,  Y. A. Bernard,  E. J. Berquist,  K. B. Bravaya,
 D. Casanova,  Chun-Min Chang,  Yunqing Chen,  A. Chien,  K. D. Closser,
 M. P. Coons,  S. Dasgupta,  M. Diedenhofen,  Hainam Do,  R. G. Edgar,
 Po-Tung Fang,  S. Fatehi,  Qingguo Feng,  Qinghui Ge,  A. Ghysels,
 J. Gomes,  J. Gonthier,  A. Gunina,  M. W. D. Hanson-Heine,
 P. H. P. Harbach,  A. W. Hauser,  J. E. Herr,  E. G. Hohenstein,
 Z. C. Holden,  Kerwin Hui,  T.-C. Jagau,  Hyunjun Ji,  B. Kaduk,
 K. Khistyaev,  Jaehoon Kim,  P. Klunzinger,  K. Koh,  D. Kosenkov,
 T. Kowalczyk,  C. M. Krauter,  A. Kunitsa,  Ka Un Lao,  A. Laurent,
 K. V. Lawler,  Joonho Lee,  D. Lefrancois,  S. Lehtola,  D. S. Levine,
 Yi-Pei Li,  You-Sheng Lin,  Fenglai Liu,  E. Livshits,  A. Luenser,
 P. Manohar,  E. Mansoor,  S. F. Manzer,  Shan-Ping Mao,  Yuezhi Mao,
 N. Mardirossian,  A. V. Marenich,  L. A. Martinez-Martinez,  S. A. Maurer,
 N. J. Mayhall,  S. C. McKenzie,  J.-M. Mewes,  A. F. Morrison,  K. Nanda,
 T. S. Nguyen-Beck,  R. Olivares-Amaya,  J. A. Parkhill,  T. M. Perrine,
 F. Plasser,  S. Prager,  A. Prociuk,  D. R. Rehn,  F. Rob,  M. Schneider,
 N. Sergueev,  S. M. Sharada,  S. Sharma,  D. W. Small,  T. Stauch,
 T. Stein,  Yu-Chuan Su,  A. J. W. Thom,  T. Tsuchimochi,  L. Vogt,
 O. Vydrov,  M. A. Watson,  J. Wenzel,  M. de Wergifosse,  T. A. Wesolowski,
 A. White,  J. Witte,  A. Yamada,  Jun Yang,  K. Yao,  S. Yeganeh,
 S. R. Yost,  Zhi-Qiang You,  A. Zech,  Igor Ying Zhang,  Xing Zhang,
 Yan Zhao,  Ying Zhu,  B. R. Brooks,  G. K. L. Chan,  C. J. Cramer,
 M. S. Gordon,  W. J. Hehre,  A. Klamt,  M. W. Schmidt,  C. D. Sherrill,
 D. G. Truhlar,  A. Aspuru-Guzik,  R. Baer,  A. T. Bell,  N. A. Besley,
 Jeng-Da Chai,  A. Dreuw,  B. D. Dunietz,  T. R. Furlani,  Chao-Ping Hsu,
 Yousung Jung,  Jing Kong,  D. S. Lambrecht,  WanZhen Liang,  C. Ochsenfeld,
 V. A. Rassolov,  L. V. Slipchenko,  J. E. Subotnik,  T. Van Voorhis,
 J. M. Herbert,  A. I. Krylov,  P. M. W. Gill,  M. Head-Gordon

 Contributors to earlier versions of Q-Chem not listed above:
 R. D. Adamson,  B. Austin,  J. Baker,  G. J. O. Beran,  K. Brandhorst,
 S. T. Brown,  E. F. C. Byrd,  A. K. Chakraborty,  C.-L. Cheng,
 Siu Hung Chien,  D. M. Chipman,  D. L. Crittenden,  H. Dachsel,
 R. A. DiStasio Jr.,  R. J. Doerksen,  A. D. Dutoi,  L. Fusti-Molnar,
 W. A. Goddard III,  A. Golubeva-Zadorozhnaya,  S. R. Gwaltney,  G. Hawkins,
 A. Heyden,  S. Hirata,  G. Kedziora,  F. J. Keil,  C. Kelley,  Jihan Kim,
 R. A. King,  R. Z. Khaliullin,  P. P. Korambath,  W. Kurlancheek,
 A. M. Lee,  M. S. Lee,  S. V. Levchenko,  Ching Yeh Lin,  D. Liotard,
 R. C. Lochan,  I. Lotan,  P. E. Maslen,  N. Nair,  D. P. O'Neill,
 D. Neuhauser,  E. Neuscamman,  C. M. Oana,  R. Olson,  B. Peters,
 R. Peverati,  P. A. Pieniazek,  Y. M. Rhee,  J. Ritchie,  M. A. Rohrdanz,
 E. Rosta,  N. J. Russ,  H. F. Schaefer III,  N. E. Schultz,  N. Shenvi,
 A. C. Simmonett,  A. Sodt,  D. Stuck,  K. S. Thanthiriwatte,  V. Vanovschi,
 Tao Wang,  A. Warshel,  C. F. Williams,  Q. Wu,  X. Xu,  W. Zhang

 Please cite Q-Chem as follows:
 Y. Shao et al., Mol. Phys. 113, 184-215 (2015)
 DOI: 10.1080/00268976.2014.952696

 Q-Chem 5.0.0 for Intel X86 EM64T Linux

 Parts of Q-Chem use Armadillo 5.200.1 (Boston Tea Smuggler).
 http://arma.sourceforge.net/

 Q-Chem begins on Wed Oct  4 18:03:12 2017

Host: nid04366
0

     Scratch files written to /global/cscratch1/sd/junteng/scratch/16/opt_10n01o-.save//
The previous job contains 0 fragments, simply inherited here

Checking the input file for inconsistencies... 	...done.

--------------------------------------------------------------
User input:
--------------------------------------------------------------

$molecule
   read
$end

$rem
JOBTYPE                   OPT
METHOD                    B3LYP
DFT_D                     D3_OP
BASIS                     6-311++G(d,p)
GEOM_OPT_MAX_CYCLES       500
GEOM_OPT_TOL_GRADIENT     1
GEOM_OPT_TOL_DISPLACEMENT 1
GEOM_OPT_TOL_ENERGY       1
SYMMETRY                  False
THRESH                    12
SCF_CONVERGENCE           8
MAX_SUB_FILE_NUM          128
MEM_STATIC                400
MEM_TOTAL                 4000
$end

--------------------------------------------------------------

    9    -688.2161042341      2.40E-09 Convergence criterion met
 Total energy in the final basis set = -688.2161042341
    8    -688.2161039240      3.08E-09 Convergence criterion met
 Total energy in the final basis set = -688.2161039240
    7    -688.2161038371      7.38E-09 Convergence criterion met
 Total energy in the final basis set = -688.2161038371
    7    -688.2161038519      2.47E-09 Convergence criterion met
 Total energy in the final basis set = -688.2161038519
    6    -688.2161038385      5.42E-09 Convergence criterion met
 Total energy in the final basis set = -688.2161038385
    5    -688.2161038376      8.10E-09 Convergence criterion met
 Total energy in the final basis set = -688.2161038376
 Final energy is   -688.216103837612
        *  Thank you very much for using Q-Chem.  Have a nice day.  *
 Q-Chem 5.0, Q-Chem, Inc., Pleasanton, CA (2017)
 Q-Chem 5.0.0 for Intel X86 EM64T Linux

             Standard Nuclear Orientation (Angstroms)
    I     Atom           X                Y                Z
 ----------------------------------------------------------------
    1      C      -0.0524556341    -0.8860424355    -0.0256640909
    2      C      -1.1130363190     0.0351744367    -0.0756849953
    3      C       1.3519723067    -0.4384802389    -0.2651765187
    4      C      -0.9058400573     1.5158079689    -0.1859562574
    5      O       2.2498082824    -1.2880722430     0.2771764249
    6      O       1.6646389608     0.5406409223    -0.9006762029
    7      O      -0.1070693719     1.9708633195     0.7946237313
    8      O      -1.4471573330     2.2149949069    -1.0065171584
    9      C       0.2664409995     3.3579380281     0.7075113928
   10      C       3.6338960267    -0.9816376728     0.0290244734
   11      C      -0.3340494153    -2.2481837828     0.1284418754
   12      C      -1.6490571733    -2.6954935024     0.2176919043
   13      C      -2.6983202245    -1.7823414347     0.1456483565
   14      C      -2.4285078740    -0.4240604394    -0.0038711811
   15      H       0.8613511278     3.5202758389    -0.1928289622
   16      H       3.8399643605    -0.9941281120    -1.0424065731
   17      H      -3.7252235472    -2.1243753530     0.2055860158
   18      H      -0.6191266812     3.9940125830     0.6822411669
   19      H       0.8582868013     3.5546602232     1.5985533079
   20      H       4.1974618084    -1.7602510396     0.5381794042
   21      H       3.8841353091     0.0007511531     0.4316067593
   22      H      -1.8523603783    -3.7541229741     0.3311695896
   23      H      -3.2384201592     0.2931855388    -0.0602745453
   24      H       0.4859112392    -2.9535086668     0.1595297242
 ----------------------------------------------------------------

   15    -688.2161343478      7.20E-09 Convergence criterion met
 Total energy in the final basis set = -688.2161343478

                    Orbital Energies (a.u.)
 --------------------------------------------------------------

 Alpha MOs
 -- Occupied --
-19.180 -19.170 -19.121 -19.115 -10.314 -10.308 -10.234 -10.224
-10.212 -10.211 -10.199 -10.199 -10.197 -10.197  -1.121  -1.112
 -1.033  -1.026  -0.887  -0.796  -0.787  -0.740  -0.729  -0.655
 -0.639  -0.594  -0.573  -0.553  -0.523  -0.503  -0.493  -0.489
 -0.486  -0.480  -0.463  -0.457  -0.435  -0.431  -0.419  -0.401
 -0.390  -0.382  -0.375  -0.372  -0.361  -0.323  -0.309  -0.298
 -0.293  -0.278  -0.270

          Ground-State Mulliken Net Atomic Charges

     Atom                 Charge (a.u.)
  ----------------------------------------
      1 C                     0.734122
      2 C                     0.314863
      3 C                    -0.365711
      4 C                    -0.666431
      5 O                    -0.066622
      6 O                    -0.213259
      7 O                    -0.002428
      8 O                    -0.210466
      9 C                    -0.245651
     10 C                    -0.236916
     11 C                    -0.081981
     12 C                    -0.199627
     13 C                    -0.193186
     14 C                    -0.302508
     15 H                     0.187715
     16 H                     0.188961
     17 H                     0.172300
     18 H                     0.167984
     19 H                     0.154326
     20 H                     0.158561
     21 H                     0.173798
     22 H                     0.174260
     23 H                     0.174575
     24 H                     0.183323
  ----------------------------------------
  Sum of atomic charges =     0.000000

                    Cartesian Multipole Moments
 -----------------------------------------------------------------
    Charge (ESU x 10^10)
                 0.0000
    Dipole Moment (Debye)
         X       1.1744      Y      -2.3182      Z       2.1977
       Tot       3.4034
    Quadrupole Moments (Debye-Ang)
        XX     -68.3170     XY       3.6305     YY     -72.6081
        XZ      -1.4890     YZ       6.4439     ZZ     -87.5838

 Frequency:        30.80                  77.96                  82.31
 Force Cnst:      0.0037                 0.0125                 0.0181
 Red. Mass:       6.5580                 3.5012                 4.5442
 IR Intens:        0.572                  0.360                  4.522
 Frequency:        94.44                 121.44                 140.64
 Force Cnst:      0.0187                 0.0167                 0.0281
 Red. Mass:       3.5666                 1.9185                 2.4091
 IR Intens:        3.459                  0.881                  2.565
 Frequency:       152.94                 164.43                 214.90
 Force Cnst:      0.0158                 0.0340                 0.1361
 Red. Mass:       1.1497                 2.1372                 5.0020
 IR Intens:        0.079                  0.849                  1.042
 Frequency:       253.15                 286.34                 307.90
 Force Cnst:      0.2162                 0.2113                 0.2918
 Red. Mass:       5.7266                 4.3749                 5.2248
 IR Intens:        1.620                  8.812                  4.240
 Frequency:       335.11                 369.37                 396.11
 Force Cnst:      0.3502                 0.5194                 0.5096
 Red. Mass:       5.2924                 6.4614                 5.5121
 IR Intens:       14.703                 10.858                  1.242
 Frequency:       425.03                 534.20                 561.19
 Force Cnst:      0.4164                 0.8885                 0.8281
 Red. Mass:       3.9125                 5.2844                 4.4628
 IR Intens:        0.808                  2.522                  4.590
 Frequency:       665.22                 703.39                 716.25
 Force Cnst:      1.6387                 1.7729                 1.6207
 Red. Mass:       6.2849                 6.0818                 5.3618
 IR Intens:        4.649                  6.536                  7.948
 Frequency:       751.13                 798.61                 814.36
 Force Cnst:      0.6761                 1.0975                 1.4930
 Red. Mass:       2.0340                 2.9208                 3.8211
 IR Intens:       79.189                 19.520                  5.617
 Frequency:       829.03                 848.08                 904.52
 Force Cnst:      2.0339                 2.1564                 0.7130
 Red. Mass:       5.0228                 5.0886                 1.4791
 IR Intens:       10.831                  1.045                  0.705
 Frequency:       975.74                 984.80                 986.78
 Force Cnst:      1.4343                 3.8929                 1.2683
 Red. Mass:       2.5571                 6.8129                 2.2108
 IR Intens:       15.254                  1.628                  6.236
 Frequency:      1004.51                1063.37                1097.16
 Force Cnst:      0.7822                 1.6567                 3.5031
 Red. Mass:       1.3156                 2.4867                 4.9393
 IR Intens:        0.440                 16.897                 95.893
 Frequency:      1144.20                1156.68                1170.55
 Force Cnst:      2.2636                 1.4867                 1.0449
 Red. Mass:       2.9346                 1.8860                 1.2944
 IR Intens:      159.860                 54.267                  1.841
 Frequency:      1170.81                1190.31                1211.57
 Force Cnst:      1.0407                 0.9333                 1.3559
 Red. Mass:       1.2885                 1.1180                 1.5677
 IR Intens:        0.469                  2.076                 39.857
 Frequency:      1216.29                1275.93                1287.06
 Force Cnst:      1.3946                 3.0655                 3.0672
 Red. Mass:       1.6000                 3.1959                 3.1426
 IR Intens:       39.036                188.337                384.648
 Frequency:      1314.09                1335.06                1467.43
 Force Cnst:      2.2166                 7.7088                 1.6384
 Red. Mass:       2.1787                 7.3407                 1.2913
 IR Intens:      174.395                 22.804                 11.743
 Frequency:      1469.21                1476.27                1483.91
 Force Cnst:      1.5251                 2.4655                 1.3555
 Red. Mass:       1.1992                 1.9201                 1.0448
 IR Intens:       20.058                  8.419                  7.593
 Frequency:      1485.54                1497.04                1497.63
 Force Cnst:      1.3597                 1.3818                 1.3844
 Red. Mass:       1.0458                 1.0465                 1.0476
 IR Intens:       11.301                 16.498                  3.607
 Frequency:      1515.98                1612.93                1636.64
 Force Cnst:      3.5845                 9.7179                 9.0410
 Red. Mass:       2.6473                 6.3400                 5.7288
 IR Intens:       12.989                 12.527                  6.433
 Frequency:      1772.18                1783.53                3050.32
 Force Cnst:     21.8467                22.2891                 5.6434
 Red. Mass:      11.8064                11.8928                 1.0294
 IR Intens:      251.766                300.776                 25.030
 Frequency:      3050.55                3123.31                3126.02
 Force Cnst:      5.6444                 6.3628                 6.3747
 Red. Mass:       1.0295                 1.1071                 1.1072
 IR Intens:       44.482                 17.314                 14.452
 Frequency:      3157.75                3157.90                3172.98
 Force Cnst:      6.4994                 6.4999                 6.4463
 Red. Mass:       1.1063                 1.1063                 1.0867
 IR Intens:       13.563                 13.202                  1.603
 Frequency:      3186.68                3198.25                3211.14
 Force Cnst:      6.5298                 6.5997                 6.6432
 Red. Mass:       1.0914                 1.0951                 1.0935
 IR Intens:        8.568                  7.549                  3.522

 STANDARD THERMODYNAMIC QUANTITIES AT   298.15 K  AND     1.00 ATM

   This Molecule has  0 Imaginary Frequencies
   Zero point vibrational energy:      116.220 kcal/mol

   Atom    1 Element C  Has Mass   12.00000
   Atom    2 Element C  Has Mass   12.00000
   Atom    3 Element C  Has Mass   12.00000
   Atom    4 Element C  Has Mass   12.00000
   Atom    5 Element O  Has Mass   15.99491
   Atom    6 Element O  Has Mass   15.99491
   Atom    7 Element O  Has Mass   15.99491
   Atom    8 Element O  Has Mass   15.99491
   Atom    9 Element C  Has Mass   12.00000
   Atom   10 Element C  Has Mass   12.00000
   Atom   11 Element C  Has Mass   12.00000
   Atom   12 Element C  Has Mass   12.00000
   Atom   13 Element C  Has Mass   12.00000
   Atom   14 Element C  Has Mass   12.00000
   Atom   15 Element H  Has Mass    1.00783
   Atom   16 Element H  Has Mass    1.00783
   Atom   17 Element H  Has Mass    1.00783
   Atom   18 Element H  Has Mass    1.00783
   Atom   19 Element H  Has Mass    1.00783
   Atom   20 Element H  Has Mass    1.00783
   Atom   21 Element H  Has Mass    1.00783
   Atom   22 Element H  Has Mass    1.00783
   Atom   23 Element H  Has Mass    1.00783
   Atom   24 Element H  Has Mass    1.00783
   Molecular Mass:   194.057940 amu
   Principal axes and moments of inertia in amu*Bohr^2:
                             1           2           3
    Eigenvalues --     2397.94531  2463.69331  4478.60754
          X               0.96224     0.27221    -0.00047
          Y              -0.27220     0.96219     0.00989
          Z               0.00315    -0.00939     0.99995
   Rotational Symmetry Number is   1
   The Molecule is an Asymmetric Top
   Translational Enthalpy:        0.889 kcal/mol
   Rotational Enthalpy:           0.889 kcal/mol
   Vibrational Enthalpy:        122.845 kcal/mol
   gas constant (RT):             0.592 kcal/mol
   Translational Entropy:        41.694  cal/mol.K
   Rotational Entropy:           31.648  cal/mol.K
   Vibrational Entropy:          43.136  cal/mol.K

   Total Enthalpy:              125.215 kcal/mol
   Total Entropy:               116.478  cal/mol.K

 Total job time:  4015.38s(wall), 20212.12s(cpu)
        *  Thank you very much for using Q-Chem.  Have a nice day.  *
