 Q-Chem 5.0, Q-Chem, Inc., Pleasanton, CA (2017)
 Q-Chem 5.0.0 for Intel X86 EM64T Linux

User input:
--------------------------------------------------------------
$molecule
0  1
C    0.711  -1.958   0.589
C   -0.299  -1.995   1.756
C    1.089  -0.603   0.022
C   -0.528  -0.668   2.454
O    2.255  -0.726  -0.682
O    0.458   0.435   0.138
O    0.672  -0.221   2.944
O   -1.603  -0.140   2.687
C    0.580   1.027   3.634
C    2.698   0.490  -1.286
C   -0.031  -2.720  -0.508
C   -0.144  -4.202  -0.153
C   -1.210  -4.188   0.944
C   -1.515  -2.680   1.086
O   -1.391  -2.278  -0.299
H    1.639  -2.461   0.888
H    0.068  -2.659   2.552
H   -0.050   0.928   4.523
H    1.951   0.864  -1.993
H   -0.511  -4.776  -1.011
H    0.804  -4.638   0.173
H   -2.087  -4.746   0.595
H   -0.869  -4.649   1.876
H    1.587   1.311   3.953
H    0.196   1.807   2.969
H    3.619   0.278  -1.837
H    2.918   1.240  -0.519
H    0.300  -2.531  -1.532
C   -2.908  -2.427   1.624
H   -3.642  -3.061   1.114
H   -2.968  -2.632   2.696
H   -3.235  -1.402   1.426
$end

$opt
CONSTRAINT
tors    2    1    3    5    157.3
tors    1    2    4    7    -55.0
ENDCONSTRAINT
$end

$rem
JOBTYPE                   OPT
METHOD                    B3LYP
DFT_D                     D3_OP
BASIS                     STO-3G
GEOM_OPT_MAX_CYCLES       500
SYMMETRY                  False
THRESH                    12
SCF_CONVERGENCE           8
MAX_SUB_FILE_NUM          128
MEM_STATIC                400
MEM_TOTAL                 4000
$end

--------------------------------------------------------------

   14    -794.5514909720      6.56E-09 Convergence criterion met
 Total energy in the final basis set = -794.5514909720
   13    -794.5818385866      4.66E-09 Convergence criterion met
 Total energy in the final basis set = -794.5818385866
   13    -794.5879754575      3.82E-09 Convergence criterion met
 Total energy in the final basis set = -794.5879754575
   12    -794.5886981378      5.72E-09 Convergence criterion met
 Total energy in the final basis set = -794.5886981378
   11    -794.5889549798      9.35E-09 Convergence criterion met
 Total energy in the final basis set = -794.5889549798
   11    -794.5890889661      4.31E-09 Convergence criterion met
 Total energy in the final basis set = -794.5890889661
   11    -794.5891778636      5.06E-09 Convergence criterion met
 Total energy in the final basis set = -794.5891778636
   11    -794.5893079639      5.53E-09 Convergence criterion met
 **  OPTIMIZATION CONVERGED  **
 Total job time:  49.75s(wall), 1172.76s(cpu)
        *  Thank you very much for using Q-Chem.  Have a nice day.  *

User input: 2 of 3

nid00667 10.128.2
Q-Chem Developer Version! Running on 10.128.2.*
                  Welcome to Q-Chem
     A Quantum Leap Into The Future Of Chemistry

 Q-Chem 5.0, Q-Chem, Inc., Pleasanton, CA (2017)

 Yihan Shao,  Zhengting Gan,  E. Epifanovsky,  A. T. B. Gilbert,  M. Wormit,
 J. Kussmann,  A. W. Lange,  A. Behn,  Jia Deng,  Xintian Feng,  D. Ghosh,
 M. Goldey,  P. R. Horn,  L. D. Jacobson,  I. Kaliman,  T. Kus,  A. Landau,
 Jie Liu,  E. I. Proynov,  R. M. Richard,  R. P. Steele,  E. J. Sundstrom,
 H. L. Woodcock III,  P. M. Zimmerman,  D. Zuev,  B. Albrecht,  E. Alguire,
 S. A. Baeppler,  Z. Benda,  Y. A. Bernard,  E. J. Berquist,  K. B. Bravaya,
 D. Casanova,  Chun-Min Chang,  Yunqing Chen,  A. Chien,  K. D. Closser,
 M. P. Coons,  S. Dasgupta,  M. Diedenhofen,  Hainam Do,  R. G. Edgar,
 Po-Tung Fang,  S. Fatehi,  Qingguo Feng,  Qinghui Ge,  A. Ghysels,
 J. Gomes,  J. Gonthier,  A. Gunina,  M. W. D. Hanson-Heine,
 P. H. P. Harbach,  A. W. Hauser,  J. E. Herr,  E. G. Hohenstein,
 Z. C. Holden,  Kerwin Hui,  T.-C. Jagau,  Hyunjun Ji,  B. Kaduk,
 K. Khistyaev,  Jaehoon Kim,  P. Klunzinger,  K. Koh,  D. Kosenkov,
 T. Kowalczyk,  C. M. Krauter,  A. Kunitsa,  Ka Un Lao,  A. Laurent,
 K. V. Lawler,  Joonho Lee,  D. Lefrancois,  S. Lehtola,  D. S. Levine,
 Yi-Pei Li,  You-Sheng Lin,  Fenglai Liu,  E. Livshits,  A. Luenser,
 P. Manohar,  E. Mansoor,  S. F. Manzer,  Shan-Ping Mao,  Yuezhi Mao,
 N. Mardirossian,  A. V. Marenich,  L. A. Martinez-Martinez,  S. A. Maurer,
 N. J. Mayhall,  S. C. McKenzie,  J.-M. Mewes,  A. F. Morrison,  K. Nanda,
 T. S. Nguyen-Beck,  R. Olivares-Amaya,  J. A. Parkhill,  T. M. Perrine,
 F. Plasser,  S. Prager,  A. Prociuk,  D. R. Rehn,  F. Rob,  M. Schneider,
 N. Sergueev,  S. M. Sharada,  S. Sharma,  D. W. Small,  T. Stauch,
 T. Stein,  Yu-Chuan Su,  A. J. W. Thom,  T. Tsuchimochi,  L. Vogt,
 O. Vydrov,  M. A. Watson,  J. Wenzel,  M. de Wergifosse,  T. A. Wesolowski,
 A. White,  J. Witte,  A. Yamada,  Jun Yang,  K. Yao,  S. Yeganeh,
 S. R. Yost,  Zhi-Qiang You,  A. Zech,  Igor Ying Zhang,  Xing Zhang,
 Yan Zhao,  Ying Zhu,  B. R. Brooks,  G. K. L. Chan,  C. J. Cramer,
 M. S. Gordon,  W. J. Hehre,  A. Klamt,  M. W. Schmidt,  C. D. Sherrill,
 D. G. Truhlar,  A. Aspuru-Guzik,  R. Baer,  A. T. Bell,  N. A. Besley,
 Jeng-Da Chai,  A. Dreuw,  B. D. Dunietz,  T. R. Furlani,  Chao-Ping Hsu,
 Yousung Jung,  Jing Kong,  D. S. Lambrecht,  WanZhen Liang,  C. Ochsenfeld,
 V. A. Rassolov,  L. V. Slipchenko,  J. E. Subotnik,  T. Van Voorhis,
 J. M. Herbert,  A. I. Krylov,  P. M. W. Gill,  M. Head-Gordon

 Contributors to earlier versions of Q-Chem not listed above:
 R. D. Adamson,  B. Austin,  J. Baker,  G. J. O. Beran,  K. Brandhorst,
 S. T. Brown,  E. F. C. Byrd,  A. K. Chakraborty,  C.-L. Cheng,
 Siu Hung Chien,  D. M. Chipman,  D. L. Crittenden,  H. Dachsel,
 R. A. DiStasio Jr.,  R. J. Doerksen,  A. D. Dutoi,  L. Fusti-Molnar,
 W. A. Goddard III,  A. Golubeva-Zadorozhnaya,  S. R. Gwaltney,  G. Hawkins,
 A. Heyden,  S. Hirata,  G. Kedziora,  F. J. Keil,  C. Kelley,  Jihan Kim,
 R. A. King,  R. Z. Khaliullin,  P. P. Korambath,  W. Kurlancheek,
 A. M. Lee,  M. S. Lee,  S. V. Levchenko,  Ching Yeh Lin,  D. Liotard,
 R. C. Lochan,  I. Lotan,  P. E. Maslen,  N. Nair,  D. P. O'Neill,
 D. Neuhauser,  E. Neuscamman,  C. M. Oana,  R. Olson,  B. Peters,
 R. Peverati,  P. A. Pieniazek,  Y. M. Rhee,  J. Ritchie,  M. A. Rohrdanz,
 E. Rosta,  N. J. Russ,  H. F. Schaefer III,  N. E. Schultz,  N. Shenvi,
 A. C. Simmonett,  A. Sodt,  D. Stuck,  K. S. Thanthiriwatte,  V. Vanovschi,
 Tao Wang,  A. Warshel,  C. F. Williams,  Q. Wu,  X. Xu,  W. Zhang

 Please cite Q-Chem as follows:
 Y. Shao et al., Mol. Phys. 113, 184-215 (2015)
 DOI: 10.1080/00268976.2014.952696

 Q-Chem 5.0.0 for Intel X86 EM64T Linux

 Parts of Q-Chem use Armadillo 5.200.1 (Boston Tea Smuggler).
 http://arma.sourceforge.net/

 Q-Chem begins on Wed Oct  4 17:38:05 2017

Host: nid00667
0

     Scratch files written to /global/cscratch1/sd/junteng/scratch/14/opt_1101-+.save//
The previous job contains 0 fragments, simply inherited here

Checking the input file for inconsistencies... 	...done.

--------------------------------------------------------------
User input:
--------------------------------------------------------------

$molecule
   read
$end

$rem
JOBTYPE                   OPT
METHOD                    B3LYP
DFT_D                     D3_OP
BASIS                     6-311++G(d,p)
GEOM_OPT_MAX_CYCLES       500
GEOM_OPT_TOL_GRADIENT     1
GEOM_OPT_TOL_DISPLACEMENT 1
GEOM_OPT_TOL_ENERGY       1
SYMMETRY                  False
THRESH                    12
SCF_CONVERGENCE           8
MAX_SUB_FILE_NUM          128
MEM_STATIC                400
MEM_TOTAL                 4000
$end

--------------------------------------------------------------

    7    -805.1940597145      7.86E-09 Convergence criterion met
 Total energy in the final basis set = -805.1940597145
    7    -805.1940596943      6.10E-09 Convergence criterion met
 Total energy in the final basis set = -805.1940596943
    6    -805.1940596732      6.25E-09 Convergence criterion met
 Total energy in the final basis set = -805.1940596732
    6    -805.1940596779      6.88E-09 Convergence criterion met
 Total energy in the final basis set = -805.1940596779
    6    -805.1940596638      3.67E-09 Convergence criterion met
 Total energy in the final basis set = -805.1940596638
    6    -805.1940596671      3.67E-09 Convergence criterion met
 Total energy in the final basis set = -805.1940596671
 Final energy is   -805.194059667143
        *  Thank you very much for using Q-Chem.  Have a nice day.  *
 Q-Chem 5.0, Q-Chem, Inc., Pleasanton, CA (2017)
 Q-Chem 5.0.0 for Intel X86 EM64T Linux

             Standard Nuclear Orientation (Angstroms)
    I     Atom           X                Y                Z
 ----------------------------------------------------------------
    1      C      -0.0489131710     0.8277770235     0.6259862113
    2      C       0.6584756574    -0.5672687929     0.5967715837
    3      C      -1.3329755442     0.9268007478    -0.1685740520
    4      C      -0.2321610908    -1.7147344157     0.1439962412
    5      O      -2.0734430822     1.9676202366     0.2782471975
    6      O      -1.6568727787     0.2372312986    -1.1021113435
    7      O      -1.3054581636    -1.7800067858     0.9707944159
    8      O      -0.0298715961    -2.5073077636    -0.7366900906
    9      C      -2.3084984553    -2.7488435443     0.6160771646
   10      C      -3.2935420559     2.2242425952    -0.4427901260
   11      C       1.0374257904     1.7064739450    -0.0683485473
   12      C       2.2393108261     1.8815042902     0.8847800703
   13      C       2.9187907552     0.4897537542     0.7539900795
   14      C       1.9607550045    -0.2517581961    -0.2218514359
   15      O       1.5333352978     0.8331071917    -1.0780500749
   16      H      -0.2504072547     1.1717373202     1.6393597991
   17      H       0.9295274185    -0.8304299298     1.6230651924
   18      H      -1.8929777747    -3.7575172630     0.6322154199
   19      H      -3.0789992541     2.4531461503    -1.4877400951
   20      H       2.8915547370     2.6795389518     0.5270842651
   21      H       1.9321054243     2.1260177294     1.9035482217
   22      H       3.9055057051     0.5738156737     0.2960499883
   23      H       3.0317945182    -0.0315799703     1.7065737178
   24      H      -3.0903002273    -2.6451659968     1.3656830520
   25      H      -2.6969369482    -2.5306326466    -0.3798054325
   26      H      -3.7488786900     3.0790573627     0.0523796142
   27      H      -3.9529311855     1.3563413880    -0.3945560236
   28      H       0.6550815929     2.6206356954    -0.5182211693
   29      C       2.6133241274    -1.3442671657    -1.0389684038
   30      H       3.5135901351    -0.9449654072    -1.5122367559
   31      H       2.9012829679    -2.1801730586    -0.3963316158
   32      H       1.9375203555    -1.7230608656    -1.8010017261
 ----------------------------------------------------------------

   15    -805.1940736300      3.66E-09 Convergence criterion met
 Total energy in the final basis set = -805.1940736300

                    Orbital Energies (a.u.)
 --------------------------------------------------------------

 Alpha MOs
 -- Occupied --
-19.177 -19.166 -19.128 -19.118 -19.111 -10.308 -10.303 -10.238
-10.238 -10.232 -10.222 -10.205 -10.203 -10.181 -10.177 -10.154
 -1.118  -1.107  -1.062  -1.030  -1.022  -0.831  -0.793  -0.780
 -0.748  -0.724  -0.686  -0.650  -0.603  -0.594  -0.569  -0.553
 -0.532  -0.510  -0.504  -0.491  -0.489  -0.482  -0.477  -0.471
 -0.458  -0.436  -0.425  -0.420  -0.417  -0.407  -0.394  -0.377
 -0.373  -0.369  -0.365  -0.359  -0.359  -0.349  -0.335  -0.328
 -0.319  -0.307  -0.290  -0.275  -0.271

          Ground-State Mulliken Net Atomic Charges

     Atom                 Charge (a.u.)
  ----------------------------------------
      1 C                     0.039788
      2 C                     0.301647
      3 C                    -0.920826
      4 C                    -0.433097
      5 O                    -0.011209
      6 O                    -0.187628
      7 O                    -0.018893
      8 O                    -0.188587
      9 C                    -0.180694
     10 C                    -0.230716
     11 C                     0.467653
     12 C                    -0.454690
     13 C                    -0.460926
     14 C                    -0.290584
     15 O                    -0.051836
     16 H                     0.289603
     17 H                     0.249781
     18 H                     0.165927
     19 H                     0.184048
     20 H                     0.184038
     21 H                     0.121354
     22 H                     0.173706
     23 H                     0.142929
     24 H                     0.148971
     25 H                     0.189821
     26 H                     0.150961
     27 H                     0.170158
     28 H                     0.277508
     29 C                    -0.338100
     30 H                     0.143143
     31 H                     0.157998
     32 H                     0.208752
  ----------------------------------------
  Sum of atomic charges =     0.000000

                    Cartesian Multipole Moments
 -----------------------------------------------------------------
    Charge (ESU x 10^10)
                 0.0000
    Dipole Moment (Debye)
         X      -0.8227      Y       1.9583      Z       3.4282
       Tot       4.0329
    Quadrupole Moments (Debye-Ang)
        XX     -82.7494     XY      -0.7677     YY     -91.7346
        XZ       2.3219     YZ      -4.4236     ZZ    -100.3347

 Frequency:        25.06                  34.06                  78.50
 Force Cnst:      0.0013                 0.0031                 0.0070
 Red. Mass:       3.6446                 4.5438                 1.9251
 IR Intens:        0.128                  0.580                  0.150
 Frequency:        83.67                 111.18                 124.23
 Force Cnst:      0.0146                 0.0130                 0.0212
 Red. Mass:       3.5378                 1.7848                 2.3279
 IR Intens:        4.931                  0.035                  1.057
 Frequency:       144.45                 153.40                 188.89
 Force Cnst:      0.0470                 0.0188                 0.0736
 Red. Mass:       3.8240                 1.3557                 3.5002
 IR Intens:        1.959                  0.322                  0.449
 Frequency:       213.81                 232.21                 245.66
 Force Cnst:      0.1140                 0.0779                 0.0487
 Red. Mass:       4.2326                 2.4534                 1.3706
 IR Intens:        1.480                  4.099                  1.682
 Frequency:       267.97                 294.46                 317.29
 Force Cnst:      0.1727                 0.2536                 0.1698
 Red. Mass:       4.0820                 4.9649                 2.8624
 IR Intens:        3.674                  3.982                  8.798
 Frequency:       328.66                 343.94                 359.24
 Force Cnst:      0.1891                 0.3069                 0.2073
 Red. Mass:       2.9710                 4.4026                 2.7267
 IR Intens:        0.031                 13.104                  2.890
 Frequency:       378.65                 476.72                 574.24
 Force Cnst:      0.4105                 0.5341                 0.7240
 Red. Mass:       4.8598                 3.9889                 3.7266
 IR Intens:        8.431                 13.573                 17.245
 Frequency:       606.49                 644.62                 663.84
 Force Cnst:      1.1214                 1.1710                 1.1144
 Red. Mass:       5.1744                 4.7831                 4.2922
 IR Intens:       11.258                  4.312                  0.199
 Frequency:       700.05                 750.39                 802.20
 Force Cnst:      1.7676                 1.7309                 1.3407
 Red. Mass:       6.1216                 5.2173                 3.5360
 IR Intens:        4.282                  4.604                  5.040
 Frequency:       814.00                 831.37                 841.69
 Force Cnst:      0.9716                 1.7258                 1.6537
 Red. Mass:       2.4888                 4.2379                 3.9619
 IR Intens:       10.717                 12.844                 10.875
 Frequency:       858.60                 898.57                 904.43
 Force Cnst:      1.2452                 1.2020                 1.3193
 Red. Mass:       2.8668                 2.5268                 2.7374
 IR Intens:       10.396                  7.031                  3.449
 Frequency:       915.32                 933.85                 967.37
 Force Cnst:      1.2180                 1.5839                 2.3652
 Red. Mass:       2.4675                 3.0826                 4.2897
 IR Intens:       12.520                  5.888                  2.923
 Frequency:       973.99                 993.82                1011.70
 Force Cnst:      2.0004                 1.7427                 2.4508
 Red. Mass:       3.5789                 2.9947                 4.0640
 IR Intens:       14.816                 14.147                 41.822
 Frequency:      1036.20                1061.88                1074.05
 Force Cnst:      1.1873                 2.5289                 1.7216
 Red. Mass:       1.8768                 3.8066                 2.5330
 IR Intens:       25.783                 59.539                 22.053
 Frequency:      1123.85                1137.66                1171.05
 Force Cnst:      1.3712                 1.2791                 1.0995
 Red. Mass:       1.8427                 1.6774                 1.3608
 IR Intens:       31.124                 13.952                 25.067
 Frequency:      1171.30                1178.89                1189.06
 Force Cnst:      1.0407                 1.9295                 1.6875
 Red. Mass:       1.2875                 2.3564                 2.0258
 IR Intens:        3.602                182.911                297.396
 Frequency:      1201.93                1204.70                1211.21
 Force Cnst:      1.3598                 1.3885                 1.3427
 Red. Mass:       1.5976                 1.6238                 1.5535
 IR Intens:       12.833                 42.867                 20.600
 Frequency:      1212.88                1216.76                1249.67
 Force Cnst:      1.5242                 1.5363                 1.3976
 Red. Mass:       1.7586                 1.7612                 1.5190
 IR Intens:      141.987                 79.692                 14.297
 Frequency:      1255.08                1290.55                1317.44
 Force Cnst:      1.1768                 1.8481                 1.4599
 Red. Mass:       1.2679                 1.8833                 1.4276
 IR Intens:        4.014                  8.495                 17.022
 Frequency:      1325.22                1336.30                1362.44
 Force Cnst:      1.6370                 2.0321                 1.7468
 Red. Mass:       1.5821                 1.9315                 1.5972
 IR Intens:       19.919                 10.281                 84.738
 Frequency:      1388.99                1431.10                1466.18
 Force Cnst:      1.9215                 1.5968                 1.5003
 Red. Mass:       1.6904                 1.3233                 1.1846
 IR Intens:       49.517                 14.935                 12.525
 Frequency:      1469.00                1481.84                1483.03
 Force Cnst:      1.5288                 1.3534                 1.3898
 Red. Mass:       1.2024                 1.0461                 1.0725
 IR Intens:       16.002                  8.118                  1.841
 Frequency:      1484.09                1490.82                1497.09
 Force Cnst:      1.3556                 1.3854                 1.3805
 Red. Mass:       1.0446                 1.0580                 1.0454
 IR Intens:       11.215                  2.278                 12.019
 Frequency:      1498.96                1499.89                1508.65
 Force Cnst:      1.3872                 1.3952                 1.4734
 Red. Mass:       1.0479                 1.0526                 1.0987
 IR Intens:       10.892                  8.827                  6.252
 Frequency:      1795.17                1811.38                3044.59
 Force Cnst:     21.6485                22.1960                 5.6834
 Red. Mass:      11.4016                11.4817                 1.0406
 IR Intens:       89.760                348.919                 19.082
 Frequency:      3048.71                3049.77                3055.10
 Force Cnst:      5.6373                 5.6424                 5.8741
 Red. Mass:       1.0294                 1.0296                 1.0682
 IR Intens:       33.905                 37.183                 12.862
 Frequency:      3059.90                3067.34                3093.88
 Force Cnst:      5.9094                 5.8877                 6.2454
 Red. Mass:       1.0712                 1.0621                 1.1074
 IR Intens:       22.556                 37.863                  0.584
 Frequency:      3102.58                3110.24                3116.52
 Force Cnst:      6.2498                 6.2480                 6.2723
 Red. Mass:       1.1020                 1.0962                 1.0961
 IR Intens:       12.630                 17.529                 37.513
 Frequency:      3122.41                3123.65                3128.25
 Force Cnst:      6.3591                 6.3655                 6.2852
 Red. Mass:       1.1070                 1.1073                 1.0901
 IR Intens:       19.134                 15.296                 23.728
 Frequency:      3152.60                3157.12                3164.38
 Force Cnst:      6.4789                 6.4971                 6.4729
 Red. Mass:       1.1064                 1.1063                 1.0972
 IR Intens:       14.466                 14.498                  2.831

 STANDARD THERMODYNAMIC QUANTITIES AT   298.15 K  AND     1.00 ATM

   This Molecule has  0 Imaginary Frequencies
   Zero point vibrational energy:      166.288 kcal/mol

   Atom    1 Element C  Has Mass   12.00000
   Atom    2 Element C  Has Mass   12.00000
   Atom    3 Element C  Has Mass   12.00000
   Atom    4 Element C  Has Mass   12.00000
   Atom    5 Element O  Has Mass   15.99491
   Atom    6 Element O  Has Mass   15.99491
   Atom    7 Element O  Has Mass   15.99491
   Atom    8 Element O  Has Mass   15.99491
   Atom    9 Element C  Has Mass   12.00000
   Atom   10 Element C  Has Mass   12.00000
   Atom   11 Element C  Has Mass   12.00000
   Atom   12 Element C  Has Mass   12.00000
   Atom   13 Element C  Has Mass   12.00000
   Atom   14 Element C  Has Mass   12.00000
   Atom   15 Element O  Has Mass   15.99491
   Atom   16 Element H  Has Mass    1.00783
   Atom   17 Element H  Has Mass    1.00783
   Atom   18 Element H  Has Mass    1.00783
   Atom   19 Element H  Has Mass    1.00783
   Atom   20 Element H  Has Mass    1.00783
   Atom   21 Element H  Has Mass    1.00783
   Atom   22 Element H  Has Mass    1.00783
   Atom   23 Element H  Has Mass    1.00783
   Atom   24 Element H  Has Mass    1.00783
   Atom   25 Element H  Has Mass    1.00783
   Atom   26 Element H  Has Mass    1.00783
   Atom   27 Element H  Has Mass    1.00783
   Atom   28 Element H  Has Mass    1.00783
   Atom   29 Element C  Has Mass   12.00000
   Atom   30 Element H  Has Mass    1.00783
   Atom   31 Element H  Has Mass    1.00783
   Atom   32 Element H  Has Mass    1.00783
   Molecular Mass:   228.099830 amu
   Principal axes and moments of inertia in amu*Bohr^2:
                             1           2           3
    Eigenvalues --     2653.30798  3419.54979  5127.45596
          X               0.99998    -0.00311     0.00562
          Y               0.00310     0.99999     0.00239
          Z              -0.00562    -0.00237     0.99998
   Rotational Symmetry Number is   1
   The Molecule is an Asymmetric Top
   Translational Enthalpy:        0.889 kcal/mol
   Rotational Enthalpy:           0.889 kcal/mol
   Vibrational Enthalpy:        174.464 kcal/mol
   gas constant (RT):             0.592 kcal/mol
   Translational Entropy:        42.176  cal/mol.K
   Rotational Entropy:           32.209  cal/mol.K
   Vibrational Entropy:          53.897  cal/mol.K

   Total Enthalpy:              176.834 kcal/mol
   Total Entropy:               128.281  cal/mol.K

 Total job time:  10350.12s(wall), 60407.42s(cpu)
        *  Thank you very much for using Q-Chem.  Have a nice day.  *
