 Q-Chem 5.0, Q-Chem, Inc., Pleasanton, CA (2017)
 Q-Chem 5.0.0 for Intel X86 EM64T Linux

User input:
--------------------------------------------------------------
$molecule
0  1
C    0.469  -2.369   0.246
C   -0.100  -2.666   1.497
C    0.820  -0.970  -0.128
C   -0.250  -1.617   2.525
O    1.710  -0.973  -1.154
O    0.353   0.027   0.395
O    0.994  -1.244   2.918
O   -1.315  -1.271   3.005
C    0.990  -0.231   3.923
C    2.104   0.331  -1.586
C    0.633  -3.406  -0.690
C    0.237  -4.708  -0.384
C   -0.335  -4.993   0.854
C   -0.510  -3.982   1.810
H    0.475   0.666   3.564
H    1.246   0.871  -1.997
H   -0.645  -6.015   1.070
H    0.524  -0.605   4.840
H    2.028   0.031   4.144
H    2.851   0.214  -2.376
H    2.557   0.890  -0.761
H    0.365  -5.501  -1.118
H    1.053  -3.209  -1.674
C   -1.128  -4.326   3.139
H   -2.093  -3.824   3.253
H   -0.462  -4.036   3.958
H   -1.304  -5.403   3.231
$end

$opt
CONSTRAINT
tors    2    1    3    5    163.6
tors    1    2    4    7    -62.3
ENDCONSTRAINT
$end

$rem
JOBTYPE                   OPT
METHOD                    B3LYP
DFT_D                     D3_OP
BASIS                     STO-3G
GEOM_OPT_MAX_CYCLES       500
SYMMETRY                  False
THRESH                    12
SCF_CONVERGENCE           8
MAX_SUB_FILE_NUM          128
MEM_STATIC                400
MEM_TOTAL                 4000
$end

--------------------------------------------------------------

   15    -717.9257267684      8.11E-09 Convergence criterion met
 Total energy in the final basis set = -717.9257267684
   14    -717.9522078682      5.86E-09 Convergence criterion met
 Total energy in the final basis set = -717.9522078682
   13    -717.9541400557      7.75E-09 Convergence criterion met
 Total energy in the final basis set = -717.9541400557
   12    -717.9543615611      6.17E-09 Convergence criterion met
 Total energy in the final basis set = -717.9543615611
   11    -717.9543799685      5.83E-09 Convergence criterion met
 Total energy in the final basis set = -717.9543799685
   11    -717.9543845226      2.63E-09 Convergence criterion met
 Total energy in the final basis set = -717.9543845226
   11    -717.9543921869      2.63E-09 Convergence criterion met
 Total energy in the final basis set = -717.9543921869
   11    -717.9544072696      2.21E-09 Convergence criterion met
 **  OPTIMIZATION CONVERGED  **
 Total job time:  49.38s(wall), 1160.42s(cpu)
        *  Thank you very much for using Q-Chem.  Have a nice day.  *

User input: 2 of 3

nid01147 10.128.4
Q-Chem Developer Version! Running on 10.128.4.*
                  Welcome to Q-Chem
     A Quantum Leap Into The Future Of Chemistry

 Q-Chem 5.0, Q-Chem, Inc., Pleasanton, CA (2017)

 Yihan Shao,  Zhengting Gan,  E. Epifanovsky,  A. T. B. Gilbert,  M. Wormit,
 J. Kussmann,  A. W. Lange,  A. Behn,  Jia Deng,  Xintian Feng,  D. Ghosh,
 M. Goldey,  P. R. Horn,  L. D. Jacobson,  I. Kaliman,  T. Kus,  A. Landau,
 Jie Liu,  E. I. Proynov,  R. M. Richard,  R. P. Steele,  E. J. Sundstrom,
 H. L. Woodcock III,  P. M. Zimmerman,  D. Zuev,  B. Albrecht,  E. Alguire,
 S. A. Baeppler,  Z. Benda,  Y. A. Bernard,  E. J. Berquist,  K. B. Bravaya,
 D. Casanova,  Chun-Min Chang,  Yunqing Chen,  A. Chien,  K. D. Closser,
 M. P. Coons,  S. Dasgupta,  M. Diedenhofen,  Hainam Do,  R. G. Edgar,
 Po-Tung Fang,  S. Fatehi,  Qingguo Feng,  Qinghui Ge,  A. Ghysels,
 J. Gomes,  J. Gonthier,  A. Gunina,  M. W. D. Hanson-Heine,
 P. H. P. Harbach,  A. W. Hauser,  J. E. Herr,  E. G. Hohenstein,
 Z. C. Holden,  Kerwin Hui,  T.-C. Jagau,  Hyunjun Ji,  B. Kaduk,
 K. Khistyaev,  Jaehoon Kim,  P. Klunzinger,  K. Koh,  D. Kosenkov,
 T. Kowalczyk,  C. M. Krauter,  A. Kunitsa,  Ka Un Lao,  A. Laurent,
 K. V. Lawler,  Joonho Lee,  D. Lefrancois,  S. Lehtola,  D. S. Levine,
 Yi-Pei Li,  You-Sheng Lin,  Fenglai Liu,  E. Livshits,  A. Luenser,
 P. Manohar,  E. Mansoor,  S. F. Manzer,  Shan-Ping Mao,  Yuezhi Mao,
 N. Mardirossian,  A. V. Marenich,  L. A. Martinez-Martinez,  S. A. Maurer,
 N. J. Mayhall,  S. C. McKenzie,  J.-M. Mewes,  A. F. Morrison,  K. Nanda,
 T. S. Nguyen-Beck,  R. Olivares-Amaya,  J. A. Parkhill,  T. M. Perrine,
 F. Plasser,  S. Prager,  A. Prociuk,  D. R. Rehn,  F. Rob,  M. Schneider,
 N. Sergueev,  S. M. Sharada,  S. Sharma,  D. W. Small,  T. Stauch,
 T. Stein,  Yu-Chuan Su,  A. J. W. Thom,  T. Tsuchimochi,  L. Vogt,
 O. Vydrov,  M. A. Watson,  J. Wenzel,  M. de Wergifosse,  T. A. Wesolowski,
 A. White,  J. Witte,  A. Yamada,  Jun Yang,  K. Yao,  S. Yeganeh,
 S. R. Yost,  Zhi-Qiang You,  A. Zech,  Igor Ying Zhang,  Xing Zhang,
 Yan Zhao,  Ying Zhu,  B. R. Brooks,  G. K. L. Chan,  C. J. Cramer,
 M. S. Gordon,  W. J. Hehre,  A. Klamt,  M. W. Schmidt,  C. D. Sherrill,
 D. G. Truhlar,  A. Aspuru-Guzik,  R. Baer,  A. T. Bell,  N. A. Besley,
 Jeng-Da Chai,  A. Dreuw,  B. D. Dunietz,  T. R. Furlani,  Chao-Ping Hsu,
 Yousung Jung,  Jing Kong,  D. S. Lambrecht,  WanZhen Liang,  C. Ochsenfeld,
 V. A. Rassolov,  L. V. Slipchenko,  J. E. Subotnik,  T. Van Voorhis,
 J. M. Herbert,  A. I. Krylov,  P. M. W. Gill,  M. Head-Gordon

 Contributors to earlier versions of Q-Chem not listed above:
 R. D. Adamson,  B. Austin,  J. Baker,  G. J. O. Beran,  K. Brandhorst,
 S. T. Brown,  E. F. C. Byrd,  A. K. Chakraborty,  C.-L. Cheng,
 Siu Hung Chien,  D. M. Chipman,  D. L. Crittenden,  H. Dachsel,
 R. A. DiStasio Jr.,  R. J. Doerksen,  A. D. Dutoi,  L. Fusti-Molnar,
 W. A. Goddard III,  A. Golubeva-Zadorozhnaya,  S. R. Gwaltney,  G. Hawkins,
 A. Heyden,  S. Hirata,  G. Kedziora,  F. J. Keil,  C. Kelley,  Jihan Kim,
 R. A. King,  R. Z. Khaliullin,  P. P. Korambath,  W. Kurlancheek,
 A. M. Lee,  M. S. Lee,  S. V. Levchenko,  Ching Yeh Lin,  D. Liotard,
 R. C. Lochan,  I. Lotan,  P. E. Maslen,  N. Nair,  D. P. O'Neill,
 D. Neuhauser,  E. Neuscamman,  C. M. Oana,  R. Olson,  B. Peters,
 R. Peverati,  P. A. Pieniazek,  Y. M. Rhee,  J. Ritchie,  M. A. Rohrdanz,
 E. Rosta,  N. J. Russ,  H. F. Schaefer III,  N. E. Schultz,  N. Shenvi,
 A. C. Simmonett,  A. Sodt,  D. Stuck,  K. S. Thanthiriwatte,  V. Vanovschi,
 Tao Wang,  A. Warshel,  C. F. Williams,  Q. Wu,  X. Xu,  W. Zhang

 Please cite Q-Chem as follows:
 Y. Shao et al., Mol. Phys. 113, 184-215 (2015)
 DOI: 10.1080/00268976.2014.952696

 Q-Chem 5.0.0 for Intel X86 EM64T Linux

 Parts of Q-Chem use Armadillo 5.200.1 (Boston Tea Smuggler).
 http://arma.sourceforge.net/

 Q-Chem begins on Wed Oct  4 18:05:17 2017

Host: nid01147
0

     Scratch files written to /global/cscratch1/sd/junteng/scratch/17/opt_11n01o+.save//
The previous job contains 0 fragments, simply inherited here

Checking the input file for inconsistencies... 	...done.

--------------------------------------------------------------
User input:
--------------------------------------------------------------

$molecule
   read
$end

$rem
JOBTYPE                   OPT
METHOD                    B3LYP
DFT_D                     D3_OP
BASIS                     6-311++G(d,p)
GEOM_OPT_MAX_CYCLES       500
GEOM_OPT_TOL_GRADIENT     1
GEOM_OPT_TOL_DISPLACEMENT 1
GEOM_OPT_TOL_ENERGY       1
SYMMETRY                  False
THRESH                    12
SCF_CONVERGENCE           8
MAX_SUB_FILE_NUM          128
MEM_STATIC                400
MEM_TOTAL                 4000
$end

--------------------------------------------------------------

    9    -727.5472180611      5.06E-09 Convergence criterion met
 Total energy in the final basis set = -727.5472180611
    9    -727.5472180267      5.18E-09 Convergence criterion met
 Total energy in the final basis set = -727.5472180267
    8    -727.5472180297      3.14E-09 Convergence criterion met
 Total energy in the final basis set = -727.5472180297
    7    -727.5472180866      2.83E-09 Convergence criterion met
 Total energy in the final basis set = -727.5472180866
    6    -727.5472181025      5.20E-09 Convergence criterion met
 Total energy in the final basis set = -727.5472181025
    5    -727.5472181021      5.90E-09 Convergence criterion met
 Total energy in the final basis set = -727.5472181021
 Final energy is   -727.547218102094
        *  Thank you very much for using Q-Chem.  Have a nice day.  *
 Q-Chem 5.0, Q-Chem, Inc., Pleasanton, CA (2017)
 Q-Chem 5.0.0 for Intel X86 EM64T Linux

             Standard Nuclear Orientation (Angstroms)
    I     Atom           X                Y                Z
 ----------------------------------------------------------------
    1      C       0.5050918833    -0.8432397370    -0.0035537786
    2      C      -0.7697832770    -0.2581217664    -0.0882899260
    3      C       1.7210567170     0.0087634448    -0.1434699607
    4      C      -0.9494050266     1.2231316362    -0.2838138997
    5      O       2.8565637685    -0.6776903275     0.1053097765
    6      O       1.7148021403     1.1777529279    -0.4554636519
    7      O      -0.7474328860     1.8897013466     0.8649638348
    8      O      -1.3096670026     1.7300876957    -1.3163584833
    9      C      -0.7759905842     3.3261618301     0.7653220144
   10      C       4.0828619897     0.0595253139    -0.0397722546
   11      C       0.6233777273    -2.2277742581     0.1686514121
   12      C      -0.5148108366    -3.0178008750     0.2559902747
   13      C      -1.7743064425    -2.4316529051     0.1661608566
   14      C      -1.9252692684    -1.0536883242    -0.0112214225
   15      H       0.0187411084     3.6601687685     0.0968183146
   16      H       4.1826680150     0.4362824886    -1.0587825494
   17      H      -2.6615890033    -3.0525895579     0.2329328305
   18      H      -1.7407400492     3.6671167538     0.3872584990
   19      H      -0.6071182228     3.6896638012     1.7764557237
   20      H       4.8744324835    -0.6514816969     0.1862754244
   21      H       4.1081549690     0.8979555265     0.6577106389
   22      H      -0.4233342796    -4.0894949700     0.3907239932
   23      H       1.6076529740    -2.6705519338     0.2275072402
   24      C      -3.3042446539    -0.4485358294    -0.1231445297
   25      H      -3.4766050353    -0.0551941170    -1.1282209773
   26      H      -3.4361597930     0.3826760208     0.5752468043
   27      H      -4.0717006966    -1.1939754039     0.0913095325
 ----------------------------------------------------------------

   15    -727.5472288294      5.85E-09 Convergence criterion met
 Total energy in the final basis set = -727.5472288294

                    Orbital Energies (a.u.)
 --------------------------------------------------------------

 Alpha MOs
 -- Occupied --
-19.178 -19.168 -19.120 -19.112 -10.312 -10.306 -10.233 -10.221
-10.207 -10.207 -10.204 -10.192 -10.192 -10.191 -10.175  -1.120
 -1.110  -1.031  -1.024  -0.885  -0.801  -0.790  -0.747  -0.726
 -0.700  -0.653  -0.624  -0.580  -0.571  -0.543  -0.519  -0.501
 -0.495  -0.490  -0.479  -0.477  -0.462  -0.444  -0.434  -0.429
 -0.423  -0.416  -0.403  -0.393  -0.381  -0.371  -0.369  -0.366
 -0.357  -0.321  -0.307  -0.293  -0.290  -0.271  -0.261

          Ground-State Mulliken Net Atomic Charges

     Atom                 Charge (a.u.)
  ----------------------------------------
      1 C                     0.102088
      2 C                     0.765938
      3 C                    -0.052451
      4 C                    -0.931522
      5 O                    -0.104244
      6 O                    -0.225840
      7 O                     0.080559
      8 O                    -0.135516
      9 C                    -0.216890
     10 C                    -0.213923
     11 C                    -0.363225
     12 C                    -0.074552
     13 C                    -0.630286
     14 C                     0.463590
     15 H                     0.191747
     16 H                     0.187080
     17 H                     0.118415
     18 H                     0.161506
     19 H                     0.150177
     20 H                     0.153975
     21 H                     0.178434
     22 H                     0.183362
     23 H                     0.185140
     24 C                    -0.501793
     25 H                     0.193587
     26 H                     0.172617
     27 H                     0.162027
  ----------------------------------------
  Sum of atomic charges =     0.000000

                    Cartesian Multipole Moments
 -----------------------------------------------------------------
    Charge (ESU x 10^10)
                 0.0000
    Dipole Moment (Debye)
         X       0.7549      Y      -1.7094      Z       2.0154
       Tot       2.7484
    Quadrupole Moments (Debye-Ang)
        XX     -72.3789     XY       1.4465     YY     -79.2180
        XZ      -2.2432     YZ       5.4208     ZZ     -94.0197

 Frequency:        17.53                  63.53                  78.07
 Force Cnst:      0.0009                 0.0085                 0.0109
 Red. Mass:       4.7872                 3.5537                 3.0263
 IR Intens:        1.006                  1.152                  2.619
 Frequency:        93.92                 110.81                 120.69
 Force Cnst:      0.0096                 0.0115                 0.0129
 Red. Mass:       1.8569                 1.5877                 1.5037
 IR Intens:        1.160                  2.553                  0.026
 Frequency:       136.41                 143.16                 159.09
 Force Cnst:      0.0238                 0.0145                 0.0548
 Red. Mass:       2.1729                 1.2016                 3.6779
 IR Intens:        1.069                  0.972                  1.682
 Frequency:       183.80                 217.05                 238.70
 Force Cnst:      0.0913                 0.0950                 0.1707
 Red. Mass:       4.5864                 3.4216                 5.0855
 IR Intens:        0.033                  3.283                  4.005
 Frequency:       280.60                 298.58                 316.09
 Force Cnst:      0.2240                 0.2256                 0.3288
 Red. Mass:       4.8293                 4.2955                 5.5857
 IR Intens:        3.247                 10.346                  5.804
 Frequency:       354.45                 383.77                 431.80
 Force Cnst:      0.3113                 0.4798                 0.5089
 Red. Mass:       4.2062                 5.5291                 4.6322
 IR Intens:       15.938                  8.188                  1.227
 Frequency:       487.05                 506.52                 565.33
 Force Cnst:      0.6048                 0.6800                 0.8529
 Red. Mass:       4.3274                 4.4984                 4.5293
 IR Intens:        3.735                  2.756                  0.532
 Frequency:       590.86                 710.32                 733.56
 Force Cnst:      1.0095                 1.9185                 2.0537
 Red. Mass:       4.9076                 6.4538                 6.4777
 IR Intens:        5.629                  8.127                  3.479
 Frequency:       760.51                 781.61                 798.38
 Force Cnst:      1.2506                 0.7459                 2.0728
 Red. Mass:       3.6699                 2.0722                 5.5192
 IR Intens:       47.246                 40.843                  5.889
 Frequency:       829.56                 840.82                 895.06
 Force Cnst:      1.2809                 2.1203                 2.2993
 Red. Mass:       3.1592                 5.0902                 4.8712
 IR Intens:        0.933                  4.383                 12.551
 Frequency:       937.48                 977.60                 998.46
 Force Cnst:      0.7094                 3.5173                 0.7917
 Red. Mass:       1.3700                 6.2465                 1.3479
 IR Intens:        0.094                  9.526                  0.197
 Frequency:      1004.08                1043.96                1062.84
 Force Cnst:      1.4752                 1.7837                 1.0260
 Red. Mass:       2.4835                 2.7778                 1.5416
 IR Intens:        6.936                 22.035                  2.132
 Frequency:      1095.78                1138.50                1169.52
 Force Cnst:      2.2862                 1.7749                 1.0385
 Red. Mass:       3.2315                 2.3240                 1.2887
 IR Intens:       93.753                 84.897                  0.863
 Frequency:      1172.85                1173.47                1198.00
 Force Cnst:      1.0376                 1.9114                 1.1089
 Red. Mass:       1.2802                 2.3559                 1.3114
 IR Intens:        0.927                126.031                  1.890
 Frequency:      1210.70                1216.85                1268.52
 Force Cnst:      1.3664                 1.7192                 1.8422
 Red. Mass:       1.5822                 1.9706                 1.9431
 IR Intens:       29.051                130.671                 63.890
 Frequency:      1286.56                1295.15                1326.54
 Force Cnst:      5.8537                 3.5711                 7.7099
 Red. Mass:       6.0023                 3.6134                 7.4363
 IR Intens:      295.704                349.007                 17.494
 Frequency:      1418.22                1459.96                1468.85
 Force Cnst:      1.4631                 1.8649                 1.5516
 Red. Mass:       1.2347                 1.4850                 1.2206
 IR Intens:        4.261                 10.097                  9.859
 Frequency:      1474.34                1481.57                1482.18
 Force Cnst:      1.8810                 1.3626                 1.3527
 Red. Mass:       1.4687                 1.0536                 1.0451
 IR Intens:       57.097                  9.041                 10.972
 Frequency:      1488.59                1489.16                1495.19
 Force Cnst:      1.9817                 1.9606                 1.3802
 Red. Mass:       1.5179                 1.5006                 1.0479
 IR Intens:        8.092                  5.664                  7.301
 Frequency:      1497.83                1507.58                1616.19
 Force Cnst:      1.3925                 1.7498                10.3553
 Red. Mass:       1.0535                 1.3067                 6.7286
 IR Intens:       10.567                  3.285                 10.035
 Frequency:      1629.91                1766.46                1787.43
 Force Cnst:      9.0305                21.5748                22.3138
 Red. Mass:       5.7694                11.7352                11.8540
 IR Intens:        9.922                250.127                272.367
 Frequency:      3035.04                3050.12                3050.48
 Force Cnst:      5.6247                 5.6434                 5.6430
 Red. Mass:       1.0364                 1.0296                 1.0293
 IR Intens:       18.042                 32.846                 40.692
 Frequency:      3090.36                3111.58                3123.14
 Force Cnst:      6.1897                 6.2883                 6.3619
 Red. Mass:       1.1000                 1.1024                 1.1070
 IR Intens:        8.539                 15.300                 17.421
 Frequency:      3126.24                3156.30                3157.04
 Force Cnst:      6.3757                 6.4930                 6.4971
 Red. Mass:       1.1072                 1.1062                 1.1064
 IR Intens:       13.563                 14.208                 13.913
 Frequency:      3165.08                3184.60                3221.05
 Force Cnst:      6.4217                 6.5339                 6.6803
 Red. Mass:       1.0880                 1.0935                 1.0928
 IR Intens:        7.101                 15.407                  2.047

 STANDARD THERMODYNAMIC QUANTITIES AT   298.15 K  AND     1.00 ATM

   This Molecule has  0 Imaginary Frequencies
   Zero point vibrational energy:      133.292 kcal/mol

   Atom    1 Element C  Has Mass   12.00000
   Atom    2 Element C  Has Mass   12.00000
   Atom    3 Element C  Has Mass   12.00000
   Atom    4 Element C  Has Mass   12.00000
   Atom    5 Element O  Has Mass   15.99491
   Atom    6 Element O  Has Mass   15.99491
   Atom    7 Element O  Has Mass   15.99491
   Atom    8 Element O  Has Mass   15.99491
   Atom    9 Element C  Has Mass   12.00000
   Atom   10 Element C  Has Mass   12.00000
   Atom   11 Element C  Has Mass   12.00000
   Atom   12 Element C  Has Mass   12.00000
   Atom   13 Element C  Has Mass   12.00000
   Atom   14 Element C  Has Mass   12.00000
   Atom   15 Element H  Has Mass    1.00783
   Atom   16 Element H  Has Mass    1.00783
   Atom   17 Element H  Has Mass    1.00783
   Atom   18 Element H  Has Mass    1.00783
   Atom   19 Element H  Has Mass    1.00783
   Atom   20 Element H  Has Mass    1.00783
   Atom   21 Element H  Has Mass    1.00783
   Atom   22 Element H  Has Mass    1.00783
   Atom   23 Element H  Has Mass    1.00783
   Atom   24 Element C  Has Mass   12.00000
   Atom   25 Element H  Has Mass    1.00783
   Atom   26 Element H  Has Mass    1.00783
   Atom   27 Element H  Has Mass    1.00783
   Molecular Mass:   208.073600 amu
   Principal axes and moments of inertia in amu*Bohr^2:
                             1           2           3
    Eigenvalues --     2454.36913  3112.26169  5138.68857
          X               0.99986     0.01654    -0.00185
          Y              -0.01653     0.99982     0.00978
          Z               0.00201    -0.00975     0.99995
   Rotational Symmetry Number is   1
   The Molecule is an Asymmetric Top
   Translational Enthalpy:        0.889 kcal/mol
   Rotational Enthalpy:           0.889 kcal/mol
   Vibrational Enthalpy:        141.065 kcal/mol
   gas constant (RT):             0.592 kcal/mol
   Translational Entropy:        41.902  cal/mol.K
   Rotational Entropy:           32.040  cal/mol.K
   Vibrational Entropy:          51.933  cal/mol.K

   Total Enthalpy:              143.435 kcal/mol
   Total Entropy:               125.875  cal/mol.K

 Total job time:  5824.44s(wall), 30949.64s(cpu)
        *  Thank you very much for using Q-Chem.  Have a nice day.  *
