 Q-Chem 5.0, Q-Chem, Inc., Pleasanton, CA (2017)
 Q-Chem 5.0.0 for Intel X86 EM64T Linux

User input:
--------------------------------------------------------------
$molecule
0  1
C    0.469  -2.369   0.246
C   -0.100  -2.666   1.497
C    0.820  -0.970  -0.128
C   -0.250  -1.617   2.525
O    1.710  -0.973  -1.154
O    0.353   0.027   0.395
O    0.994  -1.244   2.918
O   -1.315  -1.271   3.005
C    0.990  -0.231   3.923
C    2.104   0.331  -1.586
C    0.633  -3.406  -0.690
C    0.237  -4.708  -0.384
C   -0.335  -4.993   0.854
C   -0.510  -3.982   1.810
H    0.475   0.666   3.564
H    1.246   0.871  -1.997
H   -0.645  -6.015   1.070
H    0.524  -0.605   4.840
H    2.028   0.031   4.144
H    2.851   0.214  -2.376
H    2.557   0.890  -0.761
H    0.365  -5.501  -1.118
H    1.053  -3.209  -1.674
C   -1.128  -4.326   3.139
H   -2.093  -3.824   3.253
H   -0.462  -4.036   3.958
H   -1.304  -5.403   3.231
$end

$opt
CONSTRAINT
tors    2    1    3    5    168.6
tors    1    2    4    7    -72.3
ENDCONSTRAINT
$end

$rem
JOBTYPE                   OPT
METHOD                    B3LYP
DFT_D                     D3_OP
BASIS                     STO-3G
GEOM_OPT_MAX_CYCLES       500
SYMMETRY                  False
THRESH                    12
SCF_CONVERGENCE           8
MAX_SUB_FILE_NUM          128
MEM_STATIC                400
MEM_TOTAL                 4000
$end

--------------------------------------------------------------

   15    -717.9257267684      8.11E-09 Convergence criterion met
 Total energy in the final basis set = -717.9257267684
   14    -717.9510150270      6.65E-09 Convergence criterion met
 Total energy in the final basis set = -717.9510150270
   14    -717.9544432304      2.60E-09 Convergence criterion met
 Total energy in the final basis set = -717.9544432304
   12    -717.9547510555      7.45E-09 Convergence criterion met
 Total energy in the final basis set = -717.9547510555
   11    -717.9548150637      8.46E-09 Convergence criterion met
 Total energy in the final basis set = -717.9548150637
   11    -717.9548557376      6.22E-09 Convergence criterion met
 Total energy in the final basis set = -717.9548557376
   11    -717.9548655533      3.71E-09 Convergence criterion met
 Total energy in the final basis set = -717.9548655533
   10    -717.9548756664      6.84E-09 Convergence criterion met
 **  OPTIMIZATION CONVERGED  **
 Total job time:  34.82s(wall), 814.40s(cpu)
        *  Thank you very much for using Q-Chem.  Have a nice day.  *

User input: 2 of 3

nid01079 10.128.4
Q-Chem Developer Version! Running on 10.128.4.*
                  Welcome to Q-Chem
     A Quantum Leap Into The Future Of Chemistry

 Q-Chem 5.0, Q-Chem, Inc., Pleasanton, CA (2017)

 Yihan Shao,  Zhengting Gan,  E. Epifanovsky,  A. T. B. Gilbert,  M. Wormit,
 J. Kussmann,  A. W. Lange,  A. Behn,  Jia Deng,  Xintian Feng,  D. Ghosh,
 M. Goldey,  P. R. Horn,  L. D. Jacobson,  I. Kaliman,  T. Kus,  A. Landau,
 Jie Liu,  E. I. Proynov,  R. M. Richard,  R. P. Steele,  E. J. Sundstrom,
 H. L. Woodcock III,  P. M. Zimmerman,  D. Zuev,  B. Albrecht,  E. Alguire,
 S. A. Baeppler,  Z. Benda,  Y. A. Bernard,  E. J. Berquist,  K. B. Bravaya,
 D. Casanova,  Chun-Min Chang,  Yunqing Chen,  A. Chien,  K. D. Closser,
 M. P. Coons,  S. Dasgupta,  M. Diedenhofen,  Hainam Do,  R. G. Edgar,
 Po-Tung Fang,  S. Fatehi,  Qingguo Feng,  Qinghui Ge,  A. Ghysels,
 J. Gomes,  J. Gonthier,  A. Gunina,  M. W. D. Hanson-Heine,
 P. H. P. Harbach,  A. W. Hauser,  J. E. Herr,  E. G. Hohenstein,
 Z. C. Holden,  Kerwin Hui,  T.-C. Jagau,  Hyunjun Ji,  B. Kaduk,
 K. Khistyaev,  Jaehoon Kim,  P. Klunzinger,  K. Koh,  D. Kosenkov,
 T. Kowalczyk,  C. M. Krauter,  A. Kunitsa,  Ka Un Lao,  A. Laurent,
 K. V. Lawler,  Joonho Lee,  D. Lefrancois,  S. Lehtola,  D. S. Levine,
 Yi-Pei Li,  You-Sheng Lin,  Fenglai Liu,  E. Livshits,  A. Luenser,
 P. Manohar,  E. Mansoor,  S. F. Manzer,  Shan-Ping Mao,  Yuezhi Mao,
 N. Mardirossian,  A. V. Marenich,  L. A. Martinez-Martinez,  S. A. Maurer,
 N. J. Mayhall,  S. C. McKenzie,  J.-M. Mewes,  A. F. Morrison,  K. Nanda,
 T. S. Nguyen-Beck,  R. Olivares-Amaya,  J. A. Parkhill,  T. M. Perrine,
 F. Plasser,  S. Prager,  A. Prociuk,  D. R. Rehn,  F. Rob,  M. Schneider,
 N. Sergueev,  S. M. Sharada,  S. Sharma,  D. W. Small,  T. Stauch,
 T. Stein,  Yu-Chuan Su,  A. J. W. Thom,  T. Tsuchimochi,  L. Vogt,
 O. Vydrov,  M. A. Watson,  J. Wenzel,  M. de Wergifosse,  T. A. Wesolowski,
 A. White,  J. Witte,  A. Yamada,  Jun Yang,  K. Yao,  S. Yeganeh,
 S. R. Yost,  Zhi-Qiang You,  A. Zech,  Igor Ying Zhang,  Xing Zhang,
 Yan Zhao,  Ying Zhu,  B. R. Brooks,  G. K. L. Chan,  C. J. Cramer,
 M. S. Gordon,  W. J. Hehre,  A. Klamt,  M. W. Schmidt,  C. D. Sherrill,
 D. G. Truhlar,  A. Aspuru-Guzik,  R. Baer,  A. T. Bell,  N. A. Besley,
 Jeng-Da Chai,  A. Dreuw,  B. D. Dunietz,  T. R. Furlani,  Chao-Ping Hsu,
 Yousung Jung,  Jing Kong,  D. S. Lambrecht,  WanZhen Liang,  C. Ochsenfeld,
 V. A. Rassolov,  L. V. Slipchenko,  J. E. Subotnik,  T. Van Voorhis,
 J. M. Herbert,  A. I. Krylov,  P. M. W. Gill,  M. Head-Gordon

 Contributors to earlier versions of Q-Chem not listed above:
 R. D. Adamson,  B. Austin,  J. Baker,  G. J. O. Beran,  K. Brandhorst,
 S. T. Brown,  E. F. C. Byrd,  A. K. Chakraborty,  C.-L. Cheng,
 Siu Hung Chien,  D. M. Chipman,  D. L. Crittenden,  H. Dachsel,
 R. A. DiStasio Jr.,  R. J. Doerksen,  A. D. Dutoi,  L. Fusti-Molnar,
 W. A. Goddard III,  A. Golubeva-Zadorozhnaya,  S. R. Gwaltney,  G. Hawkins,
 A. Heyden,  S. Hirata,  G. Kedziora,  F. J. Keil,  C. Kelley,  Jihan Kim,
 R. A. King,  R. Z. Khaliullin,  P. P. Korambath,  W. Kurlancheek,
 A. M. Lee,  M. S. Lee,  S. V. Levchenko,  Ching Yeh Lin,  D. Liotard,
 R. C. Lochan,  I. Lotan,  P. E. Maslen,  N. Nair,  D. P. O'Neill,
 D. Neuhauser,  E. Neuscamman,  C. M. Oana,  R. Olson,  B. Peters,
 R. Peverati,  P. A. Pieniazek,  Y. M. Rhee,  J. Ritchie,  M. A. Rohrdanz,
 E. Rosta,  N. J. Russ,  H. F. Schaefer III,  N. E. Schultz,  N. Shenvi,
 A. C. Simmonett,  A. Sodt,  D. Stuck,  K. S. Thanthiriwatte,  V. Vanovschi,
 Tao Wang,  A. Warshel,  C. F. Williams,  Q. Wu,  X. Xu,  W. Zhang

 Please cite Q-Chem as follows:
 Y. Shao et al., Mol. Phys. 113, 184-215 (2015)
 DOI: 10.1080/00268976.2014.952696

 Q-Chem 5.0.0 for Intel X86 EM64T Linux

 Parts of Q-Chem use Armadillo 5.200.1 (Boston Tea Smuggler).
 http://arma.sourceforge.net/

 Q-Chem begins on Wed Oct  4 18:05:02 2017

Host: nid01079
0

     Scratch files written to /global/cscratch1/sd/junteng/scratch/17/opt_11n01+-.save//
The previous job contains 0 fragments, simply inherited here

Checking the input file for inconsistencies... 	...done.

--------------------------------------------------------------
User input:
--------------------------------------------------------------

$molecule
   read
$end

$rem
JOBTYPE                   OPT
METHOD                    B3LYP
DFT_D                     D3_OP
BASIS                     6-311++G(d,p)
GEOM_OPT_MAX_CYCLES       500
GEOM_OPT_TOL_GRADIENT     1
GEOM_OPT_TOL_DISPLACEMENT 1
GEOM_OPT_TOL_ENERGY       1
SYMMETRY                  False
THRESH                    12
SCF_CONVERGENCE           8
MAX_SUB_FILE_NUM          128
MEM_STATIC                400
MEM_TOTAL                 4000
$end

--------------------------------------------------------------

    8    -727.5472847149      4.94E-09 Convergence criterion met
 Total energy in the final basis set = -727.5472847149
    9    -727.5472848070      3.37E-09 Convergence criterion met
 Total energy in the final basis set = -727.5472848070
    8    -727.5472848326      3.93E-09 Convergence criterion met
 Total energy in the final basis set = -727.5472848326
    7    -727.5472848402      2.70E-09 Convergence criterion met
 Total energy in the final basis set = -727.5472848402
    6    -727.5472848458      8.45E-09 Convergence criterion met
 Total energy in the final basis set = -727.5472848458
    5    -727.5472848456      9.97E-09 Convergence criterion met
 Total energy in the final basis set = -727.5472848456
 Final energy is   -727.547284845647
        *  Thank you very much for using Q-Chem.  Have a nice day.  *
 Q-Chem 5.0, Q-Chem, Inc., Pleasanton, CA (2017)
 Q-Chem 5.0.0 for Intel X86 EM64T Linux

             Standard Nuclear Orientation (Angstroms)
    I     Atom           X                Y                Z
 ----------------------------------------------------------------
    1      C       0.5119918624    -0.8407015295    -0.0073378424
    2      C      -0.7662098383    -0.2630289707    -0.0909045311
    3      C       1.7228247665     0.0190755159    -0.1426376130
    4      C      -0.9547999791     1.2168985926    -0.2878402210
    5      O       2.8623077364    -0.6619290785     0.1031399690
    6      O       1.7097404398     1.1900445716    -0.4469214982
    7      O      -0.7688973562     1.8844966028     0.8630860709
    8      O      -1.3097733718     1.7212545730    -1.3234447887
    9      C      -0.8124038775     3.3205160604     0.7649509081
   10      C       4.0841402012     0.0844007877    -0.0329135702
   11      C       0.6384865966    -2.2244744189     0.1651398622
   12      C      -0.4951365552    -3.0207743721     0.2542386837
   13      C      -1.7581640012    -2.4417960559     0.1668004071
   14      C      -1.9172614107    -1.0649176164    -0.0113137801
   15      H      -0.0127739906     3.6646628093     0.1074392085
   16      H       4.1843869097     0.4701392678    -1.0484948822
   17      H      -2.6416065986    -3.0677817190     0.2374963716
   18      H      -1.7761122056     3.6508004665     0.3749183096
   19      H      -0.6607408228     3.6844516613     1.7786638990
   20      H       4.8797225822    -0.6232737649     0.1894740251
   21      H       4.1023542748     0.9171088348     0.6716155878
   22      H      -0.3976712767    -4.0918693105     0.3895018397
   23      H       1.6253548600    -2.6615229653     0.2241672822
   24      C      -3.2996400196    -0.4665057072    -0.1191363071
   25      H      -3.4788667635    -0.0773979333    -1.1246929862
   26      H      -3.4312493401     0.3662448015     0.5773310827
   27      H      -4.0627836852    -1.2146492155     0.1014262617
 ----------------------------------------------------------------

   15    -727.5472350469      5.86E-09 Convergence criterion met
 Total energy in the final basis set = -727.5472350469

                    Orbital Energies (a.u.)
 --------------------------------------------------------------

 Alpha MOs
 -- Occupied --
-19.178 -19.168 -19.120 -19.112 -10.312 -10.306 -10.233 -10.222
-10.207 -10.207 -10.204 -10.192 -10.192 -10.191 -10.175  -1.120
 -1.110  -1.031  -1.024  -0.885  -0.801  -0.790  -0.747  -0.726
 -0.700  -0.653  -0.624  -0.580  -0.571  -0.543  -0.519  -0.501
 -0.495  -0.490  -0.479  -0.477  -0.462  -0.444  -0.434  -0.429
 -0.423  -0.416  -0.403  -0.393  -0.381  -0.371  -0.369  -0.367
 -0.356  -0.321  -0.307  -0.293  -0.290  -0.271  -0.261

          Ground-State Mulliken Net Atomic Charges

     Atom                 Charge (a.u.)
  ----------------------------------------
      1 C                     0.095837
      2 C                     0.768691
      3 C                    -0.051236
      4 C                    -0.939687
      5 O                    -0.104675
      6 O                    -0.225437
      7 O                     0.081658
      8 O                    -0.133616
      9 C                    -0.215810
     10 C                    -0.213912
     11 C                    -0.360181
     12 C                    -0.072807
     13 C                    -0.634952
     14 C                     0.467872
     15 H                     0.191481
     16 H                     0.186982
     17 H                     0.118365
     18 H                     0.161743
     19 H                     0.149944
     20 H                     0.153923
     21 H                     0.178522
     22 H                     0.183409
     23 H                     0.185280
     24 C                    -0.499474
     25 H                     0.193287
     26 H                     0.172201
     27 H                     0.162592
  ----------------------------------------
  Sum of atomic charges =     0.000000

                    Cartesian Multipole Moments
 -----------------------------------------------------------------
    Charge (ESU x 10^10)
                 0.0000
    Dipole Moment (Debye)
         X       0.7430      Y      -1.7026      Z       2.0285
       Tot       2.7506
    Quadrupole Moments (Debye-Ang)
        XX     -72.3347     XY       1.4122     YY     -79.2204
        XZ      -2.2558     YZ       5.3876     ZZ     -94.0325

 Frequency:        18.67                  63.73                  77.55
 Force Cnst:      0.0010                 0.0085                 0.0109
 Red. Mass:       4.8309                 3.5566                 3.0718
 IR Intens:        1.031                  1.145                  2.616
 Frequency:        95.64                 111.13                 122.96
 Force Cnst:      0.0110                 0.0113                 0.0127
 Red. Mass:       2.0473                 1.5543                 1.4291
 IR Intens:        1.229                  2.512                  0.021
 Frequency:       136.61                 143.27                 159.40
 Force Cnst:      0.0237                 0.0146                 0.0540
 Red. Mass:       2.1600                 1.2064                 3.6092
 IR Intens:        1.034                  0.980                  1.638
 Frequency:       183.34                 217.14                 238.54
 Force Cnst:      0.0903                 0.0945                 0.1704
 Red. Mass:       4.5599                 3.4028                 5.0820
 IR Intens:        0.041                  3.290                  3.944
 Frequency:       280.34                 298.70                 316.17
 Force Cnst:      0.2239                 0.2255                 0.3280
 Red. Mass:       4.8362                 4.2894                 5.5695
 IR Intens:        3.237                 10.377                  5.779
 Frequency:       354.46                 383.89                 431.87
 Force Cnst:      0.3117                 0.4786                 0.5085
 Red. Mass:       4.2102                 5.5120                 4.6271
 IR Intens:       16.061                  8.192                  1.233
 Frequency:       487.06                 506.10                 565.74
 Force Cnst:      0.6083                 0.6764                 0.8566
 Red. Mass:       4.3518                 4.4823                 4.5423
 IR Intens:        3.683                  2.773                  0.560
 Frequency:       590.60                 710.46                 733.91
 Force Cnst:      1.0047                 1.9214                 2.0555
 Red. Mass:       4.8889                 6.4609                 6.4771
 IR Intens:        5.572                  7.994                  3.536
 Frequency:       760.60                 781.29                 798.36
 Force Cnst:      1.2767                 0.7373                 2.0722
 Red. Mass:       3.7457                 2.0501                 5.5181
 IR Intens:       46.638                 41.618                  5.858
 Frequency:       829.54                 840.81                 895.06
 Force Cnst:      1.2808                 2.1194                 2.3007
 Red. Mass:       3.1592                 5.0882                 4.8743
 IR Intens:        0.837                  4.379                 12.521
 Frequency:       937.62                 977.92                 998.46
 Force Cnst:      0.7093                 3.5128                 0.7914
 Red. Mass:       1.3694                 6.2344                 1.3473
 IR Intens:        0.086                  9.481                  0.211
 Frequency:      1004.11                1043.93                1063.11
 Force Cnst:      1.4780                 1.7803                 1.0262
 Red. Mass:       2.4881                 2.7727                 1.5411
 IR Intens:        6.932                 21.952                  2.125
 Frequency:      1095.79                1138.40                1169.87
 Force Cnst:      2.2692                 1.7830                 1.0392
 Red. Mass:       3.2076                 2.3352                 1.2887
 IR Intens:       93.367                 86.184                  0.959
 Frequency:      1172.88                1173.39                1197.92
 Force Cnst:      1.0409                 1.8975                 1.1073
 Red. Mass:       1.2843                 2.3390                 1.3096
 IR Intens:        1.848                124.769                  1.789
 Frequency:      1210.74                1216.76                1268.51
 Force Cnst:      1.3681                 1.7203                 1.8318
 Red. Mass:       1.5840                 1.9722                 1.9322
 IR Intens:       30.318                130.040                 59.376
 Frequency:      1286.68                1295.06                1326.54
 Force Cnst:      5.8842                 3.6022                 7.7043
 Red. Mass:       6.0325                 3.6453                 7.4310
 IR Intens:      297.864                349.654                 18.468
 Frequency:      1418.26                1460.20                1469.06
 Force Cnst:      1.4629                 1.8775                 1.5466
 Red. Mass:       1.2344                 1.4946                 1.2163
 IR Intens:        4.183                 10.193                 10.372
 Frequency:      1474.63                1481.98                1482.33
 Force Cnst:      1.8985                 1.3642                 1.3539
 Red. Mass:       1.4819                 1.0542                 1.0458
 IR Intens:       56.671                  8.430                 11.707
 Frequency:      1488.62                1489.25                1495.26
 Force Cnst:      2.4888                 1.6112                 1.3805
 Red. Mass:       1.9062                 1.2330                 1.0480
 IR Intens:        5.645                  7.726                  7.256
 Frequency:      1497.96                1507.64                1616.16
 Force Cnst:      1.3929                 1.7544                10.3448
 Red. Mass:       1.0536                 1.3100                 6.7221
 IR Intens:       10.596                  3.173                 10.175
 Frequency:      1629.99                1766.64                1787.65
 Force Cnst:      9.0520                21.5810                22.3275
 Red. Mass:       5.7826                11.7361                11.8584
 IR Intens:        9.939                249.897                272.647
 Frequency:      3035.23                3050.09                3050.35
 Force Cnst:      5.6246                 5.6417                 5.6442
 Red. Mass:       1.0362                 1.0293                 1.0296
 IR Intens:       18.060                 30.658                 42.871
 Frequency:      3090.80                3111.26                3123.30
 Force Cnst:      6.1922                 6.2873                 6.3625
 Red. Mass:       1.1002                 1.1024                 1.1070
 IR Intens:        8.448                 15.264                 17.430
 Frequency:      3125.97                3156.24                3156.67
 Force Cnst:      6.3747                 6.4928                 6.4952
 Red. Mass:       1.1072                 1.1062                 1.1063
 IR Intens:       13.561                 14.191                 13.976
 Frequency:      3164.88                3184.53                3220.66
 Force Cnst:      6.4210                 6.5334                 6.6789
 Red. Mass:       1.0880                 1.0934                 1.0929
 IR Intens:        7.160                 15.370                  2.064

 STANDARD THERMODYNAMIC QUANTITIES AT   298.15 K  AND     1.00 ATM

   This Molecule has  0 Imaginary Frequencies
   Zero point vibrational energy:      133.302 kcal/mol

   Atom    1 Element C  Has Mass   12.00000
   Atom    2 Element C  Has Mass   12.00000
   Atom    3 Element C  Has Mass   12.00000
   Atom    4 Element C  Has Mass   12.00000
   Atom    5 Element O  Has Mass   15.99491
   Atom    6 Element O  Has Mass   15.99491
   Atom    7 Element O  Has Mass   15.99491
   Atom    8 Element O  Has Mass   15.99491
   Atom    9 Element C  Has Mass   12.00000
   Atom   10 Element C  Has Mass   12.00000
   Atom   11 Element C  Has Mass   12.00000
   Atom   12 Element C  Has Mass   12.00000
   Atom   13 Element C  Has Mass   12.00000
   Atom   14 Element C  Has Mass   12.00000
   Atom   15 Element H  Has Mass    1.00783
   Atom   16 Element H  Has Mass    1.00783
   Atom   17 Element H  Has Mass    1.00783
   Atom   18 Element H  Has Mass    1.00783
   Atom   19 Element H  Has Mass    1.00783
   Atom   20 Element H  Has Mass    1.00783
   Atom   21 Element H  Has Mass    1.00783
   Atom   22 Element H  Has Mass    1.00783
   Atom   23 Element H  Has Mass    1.00783
   Atom   24 Element C  Has Mass   12.00000
   Atom   25 Element H  Has Mass    1.00783
   Atom   26 Element H  Has Mass    1.00783
   Atom   27 Element H  Has Mass    1.00783
   Molecular Mass:   208.073600 amu
   Principal axes and moments of inertia in amu*Bohr^2:
                             1           2           3
    Eigenvalues --     2454.14946  3114.13141  5139.66144
          X               0.99986     0.01645    -0.00189
          Y              -0.01643     0.99982     0.00976
          Z               0.00205    -0.00972     0.99995
   Rotational Symmetry Number is   1
   The Molecule is an Asymmetric Top
   Translational Enthalpy:        0.889 kcal/mol
   Rotational Enthalpy:           0.889 kcal/mol
   Vibrational Enthalpy:        141.069 kcal/mol
   gas constant (RT):             0.592 kcal/mol
   Translational Entropy:        41.902  cal/mol.K
   Rotational Entropy:           32.041  cal/mol.K
   Vibrational Entropy:          51.734  cal/mol.K

   Total Enthalpy:              143.439 kcal/mol
   Total Entropy:               125.676  cal/mol.K

 Total job time:  5839.32s(wall), 31358.46s(cpu)
        *  Thank you very much for using Q-Chem.  Have a nice day.  *
