 Q-Chem 5.0, Q-Chem, Inc., Pleasanton, CA (2017)
 Q-Chem 5.0.0 for Intel X86 EM64T Linux

User input:
--------------------------------------------------------------
$molecule
0  1
C    0.656  -1.997   0.550
C   -0.379  -2.055   1.685
C    1.075  -0.633   0.035
C   -0.743  -0.756   2.367
O    2.254  -0.766  -0.643
O    0.466   0.414   0.178
O    0.380  -0.211   2.923
O   -1.879  -0.339   2.537
C    0.159   1.039   3.578
C    2.798   0.433  -1.203
C   -0.074  -2.721  -0.584
C   -0.239  -4.209  -0.268
C   -1.341  -4.194   0.796
C   -1.585  -2.694   0.978
O   -1.425  -2.250  -0.391
H    1.566  -2.528   0.855
H   -0.041  -2.721   2.491
H   -0.505   1.690   2.999
H    2.061   1.233  -1.326
H    0.286  -2.514  -1.595
H   -0.592  -4.755  -1.150
H    0.687  -4.677   0.078
H   -2.237  -4.682   0.398
H   -1.053  -4.703   1.720
H   -2.574  -2.451   1.372
H   -0.249   0.863   4.578
H    1.124   1.543   3.677
H    3.204   0.190  -2.189
H    3.617   0.777  -0.565
$end

$opt
CONSTRAINT
tors    2    1    3    5    162.3
tors    1    2    4    7    -66.6
ENDCONSTRAINT
$end

$rem
JOBTYPE                   OPT
METHOD                    B3LYP
DFT_D                     D3_OP
BASIS                     STO-3G
GEOM_OPT_MAX_CYCLES       500
SYMMETRY                  False
THRESH                    12
SCF_CONVERGENCE           8
MAX_SUB_FILE_NUM          128
MEM_STATIC                400
MEM_TOTAL                 4000
$end

--------------------------------------------------------------

   14    -755.6953363584      6.30E-09 Convergence criterion met
 Total energy in the final basis set = -755.6953363584
   13    -755.7252184513      3.75E-09 Convergence criterion met
 Total energy in the final basis set = -755.7252184513
   13    -755.7320649062      4.97E-09 Convergence criterion met
 Total energy in the final basis set = -755.7320649062
   12    -755.7327638103      5.05E-09 Convergence criterion met
 Total energy in the final basis set = -755.7327638103
   12    -755.7329327674      1.38E-09 Convergence criterion met
 Total energy in the final basis set = -755.7329327674
   11    -755.7329871025      5.23E-09 Convergence criterion met
 Total energy in the final basis set = -755.7329871025
   11    -755.7330299104      3.57E-09 Convergence criterion met
 Total energy in the final basis set = -755.7330299104
   11    -755.7330993325      5.53E-09 Convergence criterion met
 **  OPTIMIZATION CONVERGED  **
 Total job time:  63.97s(wall), 1489.44s(cpu)
        *  Thank you very much for using Q-Chem.  Have a nice day.  *

User input: 2 of 3

nid01081 10.128.4
Q-Chem Developer Version! Running on 10.128.4.*
                  Welcome to Q-Chem
     A Quantum Leap Into The Future Of Chemistry

 Q-Chem 5.0, Q-Chem, Inc., Pleasanton, CA (2017)

 Yihan Shao,  Zhengting Gan,  E. Epifanovsky,  A. T. B. Gilbert,  M. Wormit,
 J. Kussmann,  A. W. Lange,  A. Behn,  Jia Deng,  Xintian Feng,  D. Ghosh,
 M. Goldey,  P. R. Horn,  L. D. Jacobson,  I. Kaliman,  T. Kus,  A. Landau,
 Jie Liu,  E. I. Proynov,  R. M. Richard,  R. P. Steele,  E. J. Sundstrom,
 H. L. Woodcock III,  P. M. Zimmerman,  D. Zuev,  B. Albrecht,  E. Alguire,
 S. A. Baeppler,  Z. Benda,  Y. A. Bernard,  E. J. Berquist,  K. B. Bravaya,
 D. Casanova,  Chun-Min Chang,  Yunqing Chen,  A. Chien,  K. D. Closser,
 M. P. Coons,  S. Dasgupta,  M. Diedenhofen,  Hainam Do,  R. G. Edgar,
 Po-Tung Fang,  S. Fatehi,  Qingguo Feng,  Qinghui Ge,  A. Ghysels,
 J. Gomes,  J. Gonthier,  A. Gunina,  M. W. D. Hanson-Heine,
 P. H. P. Harbach,  A. W. Hauser,  J. E. Herr,  E. G. Hohenstein,
 Z. C. Holden,  Kerwin Hui,  T.-C. Jagau,  Hyunjun Ji,  B. Kaduk,
 K. Khistyaev,  Jaehoon Kim,  P. Klunzinger,  K. Koh,  D. Kosenkov,
 T. Kowalczyk,  C. M. Krauter,  A. Kunitsa,  Ka Un Lao,  A. Laurent,
 K. V. Lawler,  Joonho Lee,  D. Lefrancois,  S. Lehtola,  D. S. Levine,
 Yi-Pei Li,  You-Sheng Lin,  Fenglai Liu,  E. Livshits,  A. Luenser,
 P. Manohar,  E. Mansoor,  S. F. Manzer,  Shan-Ping Mao,  Yuezhi Mao,
 N. Mardirossian,  A. V. Marenich,  L. A. Martinez-Martinez,  S. A. Maurer,
 N. J. Mayhall,  S. C. McKenzie,  J.-M. Mewes,  A. F. Morrison,  K. Nanda,
 T. S. Nguyen-Beck,  R. Olivares-Amaya,  J. A. Parkhill,  T. M. Perrine,
 F. Plasser,  S. Prager,  A. Prociuk,  D. R. Rehn,  F. Rob,  M. Schneider,
 N. Sergueev,  S. M. Sharada,  S. Sharma,  D. W. Small,  T. Stauch,
 T. Stein,  Yu-Chuan Su,  A. J. W. Thom,  T. Tsuchimochi,  L. Vogt,
 O. Vydrov,  M. A. Watson,  J. Wenzel,  M. de Wergifosse,  T. A. Wesolowski,
 A. White,  J. Witte,  A. Yamada,  Jun Yang,  K. Yao,  S. Yeganeh,
 S. R. Yost,  Zhi-Qiang You,  A. Zech,  Igor Ying Zhang,  Xing Zhang,
 Yan Zhao,  Ying Zhu,  B. R. Brooks,  G. K. L. Chan,  C. J. Cramer,
 M. S. Gordon,  W. J. Hehre,  A. Klamt,  M. W. Schmidt,  C. D. Sherrill,
 D. G. Truhlar,  A. Aspuru-Guzik,  R. Baer,  A. T. Bell,  N. A. Besley,
 Jeng-Da Chai,  A. Dreuw,  B. D. Dunietz,  T. R. Furlani,  Chao-Ping Hsu,
 Yousung Jung,  Jing Kong,  D. S. Lambrecht,  WanZhen Liang,  C. Ochsenfeld,
 V. A. Rassolov,  L. V. Slipchenko,  J. E. Subotnik,  T. Van Voorhis,
 J. M. Herbert,  A. I. Krylov,  P. M. W. Gill,  M. Head-Gordon

 Contributors to earlier versions of Q-Chem not listed above:
 R. D. Adamson,  B. Austin,  J. Baker,  G. J. O. Beran,  K. Brandhorst,
 S. T. Brown,  E. F. C. Byrd,  A. K. Chakraborty,  C.-L. Cheng,
 Siu Hung Chien,  D. M. Chipman,  D. L. Crittenden,  H. Dachsel,
 R. A. DiStasio Jr.,  R. J. Doerksen,  A. D. Dutoi,  L. Fusti-Molnar,
 W. A. Goddard III,  A. Golubeva-Zadorozhnaya,  S. R. Gwaltney,  G. Hawkins,
 A. Heyden,  S. Hirata,  G. Kedziora,  F. J. Keil,  C. Kelley,  Jihan Kim,
 R. A. King,  R. Z. Khaliullin,  P. P. Korambath,  W. Kurlancheek,
 A. M. Lee,  M. S. Lee,  S. V. Levchenko,  Ching Yeh Lin,  D. Liotard,
 R. C. Lochan,  I. Lotan,  P. E. Maslen,  N. Nair,  D. P. O'Neill,
 D. Neuhauser,  E. Neuscamman,  C. M. Oana,  R. Olson,  B. Peters,
 R. Peverati,  P. A. Pieniazek,  Y. M. Rhee,  J. Ritchie,  M. A. Rohrdanz,
 E. Rosta,  N. J. Russ,  H. F. Schaefer III,  N. E. Schultz,  N. Shenvi,
 A. C. Simmonett,  A. Sodt,  D. Stuck,  K. S. Thanthiriwatte,  V. Vanovschi,
 Tao Wang,  A. Warshel,  C. F. Williams,  Q. Wu,  X. Xu,  W. Zhang

 Please cite Q-Chem as follows:
 Y. Shao et al., Mol. Phys. 113, 184-215 (2015)
 DOI: 10.1080/00268976.2014.952696

 Q-Chem 5.0.0 for Intel X86 EM64T Linux

 Parts of Q-Chem use Armadillo 5.200.1 (Boston Tea Smuggler).
 http://arma.sourceforge.net/

 Q-Chem begins on Wed Oct  4 17:30:58 2017

Host: nid01081
0

     Scratch files written to /global/cscratch1/sd/junteng/scratch/13/opt_1001o-.save//
The previous job contains 0 fragments, simply inherited here

Checking the input file for inconsistencies... 	...done.

--------------------------------------------------------------
User input:
--------------------------------------------------------------

$molecule
   read
$end

$rem
JOBTYPE                   OPT
METHOD                    B3LYP
DFT_D                     D3_OP
BASIS                     6-311++G(d,p)
GEOM_OPT_MAX_CYCLES       500
GEOM_OPT_TOL_GRADIENT     1
GEOM_OPT_TOL_DISPLACEMENT 1
GEOM_OPT_TOL_ENERGY       1
SYMMETRY                  False
THRESH                    12
SCF_CONVERGENCE           8
MAX_SUB_FILE_NUM          128
MEM_STATIC                400
MEM_TOTAL                 4000
$end

--------------------------------------------------------------

   10    -765.8625435242      7.12E-09 Convergence criterion met
 Total energy in the final basis set = -765.8625435242
   10    -765.8625428168      5.72E-09 Convergence criterion met
 Total energy in the final basis set = -765.8625428168
   10    -765.8625434611      4.80E-09 Convergence criterion met
 Total energy in the final basis set = -765.8625434611
    7    -765.8625434047      7.60E-09 Convergence criterion met
 Total energy in the final basis set = -765.8625434047
    6    -765.8625433847      9.91E-09 Convergence criterion met
 Total energy in the final basis set = -765.8625433847
    6    -765.8625433761      4.66E-09 Convergence criterion met
 Total energy in the final basis set = -765.8625433761
 Final energy is   -765.862543376051
        *  Thank you very much for using Q-Chem.  Have a nice day.  *
 Q-Chem 5.0, Q-Chem, Inc., Pleasanton, CA (2017)
 Q-Chem 5.0.0 for Intel X86 EM64T Linux

             Standard Nuclear Orientation (Angstroms)
    I     Atom           X                Y                Z
 ----------------------------------------------------------------
    1      C       0.3736931117    -0.6608058028    -0.5902715312
    2      C       0.6311643201     0.8787281853    -0.4914079942
    3      C      -0.8855114238    -1.1642234867     0.0812090179
    4      C      -0.5266070170     1.7298792952     0.0001288033
    5      O      -1.2564576233    -2.3457421305    -0.4654741079
    6      O      -1.4649957023    -0.6497635980     1.0033716277
    7      O      -1.5856884077     1.5866007148    -0.8266098333
    8      O      -0.4975758508     2.4882235223     0.9338301562
    9      C      -2.7930191683     2.2592905587    -0.4256949439
   10      C      -2.4006407001    -2.9846198002     0.1318515110
   11      C       1.6163631982    -1.1908991287     0.1966634644
   12      C       2.8977498011    -0.9571432475    -0.6376594861
   13      C       3.1245631377     0.5708929552    -0.4176955975
   14      C       1.8819656774     0.9300659621     0.4216674810
   15      O       1.7303287326    -0.2357447873     1.2516235396
   16      H       0.3749884908    -1.0149306498    -1.6200101481
   17      H       0.8632467375     1.2575029039    -1.4908744160
   18      H      -3.1311599143     1.8682628991     0.5351459041
   19      H      -3.2781441902    -2.3408393451     0.0556164820
   20      H       1.4977867920    -2.1913477055     0.6079160990
   21      H       3.7228419875    -1.5464644101    -0.2355712321
   22      H       2.7667407630    -1.2294411010    -1.6869563656
   23      H       4.0336136925     0.7586198565     0.1553572932
   24      H       3.1841232519     1.1373990451    -1.3491123662
   25      H       1.9456186708     1.8179029157     1.0433648634
   26      H      -2.6256703922     3.3341507823    -0.3444408341
   27      H      -3.5194983400     2.0423024257    -1.2060591602
   28      H      -2.2091032208    -3.2067301204     1.1827407564
   29      H      -2.5485991383    -3.9019702109    -0.4337922826
 ----------------------------------------------------------------

   15    -765.8625384105      3.42E-09 Convergence criterion met
 Total energy in the final basis set = -765.8625384105

                    Orbital Energies (a.u.)
 --------------------------------------------------------------

 Alpha MOs
 -- Occupied --
-19.177 -19.167 -19.131 -19.119 -19.111 -10.308 -10.302 -10.240
-10.232 -10.229 -10.223 -10.207 -10.203 -10.183 -10.180  -1.118
 -1.108  -1.064  -1.031  -1.023  -0.832  -0.784  -0.777  -0.738
 -0.725  -0.654  -0.605  -0.597  -0.577  -0.560  -0.546  -0.520
 -0.504  -0.492  -0.487  -0.485  -0.478  -0.471  -0.459  -0.430
 -0.421  -0.420  -0.412  -0.396  -0.386  -0.374  -0.368  -0.366
 -0.360  -0.358  -0.339  -0.333  -0.320  -0.307  -0.291  -0.281
 -0.272

          Ground-State Mulliken Net Atomic Charges

     Atom                 Charge (a.u.)
  ----------------------------------------
      1 C                     0.067439
      2 C                     0.100393
      3 C                    -0.668393
      4 C                    -0.411338
      5 O                    -0.024171
      6 O                    -0.201936
      7 O                    -0.044370
      8 O                    -0.220003
      9 C                    -0.190015
     10 C                    -0.235469
     11 C                     0.349484
     12 C                    -0.471929
     13 C                    -0.456069
     14 C                    -0.154923
     15 O                    -0.142781
     16 H                     0.285946
     17 H                     0.233640
     18 H                     0.189838
     19 H                     0.171884
     20 H                     0.266060
     21 H                     0.180242
     22 H                     0.123215
     23 H                     0.192391
     24 H                     0.125234
     25 H                     0.286028
     26 H                     0.166060
     27 H                     0.148877
     28 H                     0.183088
     29 H                     0.151578
  ----------------------------------------
  Sum of atomic charges =     0.000000

                    Cartesian Multipole Moments
 -----------------------------------------------------------------
    Charge (ESU x 10^10)
                 0.0000
    Dipole Moment (Debye)
         X      -0.0680      Y      -2.1090      Z      -3.7458
       Tot       4.2992
    Quadrupole Moments (Debye-Ang)
        XX     -76.4735     XY       2.0867     YY     -83.7949
        XZ      -0.9923     YZ      -5.1462     ZZ     -95.3181

 Frequency:        20.32                  62.48                  82.22
 Force Cnst:      0.0010                 0.0074                 0.0093
 Red. Mass:       4.2301                 3.2165                 2.3232
 IR Intens:        0.555                  0.828                  2.363
 Frequency:        84.76                  96.66                 134.11
 Force Cnst:      0.0145                 0.0094                 0.0255
 Red. Mass:       3.4272                 1.7148                 2.4066
 IR Intens:        0.633                  2.134                  0.451
 Frequency:       140.08                 145.67                 196.26
 Force Cnst:      0.0179                 0.0363                 0.0948
 Red. Mass:       1.5523                 2.9016                 4.1752
 IR Intens:        0.961                  2.122                  0.276
 Frequency:       217.55                 243.25                 274.38
 Force Cnst:      0.1471                 0.1167                 0.2218
 Red. Mass:       5.2757                 3.3483                 4.9996
 IR Intens:        2.251                  3.471                  7.711
 Frequency:       294.26                 328.96                 335.90
 Force Cnst:      0.1592                 0.2292                 0.2822
 Red. Mass:       3.1205                 3.5952                 4.2456
 IR Intens:        5.735                  5.454                 11.164
 Frequency:       372.53                 468.16                 563.71
 Force Cnst:      0.4694                 0.6415                 0.8116
 Red. Mass:       5.7406                 4.9679                 4.3346
 IR Intens:        9.895                  9.900                 21.948
 Frequency:       627.38                 657.92                 688.91
 Force Cnst:      1.4651                 1.1614                 1.5948
 Red. Mass:       6.3177                 4.5539                 5.7034
 IR Intens:       13.638                  1.268                  4.112
 Frequency:       741.43                 797.16                 816.36
 Force Cnst:      1.7771                 1.6211                 0.9183
 Red. Mass:       5.4867                 4.3297                 2.3386
 IR Intens:        7.653                  7.027                  6.222
 Frequency:       828.78                 836.18                 860.81
 Force Cnst:      1.3230                 1.9520                 1.6040
 Red. Mass:       3.2692                 4.7383                 3.6741
 IR Intens:       19.928                  3.139                  2.035
 Frequency:       898.12                 908.83                 915.75
 Force Cnst:      1.2670                 1.3505                 1.5299
 Red. Mass:       2.6660                 2.7752                 3.0963
 IR Intens:        3.329                 11.710                  4.019
 Frequency:       934.85                 958.17                 974.51
 Force Cnst:      1.6892                 3.0874                 1.3278
 Red. Mass:       3.2805                 5.7076                 2.3730
 IR Intens:       25.806                 33.730                 17.566
 Frequency:       984.38                1015.71                1026.82
 Force Cnst:      2.5111                 2.0007                 2.3137
 Red. Mass:       4.3983                 3.2916                 3.7245
 IR Intens:        3.996                 30.015                 18.721
 Frequency:      1067.61                1073.14                1073.38
 Force Cnst:      2.3457                 1.3636                 1.6430
 Red. Mass:       3.4930                 2.0097                 2.4204
 IR Intens:       35.337                 27.081                  6.194
 Frequency:      1163.15                1171.39                1173.32
 Force Cnst:      1.0064                 1.0864                 1.1088
 Red. Mass:       1.2625                 1.3437                 1.3670
 IR Intens:       53.863                 22.001                 34.200
 Frequency:      1177.03                1200.83                1208.11
 Force Cnst:      1.6872                 1.3030                 1.4653
 Red. Mass:       2.0671                 1.5336                 1.7040
 IR Intens:      197.214                  3.211                 98.249
 Frequency:      1211.68                1216.22                1230.95
 Force Cnst:      1.3841                 1.7248                 1.0908
 Red. Mass:       1.6001                 1.9790                 1.2219
 IR Intens:       60.951                260.197                 21.113
 Frequency:      1242.25                1248.72                1282.39
 Force Cnst:      1.3607                 1.4390                 1.2167
 Red. Mass:       1.4965                 1.5663                 1.2557
 IR Intens:       22.348                 25.349                  3.375
 Frequency:      1287.40                1313.98                1319.83
 Force Cnst:      1.5172                 1.4336                 1.4972
 Red. Mass:       1.5537                 1.4093                 1.4588
 IR Intens:       18.505                  1.856                 39.160
 Frequency:      1352.82                1372.83                1388.79
 Force Cnst:      1.6842                 1.7974                 1.9630
 Red. Mass:       1.5620                 1.6187                 1.7275
 IR Intens:       26.338                 79.704                 36.824
 Frequency:      1469.99                1470.90                1482.08
 Force Cnst:      1.5208                 1.5316                 1.3521
 Red. Mass:       1.1946                 1.2015                 1.0447
 IR Intens:       18.767                 11.360                  8.958
 Frequency:      1484.59                1489.93                1497.18
 Force Cnst:      1.3547                 1.4150                 1.3847
 Red. Mass:       1.0432                 1.0819                 1.0485
 IR Intens:       10.150                  2.314                 11.103
 Frequency:      1499.18                1511.04                1795.55
 Force Cnst:      1.3844                 1.4808                21.8040
 Red. Mass:       1.0455                 1.1008                11.4786
 IR Intens:        7.651                  6.059                 69.024
 Frequency:      1804.83                3049.59                3049.91
 Force Cnst:     22.0310                 5.6411                 5.6413
 Red. Mass:      11.4792                 1.0295                 1.0293
 IR Intens:      390.320                 23.324                 47.149
 Frequency:      3056.84                3061.11                3067.69
 Force Cnst:      5.8659                 5.9336                 5.8920
 Red. Mass:       1.0655                 1.0748                 1.0627
 IR Intens:       14.106                 16.280                 36.098
 Frequency:      3096.70                3111.41                3117.69
 Force Cnst:      6.2540                 6.2434                 6.2884
 Red. Mass:       1.1069                 1.0946                 1.0981
 IR Intens:        0.835                 10.153                 33.999
 Frequency:      3122.57                3125.00                3130.41
 Force Cnst:      6.3597                 6.3716                 6.2928
 Red. Mass:       1.1070                 1.1074                 1.0899
 IR Intens:       18.479                 15.491                 22.274
 Frequency:      3153.19                3156.10                3162.92
 Force Cnst:      6.4818                 6.4924                 6.4284
 Red. Mass:       1.1065                 1.1063                 1.0906
 IR Intens:       13.977                 14.406                  5.674

 STANDARD THERMODYNAMIC QUANTITIES AT   298.15 K  AND     1.00 ATM

   This Molecule has  0 Imaginary Frequencies
   Zero point vibrational energy:      149.069 kcal/mol

   Atom    1 Element C  Has Mass   12.00000
   Atom    2 Element C  Has Mass   12.00000
   Atom    3 Element C  Has Mass   12.00000
   Atom    4 Element C  Has Mass   12.00000
   Atom    5 Element O  Has Mass   15.99491
   Atom    6 Element O  Has Mass   15.99491
   Atom    7 Element O  Has Mass   15.99491
   Atom    8 Element O  Has Mass   15.99491
   Atom    9 Element C  Has Mass   12.00000
   Atom   10 Element C  Has Mass   12.00000
   Atom   11 Element C  Has Mass   12.00000
   Atom   12 Element C  Has Mass   12.00000
   Atom   13 Element C  Has Mass   12.00000
   Atom   14 Element C  Has Mass   12.00000
   Atom   15 Element O  Has Mass   15.99491
   Atom   16 Element H  Has Mass    1.00783
   Atom   17 Element H  Has Mass    1.00783
   Atom   18 Element H  Has Mass    1.00783
   Atom   19 Element H  Has Mass    1.00783
   Atom   20 Element H  Has Mass    1.00783
   Atom   21 Element H  Has Mass    1.00783
   Atom   22 Element H  Has Mass    1.00783
   Atom   23 Element H  Has Mass    1.00783
   Atom   24 Element H  Has Mass    1.00783
   Atom   25 Element H  Has Mass    1.00783
   Atom   26 Element H  Has Mass    1.00783
   Atom   27 Element H  Has Mass    1.00783
   Atom   28 Element H  Has Mass    1.00783
   Atom   29 Element H  Has Mass    1.00783
   Molecular Mass:   214.084170 amu
   Principal axes and moments of inertia in amu*Bohr^2:
                             1           2           3
    Eigenvalues --     2434.94929  2983.12701  4682.18252
          X               0.99991     0.00860    -0.01010
          Y              -0.00867     0.99994    -0.00714
          Z               0.01004     0.00723     0.99992
   Rotational Symmetry Number is   1
   The Molecule is an Asymmetric Top
   Translational Enthalpy:        0.889 kcal/mol
   Rotational Enthalpy:           0.889 kcal/mol
   Vibrational Enthalpy:        156.344 kcal/mol
   gas constant (RT):             0.592 kcal/mol
   Translational Entropy:        41.987  cal/mol.K
   Rotational Entropy:           31.897  cal/mol.K
   Vibrational Entropy:          48.529  cal/mol.K

   Total Enthalpy:              158.714 kcal/mol
   Total Entropy:               122.413  cal/mol.K

 Total job time:  7429.24s(wall), 40853.37s(cpu)
        *  Thank you very much for using Q-Chem.  Have a nice day.  *
