 Q-Chem 5.0, Q-Chem, Inc., Pleasanton, CA (2017)
 Q-Chem 5.0.0 for Intel X86 EM64T Linux

User input:
--------------------------------------------------------------
$molecule
0  1
C    0.469  -2.369   0.246
C   -0.100  -2.666   1.497
C    0.820  -0.970  -0.128
C   -0.250  -1.617   2.525
O    1.710  -0.973  -1.154
O    0.353   0.027   0.395
O    0.994  -1.244   2.918
O   -1.315  -1.271   3.005
C    0.990  -0.231   3.923
C    2.104   0.331  -1.586
C    0.633  -3.406  -0.690
C    0.237  -4.708  -0.384
C   -0.335  -4.993   0.854
C   -0.510  -3.982   1.810
H    0.475   0.666   3.564
H    1.246   0.871  -1.997
H   -0.645  -6.015   1.070
H    0.524  -0.605   4.840
H    2.028   0.031   4.144
H    2.851   0.214  -2.376
H    2.557   0.890  -0.761
H    0.365  -5.501  -1.118
H    1.053  -3.209  -1.674
C   -1.128  -4.326   3.139
H   -2.093  -3.824   3.253
H   -0.462  -4.036   3.958
H   -1.304  -5.403   3.231
$end

$opt
CONSTRAINT
tors    2    1    3    5    158.6
tors    1    2    4    7    -67.3
ENDCONSTRAINT
$end

$rem
JOBTYPE                   OPT
METHOD                    B3LYP
DFT_D                     D3_OP
BASIS                     STO-3G
GEOM_OPT_MAX_CYCLES       500
SYMMETRY                  False
THRESH                    12
SCF_CONVERGENCE           8
MAX_SUB_FILE_NUM          128
MEM_STATIC                400
MEM_TOTAL                 4000
$end

--------------------------------------------------------------

   15    -717.9257267684      8.11E-09 Convergence criterion met
 Total energy in the final basis set = -717.9257267684
   14    -717.9522162563      5.86E-09 Convergence criterion met
 Total energy in the final basis set = -717.9522162563
   13    -717.9541306550      8.28E-09 Convergence criterion met
 Total energy in the final basis set = -717.9541306550
   12    -717.9543451916      4.29E-09 Convergence criterion met
 Total energy in the final basis set = -717.9543451916
   11    -717.9543540345      3.45E-09 Convergence criterion met
 Total energy in the final basis set = -717.9543540345
   10    -717.9543591139      9.41E-09 Convergence criterion met
 Total energy in the final basis set = -717.9543591139
   10    -717.9543654919      7.80E-09 Convergence criterion met
 Total energy in the final basis set = -717.9543654919
   11    -717.9543817117      3.67E-09 Convergence criterion met
 **  OPTIMIZATION CONVERGED  **
 Total job time:  49.13s(wall), 1154.05s(cpu)
        *  Thank you very much for using Q-Chem.  Have a nice day.  *

User input: 2 of 3

nid01080 10.128.4
Q-Chem Developer Version! Running on 10.128.4.*
                  Welcome to Q-Chem
     A Quantum Leap Into The Future Of Chemistry

 Q-Chem 5.0, Q-Chem, Inc., Pleasanton, CA (2017)

 Yihan Shao,  Zhengting Gan,  E. Epifanovsky,  A. T. B. Gilbert,  M. Wormit,
 J. Kussmann,  A. W. Lange,  A. Behn,  Jia Deng,  Xintian Feng,  D. Ghosh,
 M. Goldey,  P. R. Horn,  L. D. Jacobson,  I. Kaliman,  T. Kus,  A. Landau,
 Jie Liu,  E. I. Proynov,  R. M. Richard,  R. P. Steele,  E. J. Sundstrom,
 H. L. Woodcock III,  P. M. Zimmerman,  D. Zuev,  B. Albrecht,  E. Alguire,
 S. A. Baeppler,  Z. Benda,  Y. A. Bernard,  E. J. Berquist,  K. B. Bravaya,
 D. Casanova,  Chun-Min Chang,  Yunqing Chen,  A. Chien,  K. D. Closser,
 M. P. Coons,  S. Dasgupta,  M. Diedenhofen,  Hainam Do,  R. G. Edgar,
 Po-Tung Fang,  S. Fatehi,  Qingguo Feng,  Qinghui Ge,  A. Ghysels,
 J. Gomes,  J. Gonthier,  A. Gunina,  M. W. D. Hanson-Heine,
 P. H. P. Harbach,  A. W. Hauser,  J. E. Herr,  E. G. Hohenstein,
 Z. C. Holden,  Kerwin Hui,  T.-C. Jagau,  Hyunjun Ji,  B. Kaduk,
 K. Khistyaev,  Jaehoon Kim,  P. Klunzinger,  K. Koh,  D. Kosenkov,
 T. Kowalczyk,  C. M. Krauter,  A. Kunitsa,  Ka Un Lao,  A. Laurent,
 K. V. Lawler,  Joonho Lee,  D. Lefrancois,  S. Lehtola,  D. S. Levine,
 Yi-Pei Li,  You-Sheng Lin,  Fenglai Liu,  E. Livshits,  A. Luenser,
 P. Manohar,  E. Mansoor,  S. F. Manzer,  Shan-Ping Mao,  Yuezhi Mao,
 N. Mardirossian,  A. V. Marenich,  L. A. Martinez-Martinez,  S. A. Maurer,
 N. J. Mayhall,  S. C. McKenzie,  J.-M. Mewes,  A. F. Morrison,  K. Nanda,
 T. S. Nguyen-Beck,  R. Olivares-Amaya,  J. A. Parkhill,  T. M. Perrine,
 F. Plasser,  S. Prager,  A. Prociuk,  D. R. Rehn,  F. Rob,  M. Schneider,
 N. Sergueev,  S. M. Sharada,  S. Sharma,  D. W. Small,  T. Stauch,
 T. Stein,  Yu-Chuan Su,  A. J. W. Thom,  T. Tsuchimochi,  L. Vogt,
 O. Vydrov,  M. A. Watson,  J. Wenzel,  M. de Wergifosse,  T. A. Wesolowski,
 A. White,  J. Witte,  A. Yamada,  Jun Yang,  K. Yao,  S. Yeganeh,
 S. R. Yost,  Zhi-Qiang You,  A. Zech,  Igor Ying Zhang,  Xing Zhang,
 Yan Zhao,  Ying Zhu,  B. R. Brooks,  G. K. L. Chan,  C. J. Cramer,
 M. S. Gordon,  W. J. Hehre,  A. Klamt,  M. W. Schmidt,  C. D. Sherrill,
 D. G. Truhlar,  A. Aspuru-Guzik,  R. Baer,  A. T. Bell,  N. A. Besley,
 Jeng-Da Chai,  A. Dreuw,  B. D. Dunietz,  T. R. Furlani,  Chao-Ping Hsu,
 Yousung Jung,  Jing Kong,  D. S. Lambrecht,  WanZhen Liang,  C. Ochsenfeld,
 V. A. Rassolov,  L. V. Slipchenko,  J. E. Subotnik,  T. Van Voorhis,
 J. M. Herbert,  A. I. Krylov,  P. M. W. Gill,  M. Head-Gordon

 Contributors to earlier versions of Q-Chem not listed above:
 R. D. Adamson,  B. Austin,  J. Baker,  G. J. O. Beran,  K. Brandhorst,
 S. T. Brown,  E. F. C. Byrd,  A. K. Chakraborty,  C.-L. Cheng,
 Siu Hung Chien,  D. M. Chipman,  D. L. Crittenden,  H. Dachsel,
 R. A. DiStasio Jr.,  R. J. Doerksen,  A. D. Dutoi,  L. Fusti-Molnar,
 W. A. Goddard III,  A. Golubeva-Zadorozhnaya,  S. R. Gwaltney,  G. Hawkins,
 A. Heyden,  S. Hirata,  G. Kedziora,  F. J. Keil,  C. Kelley,  Jihan Kim,
 R. A. King,  R. Z. Khaliullin,  P. P. Korambath,  W. Kurlancheek,
 A. M. Lee,  M. S. Lee,  S. V. Levchenko,  Ching Yeh Lin,  D. Liotard,
 R. C. Lochan,  I. Lotan,  P. E. Maslen,  N. Nair,  D. P. O'Neill,
 D. Neuhauser,  E. Neuscamman,  C. M. Oana,  R. Olson,  B. Peters,
 R. Peverati,  P. A. Pieniazek,  Y. M. Rhee,  J. Ritchie,  M. A. Rohrdanz,
 E. Rosta,  N. J. Russ,  H. F. Schaefer III,  N. E. Schultz,  N. Shenvi,
 A. C. Simmonett,  A. Sodt,  D. Stuck,  K. S. Thanthiriwatte,  V. Vanovschi,
 Tao Wang,  A. Warshel,  C. F. Williams,  Q. Wu,  X. Xu,  W. Zhang

 Please cite Q-Chem as follows:
 Y. Shao et al., Mol. Phys. 113, 184-215 (2015)
 DOI: 10.1080/00268976.2014.952696

 Q-Chem 5.0.0 for Intel X86 EM64T Linux

 Parts of Q-Chem use Armadillo 5.200.1 (Boston Tea Smuggler).
 http://arma.sourceforge.net/

 Q-Chem begins on Wed Oct  4 18:05:16 2017

Host: nid01080
0

     Scratch files written to /global/cscratch1/sd/junteng/scratch/17/opt_11n01-o.save//
The previous job contains 0 fragments, simply inherited here

Checking the input file for inconsistencies... 	...done.

--------------------------------------------------------------
User input:
--------------------------------------------------------------

$molecule
   read
$end

$rem
JOBTYPE                   OPT
METHOD                    B3LYP
DFT_D                     D3_OP
BASIS                     6-311++G(d,p)
GEOM_OPT_MAX_CYCLES       500
GEOM_OPT_TOL_GRADIENT     1
GEOM_OPT_TOL_DISPLACEMENT 1
GEOM_OPT_TOL_ENERGY       1
SYMMETRY                  False
THRESH                    12
SCF_CONVERGENCE           8
MAX_SUB_FILE_NUM          128
MEM_STATIC                400
MEM_TOTAL                 4000
$end

--------------------------------------------------------------

    9    -727.5472010651      9.87E-09 Convergence criterion met
 Total energy in the final basis set = -727.5472010651
    9    -727.5472009766      9.58E-09 Convergence criterion met
 Total energy in the final basis set = -727.5472009766
    9    -727.5472010820      5.73E-09 Convergence criterion met
 Total energy in the final basis set = -727.5472010820
    8    -727.5472009272      4.15E-09 Convergence criterion met
 Total energy in the final basis set = -727.5472009272
    7    -727.5472010264      3.42E-09 Convergence criterion met
 Total energy in the final basis set = -727.5472010264
    5    -727.5472010309      7.42E-09 Convergence criterion met
 Total energy in the final basis set = -727.5472010309
 Final energy is   -727.547201030908
        *  Thank you very much for using Q-Chem.  Have a nice day.  *
 Q-Chem 5.0, Q-Chem, Inc., Pleasanton, CA (2017)
 Q-Chem 5.0.0 for Intel X86 EM64T Linux

             Standard Nuclear Orientation (Angstroms)
    I     Atom           X                Y                Z
 ----------------------------------------------------------------
    1      C       0.5020184649    -0.8446259908    -0.0029148528
    2      C      -0.7713195024    -0.2559670019    -0.0870277890
    3      C       1.7202735772     0.0038600875    -0.1448363644
    4      C      -0.9467268160     1.2258389251    -0.2820164322
    5      O       2.8537081639    -0.6843683740     0.1083039942
    6      O       1.7172753027     1.1713810472    -0.4622863445
    7      O      -0.7362861001     1.8924212182     0.8652054125
    8      O      -1.3105266279     1.7335865595    -1.3129600668
    9      C      -0.7597921102     3.3289477906     0.7643362816
   10      C       4.0820945375     0.0487252980    -0.0401403903
   11      C       0.6165638171    -2.2296143364     0.1683071419
   12      C      -0.5237473615    -3.0166669856     0.2549552797
   13      C      -1.7816217463    -2.4270402410     0.1655778954
   14      C      -1.9288782370    -1.0484498245    -0.0103412994
   15      H       0.0314677605     3.6591213732     0.0898598472
   16      H       4.1820219504     0.4219908239    -1.0604086840
   17      H      -2.6706381871    -3.0456085822     0.2311469194
   18      H      -1.7257774475     3.6734697166     0.3926846560
   19      H      -0.5824362604     3.6927520636     1.7739001641
   20      H       4.8717565413    -0.6638839323     0.1875261807
   21      H       4.1104495571     0.8893193095     0.6546399337
   22      H      -0.4350391378    -4.0887289522     0.3886238991
   23      H       1.5996139125    -2.6752702459     0.2263033362
   24      C      -3.3063744874    -0.4399031995    -0.1215791409
   25      H      -3.4769115721    -0.0432268654    -1.1256212251
   26      H      -3.4371995576     0.3895405481     0.5791615275
   27      H      -4.0756142833    -1.1842659927     0.0901575051
 ----------------------------------------------------------------

   15    -727.5472263670      5.84E-09 Convergence criterion met
 Total energy in the final basis set = -727.5472263670

                    Orbital Energies (a.u.)
 --------------------------------------------------------------

 Alpha MOs
 -- Occupied --
-19.178 -19.168 -19.120 -19.112 -10.312 -10.306 -10.233 -10.221
-10.207 -10.207 -10.204 -10.192 -10.192 -10.191 -10.174  -1.120
 -1.110  -1.031  -1.024  -0.885  -0.801  -0.790  -0.747  -0.726
 -0.700  -0.653  -0.624  -0.580  -0.571  -0.543  -0.519  -0.501
 -0.495  -0.490  -0.479  -0.477  -0.462  -0.444  -0.434  -0.429
 -0.423  -0.416  -0.403  -0.393  -0.381  -0.371  -0.369  -0.366
 -0.357  -0.321  -0.307  -0.293  -0.290  -0.271  -0.261

          Ground-State Mulliken Net Atomic Charges

     Atom                 Charge (a.u.)
  ----------------------------------------
      1 C                     0.103903
      2 C                     0.764119
      3 C                    -0.052199
      4 C                    -0.928686
      5 O                    -0.103733
      6 O                    -0.225985
      7 O                     0.080065
      8 O                    -0.136416
      9 C                    -0.217301
     10 C                    -0.213976
     11 C                    -0.363617
     12 C                    -0.075319
     13 C                    -0.628165
     14 C                     0.461711
     15 H                     0.191864
     16 H                     0.187161
     17 H                     0.118438
     18 H                     0.161468
     19 H                     0.150264
     20 H                     0.154001
     21 H                     0.178321
     22 H                     0.183338
     23 H                     0.184977
     24 C                    -0.502417
     25 H                     0.193667
     26 H                     0.172679
     27 H                     0.161837
  ----------------------------------------
  Sum of atomic charges =     0.000000

                    Cartesian Multipole Moments
 -----------------------------------------------------------------
    Charge (ESU x 10^10)
                 0.0000
    Dipole Moment (Debye)
         X       0.7596      Y      -1.7105      Z       2.0136
       Tot       2.7490
    Quadrupole Moments (Debye-Ang)
        XX     -72.4004     XY       1.4598     YY     -79.2062
        XZ      -2.2399     YZ       5.4436     ZZ     -94.0221

 Frequency:        16.92                  63.48                  78.28
 Force Cnst:      0.0008                 0.0084                 0.0109
 Red. Mass:       4.8001                 3.5536                 3.0245
 IR Intens:        0.996                  1.153                  2.643
 Frequency:        93.69                 110.87                 120.46
 Force Cnst:      0.0096                 0.0115                 0.0129
 Red. Mass:       1.8517                 1.5820                 1.5110
 IR Intens:        1.158                  2.521                  0.030
 Frequency:       136.46                 143.41                 158.92
 Force Cnst:      0.0243                 0.0144                 0.0549
 Red. Mass:       2.2131                 1.1873                 3.6863
 IR Intens:        1.101                  0.943                  1.701
 Frequency:       184.04                 217.04                 238.78
 Force Cnst:      0.0916                 0.0952                 0.1708
 Red. Mass:       4.5912                 3.4306                 5.0829
 IR Intens:        0.032                  3.280                  4.028
 Frequency:       280.75                 298.53                 316.06
 Force Cnst:      0.2240                 0.2262                 0.3282
 Red. Mass:       4.8226                 4.3086                 5.5768
 IR Intens:        3.260                 10.303                  5.821
 Frequency:       354.44                 383.67                 431.78
 Force Cnst:      0.3112                 0.4802                 0.5092
 Red. Mass:       4.2047                 5.5365                 4.6361
 IR Intens:       15.896                  8.167                  1.225
 Frequency:       486.89                 506.91                 565.14
 Force Cnst:      0.6022                 0.6826                 0.8512
 Red. Mass:       4.3117                 4.5090                 4.5235
 IR Intens:        3.786                  2.734                  0.524
 Frequency:       591.01                 710.27                 733.36
 Force Cnst:      1.0122                 1.9172                 2.0528
 Red. Mass:       4.9186                 6.4502                 6.4784
 IR Intens:        5.654                  8.168                  3.458
 Frequency:       760.48                 781.78                 798.40
 Force Cnst:      1.2401                 0.7494                 2.0722
 Red. Mass:       3.6395                 2.0810                 5.5174
 IR Intens:       47.464                 40.537                  5.900
 Frequency:       829.55                 840.86                 895.06
 Force Cnst:      1.2813                 2.1217                 2.2986
 Red. Mass:       3.1603                 5.0932                 4.8698
 IR Intens:        0.981                  4.381                 12.573
 Frequency:       937.44                 977.50                 998.44
 Force Cnst:      0.7094                 3.5170                 0.7920
 Red. Mass:       1.3701                 6.2474                 1.3484
 IR Intens:        0.097                  9.536                  0.192
 Frequency:      1004.03                1043.96                1062.76
 Force Cnst:      1.4746                 1.7836                 1.0260
 Red. Mass:       2.4827                 2.7776                 1.5417
 IR Intens:        6.963                 22.077                  2.129
 Frequency:      1095.78                1138.55                1169.45
 Force Cnst:      2.2950                 1.7712                 1.0384
 Red. Mass:       3.2440                 2.3191                 1.2887
 IR Intens:       93.959                 84.196                  0.856
 Frequency:      1172.80                1173.50                1198.06
 Force Cnst:      1.0381                 1.9111                 1.1094
 Red. Mass:       1.2810                 2.3555                 1.3118
 IR Intens:        1.115                126.055                  1.927
 Frequency:      1210.73                1216.89                1268.52
 Force Cnst:      1.3662                 1.7178                 1.8465
 Red. Mass:       1.5819                 1.9689                 1.9476
 IR Intens:       28.642                130.750                 65.746
 Frequency:      1286.58                1295.23                1326.56
 Force Cnst:      5.8564                 3.5540                 7.7064
 Red. Mass:       6.0049                 3.5956                 7.4327
 IR Intens:      294.709                348.705                 17.080
 Frequency:      1418.22                1459.89                1468.77
 Force Cnst:      1.4633                 1.8611                 1.5530
 Red. Mass:       1.2348                 1.4821                 1.2218
 IR Intens:        4.303                 10.068                  9.711
 Frequency:      1474.25                1481.43                1482.14
 Force Cnst:      1.8734                 1.3619                 1.3526
 Red. Mass:       1.4630                 1.0533                 1.0450
 IR Intens:       57.215                  9.116                 10.890
 Frequency:      1488.56                1489.17                1495.21
 Force Cnst:      1.8240                 2.1592                 1.3802
 Red. Mass:       1.3971                 1.6526                 1.0478
 IR Intens:        8.937                  4.953                  7.359
 Frequency:      1497.75                1507.59                1616.26
 Force Cnst:      1.3924                 1.7477                10.3615
 Red. Mass:       1.0535                 1.3051                 6.7321
 IR Intens:       10.537                  3.343                  9.955
 Frequency:      1629.85                1766.38                1787.27
 Force Cnst:      9.0180                21.5726                22.3033
 Red. Mass:       5.7618                11.7350                11.8506
 IR Intens:        9.916                250.105                272.141
 Frequency:      3035.03                3050.09                3050.53
 Force Cnst:      5.6249                 5.6433                 5.6431
 Red. Mass:       1.0364                 1.0296                 1.0292
 IR Intens:       18.051                 33.584                 39.925
 Frequency:      3090.33                3111.70                3123.09
 Force Cnst:      6.1893                 6.2888                 6.3617
 Red. Mass:       1.1000                 1.1024                 1.1070
 IR Intens:        8.593                 15.271                 17.419
 Frequency:      3126.26                3156.34                3157.22
 Force Cnst:      6.3757                 6.4932                 6.4980
 Red. Mass:       1.1072                 1.1062                 1.1064
 IR Intens:       13.563                 14.208                 13.903
 Frequency:      3165.17                3184.62                3220.89
 Force Cnst:      6.4220                 6.5340                 6.6796
 Red. Mass:       1.0880                 1.0935                 1.0928
 IR Intens:        7.070                 15.411                  2.061

 STANDARD THERMODYNAMIC QUANTITIES AT   298.15 K  AND     1.00 ATM

   This Molecule has  0 Imaginary Frequencies
   Zero point vibrational energy:      133.290 kcal/mol

   Atom    1 Element C  Has Mass   12.00000
   Atom    2 Element C  Has Mass   12.00000
   Atom    3 Element C  Has Mass   12.00000
   Atom    4 Element C  Has Mass   12.00000
   Atom    5 Element O  Has Mass   15.99491
   Atom    6 Element O  Has Mass   15.99491
   Atom    7 Element O  Has Mass   15.99491
   Atom    8 Element O  Has Mass   15.99491
   Atom    9 Element C  Has Mass   12.00000
   Atom   10 Element C  Has Mass   12.00000
   Atom   11 Element C  Has Mass   12.00000
   Atom   12 Element C  Has Mass   12.00000
   Atom   13 Element C  Has Mass   12.00000
   Atom   14 Element C  Has Mass   12.00000
   Atom   15 Element H  Has Mass    1.00783
   Atom   16 Element H  Has Mass    1.00783
   Atom   17 Element H  Has Mass    1.00783
   Atom   18 Element H  Has Mass    1.00783
   Atom   19 Element H  Has Mass    1.00783
   Atom   20 Element H  Has Mass    1.00783
   Atom   21 Element H  Has Mass    1.00783
   Atom   22 Element H  Has Mass    1.00783
   Atom   23 Element H  Has Mass    1.00783
   Atom   24 Element C  Has Mass   12.00000
   Atom   25 Element H  Has Mass    1.00783
   Atom   26 Element H  Has Mass    1.00783
   Atom   27 Element H  Has Mass    1.00783
   Molecular Mass:   208.073600 amu
   Principal axes and moments of inertia in amu*Bohr^2:
                             1           2           3
    Eigenvalues --     2454.43399  3111.29660  5138.35617
          X               0.99986     0.01656    -0.00184
          Y              -0.01654     0.99982     0.00979
          Z               0.00200    -0.00976     0.99995
   Rotational Symmetry Number is   1
   The Molecule is an Asymmetric Top
   Translational Enthalpy:        0.889 kcal/mol
   Rotational Enthalpy:           0.889 kcal/mol
   Vibrational Enthalpy:        141.064 kcal/mol
   gas constant (RT):             0.592 kcal/mol
   Translational Entropy:        41.902  cal/mol.K
   Rotational Entropy:           32.040  cal/mol.K
   Vibrational Entropy:          52.001  cal/mol.K

   Total Enthalpy:              143.434 kcal/mol
   Total Entropy:               125.943  cal/mol.K

 Total job time:  5901.01s(wall), 31442.10s(cpu)
        *  Thank you very much for using Q-Chem.  Have a nice day.  *
