 Q-Chem 5.0, Q-Chem, Inc., Pleasanton, CA (2017)
 Q-Chem 5.0.0 for Intel X86 EM64T Linux

User input:
--------------------------------------------------------------
$molecule
0  1
C    0.355  -2.424   0.293
C   -0.264  -2.685   1.524
C    0.749  -1.045  -0.086
C   -0.385  -1.681   2.598
O    1.805  -1.090  -0.938
O    0.175  -0.038   0.291
O    0.833  -1.128   2.820
O   -1.397  -1.517   3.259
C    0.836  -0.152   3.862
C    2.258   0.195  -1.365
C    0.489  -3.469  -0.639
C    0.011  -4.748  -0.345
C   -0.620  -4.996   0.872
C   -0.760  -3.969   1.804
H    0.142   0.662   3.629
H    1.480   0.699  -1.947
H   -1.003  -5.990   1.096
H    0.581  -0.616   4.820
H    1.845   0.263   3.935
H    3.132   0.050  -2.006
H    2.557   0.804  -0.506
H    0.116  -5.548  -1.075
H   -1.248  -4.169   2.757
H    0.945  -3.290  -1.611
$end

$opt
CONSTRAINT
tors    2    1    3    5    160.0
tors    1    2    4    7    -55.0
ENDCONSTRAINT
$end

$rem
JOBTYPE                   OPT
METHOD                    B3LYP
DFT_D                     D3_OP
BASIS                     STO-3G
GEOM_OPT_MAX_CYCLES       500
SYMMETRY                  False
THRESH                    12
SCF_CONVERGENCE           8
MAX_SUB_FILE_NUM          128
MEM_STATIC                400
MEM_TOTAL                 4000
$end

--------------------------------------------------------------

   15    -679.0688361291      6.94E-09 Convergence criterion met
 Total energy in the final basis set = -679.0688361291
   14    -679.0936647795      6.34E-09 Convergence criterion met
 Total energy in the final basis set = -679.0936647795
   14    -679.0967050129      2.87E-09 Convergence criterion met
 Total energy in the final basis set = -679.0967050129
   12    -679.0970497444      9.11E-09 Convergence criterion met
 Total energy in the final basis set = -679.0970497444
   12    -679.0971134649      3.89E-09 Convergence criterion met
 Total energy in the final basis set = -679.0971134649
   11    -679.0971474465      8.25E-09 Convergence criterion met
 Total energy in the final basis set = -679.0971474465
   10    -679.0971538325      9.99E-09 Convergence criterion met
 Total energy in the final basis set = -679.0971538325
   11    -679.0971625932      2.12E-09 Convergence criterion met
 **  OPTIMIZATION CONVERGED  **
 Total job time:  29.80s(wall), 695.21s(cpu)
        *  Thank you very much for using Q-Chem.  Have a nice day.  *

User input: 2 of 3

nid04369 10.128.17
Q-Chem Developer Version! Running on 10.128.17.*
                  Welcome to Q-Chem
     A Quantum Leap Into The Future Of Chemistry

 Q-Chem 5.0, Q-Chem, Inc., Pleasanton, CA (2017)

 Yihan Shao,  Zhengting Gan,  E. Epifanovsky,  A. T. B. Gilbert,  M. Wormit,
 J. Kussmann,  A. W. Lange,  A. Behn,  Jia Deng,  Xintian Feng,  D. Ghosh,
 M. Goldey,  P. R. Horn,  L. D. Jacobson,  I. Kaliman,  T. Kus,  A. Landau,
 Jie Liu,  E. I. Proynov,  R. M. Richard,  R. P. Steele,  E. J. Sundstrom,
 H. L. Woodcock III,  P. M. Zimmerman,  D. Zuev,  B. Albrecht,  E. Alguire,
 S. A. Baeppler,  Z. Benda,  Y. A. Bernard,  E. J. Berquist,  K. B. Bravaya,
 D. Casanova,  Chun-Min Chang,  Yunqing Chen,  A. Chien,  K. D. Closser,
 M. P. Coons,  S. Dasgupta,  M. Diedenhofen,  Hainam Do,  R. G. Edgar,
 Po-Tung Fang,  S. Fatehi,  Qingguo Feng,  Qinghui Ge,  A. Ghysels,
 J. Gomes,  J. Gonthier,  A. Gunina,  M. W. D. Hanson-Heine,
 P. H. P. Harbach,  A. W. Hauser,  J. E. Herr,  E. G. Hohenstein,
 Z. C. Holden,  Kerwin Hui,  T.-C. Jagau,  Hyunjun Ji,  B. Kaduk,
 K. Khistyaev,  Jaehoon Kim,  P. Klunzinger,  K. Koh,  D. Kosenkov,
 T. Kowalczyk,  C. M. Krauter,  A. Kunitsa,  Ka Un Lao,  A. Laurent,
 K. V. Lawler,  Joonho Lee,  D. Lefrancois,  S. Lehtola,  D. S. Levine,
 Yi-Pei Li,  You-Sheng Lin,  Fenglai Liu,  E. Livshits,  A. Luenser,
 P. Manohar,  E. Mansoor,  S. F. Manzer,  Shan-Ping Mao,  Yuezhi Mao,
 N. Mardirossian,  A. V. Marenich,  L. A. Martinez-Martinez,  S. A. Maurer,
 N. J. Mayhall,  S. C. McKenzie,  J.-M. Mewes,  A. F. Morrison,  K. Nanda,
 T. S. Nguyen-Beck,  R. Olivares-Amaya,  J. A. Parkhill,  T. M. Perrine,
 F. Plasser,  S. Prager,  A. Prociuk,  D. R. Rehn,  F. Rob,  M. Schneider,
 N. Sergueev,  S. M. Sharada,  S. Sharma,  D. W. Small,  T. Stauch,
 T. Stein,  Yu-Chuan Su,  A. J. W. Thom,  T. Tsuchimochi,  L. Vogt,
 O. Vydrov,  M. A. Watson,  J. Wenzel,  M. de Wergifosse,  T. A. Wesolowski,
 A. White,  J. Witte,  A. Yamada,  Jun Yang,  K. Yao,  S. Yeganeh,
 S. R. Yost,  Zhi-Qiang You,  A. Zech,  Igor Ying Zhang,  Xing Zhang,
 Yan Zhao,  Ying Zhu,  B. R. Brooks,  G. K. L. Chan,  C. J. Cramer,
 M. S. Gordon,  W. J. Hehre,  A. Klamt,  M. W. Schmidt,  C. D. Sherrill,
 D. G. Truhlar,  A. Aspuru-Guzik,  R. Baer,  A. T. Bell,  N. A. Besley,
 Jeng-Da Chai,  A. Dreuw,  B. D. Dunietz,  T. R. Furlani,  Chao-Ping Hsu,
 Yousung Jung,  Jing Kong,  D. S. Lambrecht,  WanZhen Liang,  C. Ochsenfeld,
 V. A. Rassolov,  L. V. Slipchenko,  J. E. Subotnik,  T. Van Voorhis,
 J. M. Herbert,  A. I. Krylov,  P. M. W. Gill,  M. Head-Gordon

 Contributors to earlier versions of Q-Chem not listed above:
 R. D. Adamson,  B. Austin,  J. Baker,  G. J. O. Beran,  K. Brandhorst,
 S. T. Brown,  E. F. C. Byrd,  A. K. Chakraborty,  C.-L. Cheng,
 Siu Hung Chien,  D. M. Chipman,  D. L. Crittenden,  H. Dachsel,
 R. A. DiStasio Jr.,  R. J. Doerksen,  A. D. Dutoi,  L. Fusti-Molnar,
 W. A. Goddard III,  A. Golubeva-Zadorozhnaya,  S. R. Gwaltney,  G. Hawkins,
 A. Heyden,  S. Hirata,  G. Kedziora,  F. J. Keil,  C. Kelley,  Jihan Kim,
 R. A. King,  R. Z. Khaliullin,  P. P. Korambath,  W. Kurlancheek,
 A. M. Lee,  M. S. Lee,  S. V. Levchenko,  Ching Yeh Lin,  D. Liotard,
 R. C. Lochan,  I. Lotan,  P. E. Maslen,  N. Nair,  D. P. O'Neill,
 D. Neuhauser,  E. Neuscamman,  C. M. Oana,  R. Olson,  B. Peters,
 R. Peverati,  P. A. Pieniazek,  Y. M. Rhee,  J. Ritchie,  M. A. Rohrdanz,
 E. Rosta,  N. J. Russ,  H. F. Schaefer III,  N. E. Schultz,  N. Shenvi,
 A. C. Simmonett,  A. Sodt,  D. Stuck,  K. S. Thanthiriwatte,  V. Vanovschi,
 Tao Wang,  A. Warshel,  C. F. Williams,  Q. Wu,  X. Xu,  W. Zhang

 Please cite Q-Chem as follows:
 Y. Shao et al., Mol. Phys. 113, 184-215 (2015)
 DOI: 10.1080/00268976.2014.952696

 Q-Chem 5.0.0 for Intel X86 EM64T Linux

 Parts of Q-Chem use Armadillo 5.200.1 (Boston Tea Smuggler).
 http://arma.sourceforge.net/

 Q-Chem begins on Wed Oct  4 18:03:13 2017

Host: nid04369
0

     Scratch files written to /global/cscratch1/sd/junteng/scratch/16/opt_10n01+-.save//
The previous job contains 0 fragments, simply inherited here

Checking the input file for inconsistencies... 	...done.

--------------------------------------------------------------
User input:
--------------------------------------------------------------

$molecule
   read
$end

$rem
JOBTYPE                   OPT
METHOD                    B3LYP
DFT_D                     D3_OP
BASIS                     6-311++G(d,p)
GEOM_OPT_MAX_CYCLES       500
GEOM_OPT_TOL_GRADIENT     1
GEOM_OPT_TOL_DISPLACEMENT 1
GEOM_OPT_TOL_ENERGY       1
SYMMETRY                  False
THRESH                    12
SCF_CONVERGENCE           8
MAX_SUB_FILE_NUM          128
MEM_STATIC                400
MEM_TOTAL                 4000
$end

--------------------------------------------------------------

    8    -688.2160891874      4.20E-09 Convergence criterion met
 Total energy in the final basis set = -688.2160891874
    6    -688.2160890855      9.90E-09 Convergence criterion met
 Total energy in the final basis set = -688.2160890855
    6    -688.2160891223      6.10E-09 Convergence criterion met
 Total energy in the final basis set = -688.2160891223
    5    -688.2160891066      8.25E-09 Convergence criterion met
 Total energy in the final basis set = -688.2160891066
    5    -688.2160891170      5.55E-09 Convergence criterion met
 Total energy in the final basis set = -688.2160891170
    5    -688.2160891106      5.27E-09 Convergence criterion met
 Total energy in the final basis set = -688.2160891106
 Final energy is   -688.216089110607
        *  Thank you very much for using Q-Chem.  Have a nice day.  *
 Q-Chem 5.0, Q-Chem, Inc., Pleasanton, CA (2017)
 Q-Chem 5.0.0 for Intel X86 EM64T Linux

             Standard Nuclear Orientation (Angstroms)
    I     Atom           X                Y                Z
 ----------------------------------------------------------------
    1      C      -0.0656872004    -0.8858494462    -0.0268388331
    2      C      -1.1122996930     0.0512335496    -0.0762309858
    3      C       1.3450881520    -0.4589191810    -0.2665321146
    4      C      -0.8827622870     1.5286537320    -0.1859456808
    5      O       2.2306037127    -1.3206396388     0.2768553882
    6      O       1.6717248016     0.5152545354    -0.9026127015
    7      O      -0.0767238485     1.9708464913     0.7945402134
    8      O      -1.4139536105     2.2364982972    -1.0056904154
    9      C       0.3173682616     3.3523806065     0.7080973956
   10      C       3.6190301082    -1.0329565113     0.0307591291
   11      C      -0.3679958619    -2.2434982166     0.1277565998
   12      C      -1.6898119461    -2.6703022575     0.2179807709
   13      C      -2.7252217830    -1.7414292859     0.1465033675
   14      C      -2.4347269137    -0.3874835682    -0.0034986037
   15      H       0.9136113368     3.5063815414    -0.1928102392
   16      H       3.8267392135    -1.0487087289    -1.0402876658
   17      H      -3.7570587899    -2.0680657827     0.2073461254
   18      H      -0.5586785120     4.0015608610     0.6840937894
   19      H       0.9128823847     3.5396151590     1.5987193662
   20      H       4.1712403601    -1.8187816832     0.5412901535
   21      H       3.8817424811    -0.0538364954     0.4333508096
   22      H      -1.9092083790    -3.7256715485     0.3320033621
   23      H      -3.2331383039     0.3425329539    -0.0595261418
   24      H       0.4407747465    -2.9616802855     0.1587742941
 ----------------------------------------------------------------

   15    -688.2161414949      7.19E-09 Convergence criterion met
 Total energy in the final basis set = -688.2161414949

                    Orbital Energies (a.u.)
 --------------------------------------------------------------

 Alpha MOs
 -- Occupied --
-19.180 -19.170 -19.121 -19.115 -10.314 -10.308 -10.234 -10.224
-10.212 -10.211 -10.199 -10.199 -10.197 -10.197  -1.121  -1.112
 -1.033  -1.026  -0.887  -0.796  -0.787  -0.740  -0.729  -0.655
 -0.639  -0.594  -0.573  -0.553  -0.523  -0.503  -0.493  -0.489
 -0.486  -0.480  -0.463  -0.457  -0.435  -0.430  -0.419  -0.401
 -0.390  -0.382  -0.375  -0.372  -0.361  -0.323  -0.309  -0.298
 -0.293  -0.278  -0.270

          Ground-State Mulliken Net Atomic Charges

     Atom                 Charge (a.u.)
  ----------------------------------------
      1 C                     0.734597
      2 C                     0.318022
      3 C                    -0.367785
      4 C                    -0.666774
      5 O                    -0.066562
      6 O                    -0.213051
      7 O                    -0.002358
      8 O                    -0.210556
      9 C                    -0.245697
     10 C                    -0.236841
     11 C                    -0.084281
     12 C                    -0.199187
     13 C                    -0.193134
     14 C                    -0.302035
     15 H                     0.187734
     16 H                     0.188942
     17 H                     0.172324
     18 H                     0.168016
     19 H                     0.154277
     20 H                     0.158619
     21 H                     0.173748
     22 H                     0.174208
     23 H                     0.174550
     24 H                     0.183223
  ----------------------------------------
  Sum of atomic charges =     0.000000

                    Cartesian Multipole Moments
 -----------------------------------------------------------------
    Charge (ESU x 10^10)
                 0.0000
    Dipole Moment (Debye)
         X       1.1414      Y      -2.3330      Z       2.2023
       Tot       3.4053
    Quadrupole Moments (Debye-Ang)
        XX     -68.2051     XY       3.5783     YY     -72.7254
        XZ      -1.3862     YZ       6.4632     ZZ     -87.5831

 Frequency:        30.37                  77.33                  82.08
 Force Cnst:      0.0035                 0.0120                 0.0185
 Red. Mass:       6.4930                 3.3995                 4.6665
 IR Intens:        0.566                  0.392                  4.573
 Frequency:        94.10                 120.71                 140.45
 Force Cnst:      0.0184                 0.0161                 0.0279
 Red. Mass:       3.5359                 1.8803                 2.3996
 IR Intens:        3.416                  0.845                  2.530
 Frequency:       150.26                 164.10                 214.78
 Force Cnst:      0.0152                 0.0355                 0.1365
 Red. Mass:       1.1456                 2.2347                 5.0225
 IR Intens:        0.123                  0.851                  1.033
 Frequency:       252.94                 286.27                 307.92
 Force Cnst:      0.2165                 0.2111                 0.2916
 Red. Mass:       5.7445                 4.3724                 5.2192
 IR Intens:        1.619                  8.810                  4.260
 Frequency:       335.15                 369.27                 396.03
 Force Cnst:      0.3500                 0.5195                 0.5087
 Red. Mass:       5.2894                 6.4664                 5.5056
 IR Intens:       14.757                 10.807                  1.251
 Frequency:       424.93                 534.26                 561.21
 Force Cnst:      0.4165                 0.8873                 0.8279
 Red. Mass:       3.9149                 5.2761                 4.4613
 IR Intens:        0.800                  2.517                  4.630
 Frequency:       665.36                 703.75                 716.12
 Force Cnst:      1.6384                 1.7742                 1.6194
 Red. Mass:       6.2813                 6.0802                 5.3595
 IR Intens:        4.658                  6.524                  8.037
 Frequency:       751.14                 798.62                 814.37
 Force Cnst:      0.6740                 1.1007                 1.4962
 Red. Mass:       2.0276                 2.9291                 3.8290
 IR Intens:       79.214                 19.384                  5.513
 Frequency:       829.01                 848.07                 904.44
 Force Cnst:      2.0333                 2.1550                 0.7133
 Red. Mass:       5.0215                 5.0854                 1.4799
 IR Intens:       10.889                  1.049                  0.701
 Frequency:       975.63                 984.78                 986.61
 Force Cnst:      1.4294                 4.0585                 1.2555
 Red. Mass:       2.5488                 7.1030                 2.1891
 IR Intens:       15.258                  1.524                  6.450
 Frequency:      1004.35                1063.49                1097.17
 Force Cnst:      0.7820                 1.6611                 3.4978
 Red. Mass:       1.3158                 2.4927                 4.9317
 IR Intens:        0.438                 17.015                 95.530
 Frequency:      1144.34                1156.66                1170.10
 Force Cnst:      2.2492                 1.4892                 1.0478
 Red. Mass:       2.9151                 1.8892                 1.2989
 IR Intens:      159.419                 54.704                  1.612
 Frequency:      1170.68                1190.60                1211.55
 Force Cnst:      1.0371                 0.9340                 1.3549
 Red. Mass:       1.2844                 1.1184                 1.5666
 IR Intens:        0.716                  2.060                 38.568
 Frequency:      1215.89                1276.20                1287.50
 Force Cnst:      1.3981                 3.0778                 3.0775
 Red. Mass:       1.6051                 3.2074                 3.1511
 IR Intens:       40.895                188.445                385.741
 Frequency:      1314.39                1335.11                1467.13
 Force Cnst:      2.2072                 7.6990                 1.6267
 Red. Mass:       2.1684                 7.3308                 1.2827
 IR Intens:      172.336                 22.889                 12.059
 Frequency:      1469.17                1476.24                1483.93
 Force Cnst:      1.5271                 2.4857                 1.3554
 Red. Mass:       1.2008                 1.9359                 1.0447
 IR Intens:       20.162                  8.134                  7.154
 Frequency:      1485.27                1496.90                1497.49
 Force Cnst:      1.3594                 1.3814                 1.3841
 Red. Mass:       1.0459                 1.0464                 1.0476
 IR Intens:       11.718                 16.461                  3.671
 Frequency:      1516.46                1613.06                1636.71
 Force Cnst:      3.5861                 9.7127                 9.0349
 Red. Mass:       2.6468                 6.3356                 5.7243
 IR Intens:       12.906                 12.488                  6.440
 Frequency:      1772.40                1783.65                3050.36
 Force Cnst:     21.8494                22.2916                 5.6432
 Red. Mass:      11.8050                11.8925                 1.0294
 IR Intens:      251.692                300.866                 24.891
 Frequency:      3050.60                3123.48                3125.90
 Force Cnst:      5.6448                 6.3636                 6.3742
 Red. Mass:       1.0295                 1.1071                 1.1072
 IR Intens:       44.607                 17.344                 14.386
 Frequency:      3157.78                3157.97                3173.05
 Force Cnst:      6.4995                 6.5002                 6.4465
 Red. Mass:       1.1063                 1.1063                 1.0867
 IR Intens:       13.518                 13.248                  1.622
 Frequency:      3186.72                3198.45                3210.67
 Force Cnst:      6.5300                 6.6002                 6.6417
 Red. Mass:       1.0914                 1.0950                 1.0936
 IR Intens:        8.614                  7.423                  3.590

 STANDARD THERMODYNAMIC QUANTITIES AT   298.15 K  AND     1.00 ATM

   This Molecule has  0 Imaginary Frequencies
   Zero point vibrational energy:      116.212 kcal/mol

   Atom    1 Element C  Has Mass   12.00000
   Atom    2 Element C  Has Mass   12.00000
   Atom    3 Element C  Has Mass   12.00000
   Atom    4 Element C  Has Mass   12.00000
   Atom    5 Element O  Has Mass   15.99491
   Atom    6 Element O  Has Mass   15.99491
   Atom    7 Element O  Has Mass   15.99491
   Atom    8 Element O  Has Mass   15.99491
   Atom    9 Element C  Has Mass   12.00000
   Atom   10 Element C  Has Mass   12.00000
   Atom   11 Element C  Has Mass   12.00000
   Atom   12 Element C  Has Mass   12.00000
   Atom   13 Element C  Has Mass   12.00000
   Atom   14 Element C  Has Mass   12.00000
   Atom   15 Element H  Has Mass    1.00783
   Atom   16 Element H  Has Mass    1.00783
   Atom   17 Element H  Has Mass    1.00783
   Atom   18 Element H  Has Mass    1.00783
   Atom   19 Element H  Has Mass    1.00783
   Atom   20 Element H  Has Mass    1.00783
   Atom   21 Element H  Has Mass    1.00783
   Atom   22 Element H  Has Mass    1.00783
   Atom   23 Element H  Has Mass    1.00783
   Atom   24 Element H  Has Mass    1.00783
   Molecular Mass:   194.057940 amu
   Principal axes and moments of inertia in amu*Bohr^2:
                             1           2           3
    Eigenvalues --     2397.52263  2463.52407  4477.64087
          X               0.96311     0.26912    -0.00030
          Y              -0.26911     0.96306     0.00989
          Z               0.00295    -0.00944     0.99995
   Rotational Symmetry Number is   1
   The Molecule is an Asymmetric Top
   Translational Enthalpy:        0.889 kcal/mol
   Rotational Enthalpy:           0.889 kcal/mol
   Vibrational Enthalpy:        122.844 kcal/mol
   gas constant (RT):             0.592 kcal/mol
   Translational Entropy:        41.694  cal/mol.K
   Rotational Entropy:           31.647  cal/mol.K
   Vibrational Entropy:          43.247  cal/mol.K

   Total Enthalpy:              125.214 kcal/mol
   Total Entropy:               116.589  cal/mol.K

 Total job time:  4083.34s(wall), 20245.26s(cpu)
        *  Thank you very much for using Q-Chem.  Have a nice day.  *
