 Q-Chem 5.0, Q-Chem, Inc., Pleasanton, CA (2017)
 Q-Chem 5.0.0 for Intel X86 EM64T Linux

User input:
--------------------------------------------------------------
$molecule
0  1
C          1.00100        0.54800       -0.44700
C         -0.58500        0.51700       -0.66900
C          1.58400       -0.68200        0.24700
C         -1.28900       -0.63000        0.05700
O          2.92935       -0.72311        0.09292
O          0.96847       -1.45282        0.94928
O         -0.90757       -1.82877       -0.44459
O         -2.14693       -0.53696        0.90949
C         -1.58236       -2.96656        0.11675
C          3.56634       -1.88974        0.63077
C          1.18700        1.83900        0.44000
C          0.50800        1.60700        1.78200
C         -0.81400        1.63700        1.57600
C         -1.03300        1.85800        0.08600
C          0.15900        2.78600       -0.22000
C          1.82300        0.68400       -1.75400
C         -1.01500        0.54200       -2.14600
H         -1.41709       -3.01541        1.19792
H          3.20214       -2.78088        0.11220
H         -1.59700        1.39300        2.28600
H         -1.15075       -3.83660       -0.37899
H         -2.65818       -2.90554       -0.07057
H          4.63450       -1.75171        0.45310
H          3.36394       -1.98548        1.70092
H         -2.02900        2.18500       -0.22000
H          2.22700        2.16700        0.48200
H         -0.57700        1.39100       -2.67500
H         -0.70800       -0.37300       -2.66300
H         -2.10200        0.62100       -2.22000
H          2.89100        0.67000       -1.50700
H          1.63100       -0.14300       -2.43900
H          1.62100        1.62400       -2.27400
H          0.08000        3.74500        0.29900
H          0.32400        2.97000       -1.28600
H          1.03300        1.34000        2.69000
$end

$opt
CONSTRAINT
tors    1    2    4    8    119.3
tors    2    1    3    6    -50.0
ENDCONSTRAINT
$end

$rem
JOBTYPE                   OPT
METHOD                    B3LYP
DFT_D                     D3_OP
BASIS                     STO-3G
GEOM_OPT_MAX_CYCLES       500
SYMMETRY                  False
THRESH                    12
SCF_CONVERGENCE           8
MAX_SUB_FILE_NUM          128
MEM_STATIC                400
MEM_TOTAL                 4000
$end

--------------------------------------------------------------

   15    -796.8200620363      2.92E-09 Convergence criterion met
 Total energy in the final basis set = -796.8200620363
   13    -796.8437937184      9.54E-09 Convergence criterion met
 Total energy in the final basis set = -796.8437937184
   13    -796.8431619663      8.25E-09 Convergence criterion met
 Total energy in the final basis set = -796.8431619663
   14    -796.8494306696      3.69E-09 Convergence criterion met
 Total energy in the final basis set = -796.8494306696
   13    -796.8525962070      5.52E-09 Convergence criterion met
 Total energy in the final basis set = -796.8525962070
   13    -796.8553993007      3.25E-09 Convergence criterion met
 Total energy in the final basis set = -796.8553993007
   13    -796.8568597209      2.85E-09 Convergence criterion met
 Total energy in the final basis set = -796.8568597209
   12    -796.8573643248      9.76E-09 Convergence criterion met
 **  OPTIMIZATION CONVERGED  **
 Total job time:  79.54s(wall), 1808.20s(cpu)
        *  Thank you very much for using Q-Chem.  Have a nice day.  *

User input: 2 of 3

nid05661 10.128.22
Q-Chem Developer Version! Running on 10.128.22.*
                  Welcome to Q-Chem
     A Quantum Leap Into The Future Of Chemistry

 Q-Chem 5.0, Q-Chem, Inc., Pleasanton, CA (2017)

 Yihan Shao,  Zhengting Gan,  E. Epifanovsky,  A. T. B. Gilbert,  M. Wormit,
 J. Kussmann,  A. W. Lange,  A. Behn,  Jia Deng,  Xintian Feng,  D. Ghosh,
 M. Goldey,  P. R. Horn,  L. D. Jacobson,  I. Kaliman,  T. Kus,  A. Landau,
 Jie Liu,  E. I. Proynov,  R. M. Richard,  R. P. Steele,  E. J. Sundstrom,
 H. L. Woodcock III,  P. M. Zimmerman,  D. Zuev,  B. Albrecht,  E. Alguire,
 S. A. Baeppler,  Z. Benda,  Y. A. Bernard,  E. J. Berquist,  K. B. Bravaya,
 D. Casanova,  Chun-Min Chang,  Yunqing Chen,  A. Chien,  K. D. Closser,
 M. P. Coons,  S. Dasgupta,  M. Diedenhofen,  Hainam Do,  R. G. Edgar,
 Po-Tung Fang,  S. Fatehi,  Qingguo Feng,  Qinghui Ge,  A. Ghysels,
 J. Gomes,  J. Gonthier,  A. Gunina,  M. W. D. Hanson-Heine,
 P. H. P. Harbach,  A. W. Hauser,  J. E. Herr,  E. G. Hohenstein,
 Z. C. Holden,  Kerwin Hui,  T.-C. Jagau,  Hyunjun Ji,  B. Kaduk,
 K. Khistyaev,  Jaehoon Kim,  P. Klunzinger,  K. Koh,  D. Kosenkov,
 T. Kowalczyk,  C. M. Krauter,  A. Kunitsa,  Ka Un Lao,  A. Laurent,
 K. V. Lawler,  Joonho Lee,  D. Lefrancois,  S. Lehtola,  D. S. Levine,
 Yi-Pei Li,  You-Sheng Lin,  Fenglai Liu,  E. Livshits,  A. Luenser,
 P. Manohar,  E. Mansoor,  S. F. Manzer,  Shan-Ping Mao,  Yuezhi Mao,
 N. Mardirossian,  A. V. Marenich,  L. A. Martinez-Martinez,  S. A. Maurer,
 N. J. Mayhall,  S. C. McKenzie,  J.-M. Mewes,  A. F. Morrison,  K. Nanda,
 T. S. Nguyen-Beck,  R. Olivares-Amaya,  J. A. Parkhill,  T. M. Perrine,
 F. Plasser,  S. Prager,  A. Prociuk,  D. R. Rehn,  F. Rob,  M. Schneider,
 N. Sergueev,  S. M. Sharada,  S. Sharma,  D. W. Small,  T. Stauch,
 T. Stein,  Yu-Chuan Su,  A. J. W. Thom,  T. Tsuchimochi,  L. Vogt,
 O. Vydrov,  M. A. Watson,  J. Wenzel,  M. de Wergifosse,  T. A. Wesolowski,
 A. White,  J. Witte,  A. Yamada,  Jun Yang,  K. Yao,  S. Yeganeh,
 S. R. Yost,  Zhi-Qiang You,  A. Zech,  Igor Ying Zhang,  Xing Zhang,
 Yan Zhao,  Ying Zhu,  B. R. Brooks,  G. K. L. Chan,  C. J. Cramer,
 M. S. Gordon,  W. J. Hehre,  A. Klamt,  M. W. Schmidt,  C. D. Sherrill,
 D. G. Truhlar,  A. Aspuru-Guzik,  R. Baer,  A. T. Bell,  N. A. Besley,
 Jeng-Da Chai,  A. Dreuw,  B. D. Dunietz,  T. R. Furlani,  Chao-Ping Hsu,
 Yousung Jung,  Jing Kong,  D. S. Lambrecht,  WanZhen Liang,  C. Ochsenfeld,
 V. A. Rassolov,  L. V. Slipchenko,  J. E. Subotnik,  T. Van Voorhis,
 J. M. Herbert,  A. I. Krylov,  P. M. W. Gill,  M. Head-Gordon

 Contributors to earlier versions of Q-Chem not listed above:
 R. D. Adamson,  B. Austin,  J. Baker,  G. J. O. Beran,  K. Brandhorst,
 S. T. Brown,  E. F. C. Byrd,  A. K. Chakraborty,  C.-L. Cheng,
 Siu Hung Chien,  D. M. Chipman,  D. L. Crittenden,  H. Dachsel,
 R. A. DiStasio Jr.,  R. J. Doerksen,  A. D. Dutoi,  L. Fusti-Molnar,
 W. A. Goddard III,  A. Golubeva-Zadorozhnaya,  S. R. Gwaltney,  G. Hawkins,
 A. Heyden,  S. Hirata,  G. Kedziora,  F. J. Keil,  C. Kelley,  Jihan Kim,
 R. A. King,  R. Z. Khaliullin,  P. P. Korambath,  W. Kurlancheek,
 A. M. Lee,  M. S. Lee,  S. V. Levchenko,  Ching Yeh Lin,  D. Liotard,
 R. C. Lochan,  I. Lotan,  P. E. Maslen,  N. Nair,  D. P. O'Neill,
 D. Neuhauser,  E. Neuscamman,  C. M. Oana,  R. Olson,  B. Peters,
 R. Peverati,  P. A. Pieniazek,  Y. M. Rhee,  J. Ritchie,  M. A. Rohrdanz,
 E. Rosta,  N. J. Russ,  H. F. Schaefer III,  N. E. Schultz,  N. Shenvi,
 A. C. Simmonett,  A. Sodt,  D. Stuck,  K. S. Thanthiriwatte,  V. Vanovschi,
 Tao Wang,  A. Warshel,  C. F. Williams,  Q. Wu,  X. Xu,  W. Zhang

 Please cite Q-Chem as follows:
 Y. Shao et al., Mol. Phys. 113, 184-215 (2015)
 DOI: 10.1080/00268976.2014.952696

 Q-Chem 5.0.0 for Intel X86 EM64T Linux

 Parts of Q-Chem use Armadillo 5.200.1 (Boston Tea Smuggler).
 http://arma.sourceforge.net/

 Q-Chem begins on Thu Oct 19 19:15:00 2017

Host: nid05661
0

     Scratch files written to /global/cscratch1/sd/junteng/scratch/17/opt_11d11.save//
The previous job contains 0 fragments, simply inherited here

Checking the input file for inconsistencies... 	...done.

--------------------------------------------------------------
User input:
--------------------------------------------------------------

$molecule
   read
$end

$rem
JOBTYPE                   OPT
METHOD                    B3LYP
DFT_D                     D3_OP
BASIS                     6-311++G(d,p)
GEOM_OPT_MAX_CYCLES       500
GEOM_OPT_TOL_GRADIENT     1
GEOM_OPT_TOL_DISPLACEMENT 1
GEOM_OPT_TOL_ENERGY       1
SYMMETRY                  False
THRESH                    12
SCF_CONVERGENCE           8
MAX_SUB_FILE_NUM          128
MEM_STATIC                400
MEM_TOTAL                 4000
$end

--------------------------------------------------------------

    6    -807.3616377136      6.56E-09 Convergence criterion met
 Total energy in the final basis set = -807.3616377136
    6    -807.3616375598      8.67E-09 Convergence criterion met
 Total energy in the final basis set = -807.3616375598
    7    -807.3616377464      5.43E-09 Convergence criterion met
 Total energy in the final basis set = -807.3616377464
    7    -807.3616375135      7.02E-09 Convergence criterion met
 Total energy in the final basis set = -807.3616375135
    6    -807.3616376410      7.96E-09 Convergence criterion met
 Total energy in the final basis set = -807.3616376410
    2    -807.3616376453      6.75E-09 Convergence criterion met
 Total energy in the final basis set = -807.3616376453
 Final energy is   -807.361637645260
        *  Thank you very much for using Q-Chem.  Have a nice day.  *
 Q-Chem 5.0, Q-Chem, Inc., Pleasanton, CA (2017)
 Q-Chem 5.0.0 for Intel X86 EM64T Linux

             Standard Nuclear Orientation (Angstroms)
    I     Atom           X                Y                Z
 ----------------------------------------------------------------
    1      C       0.5951497461    -0.5066564826     0.6561565134
    2      C      -0.9887611385    -0.5541377425     0.4249310501
    3      C       1.2879608733     0.6715075285    -0.0289574181
    4      C      -1.5991618952     0.6814945868    -0.2407186810
    5      O       2.5816492835     0.7638493127     0.3603333120
    6      O       0.8200720801     1.3957906963    -0.8721206297
    7      O      -1.5022266885     1.7648378273     0.5606913385
    8      O      -2.2032577615     0.6819368920    -1.2844128759
    9      C      -1.9668398705     2.9993700248    -0.0091263214
   10      C       3.3689098443     1.7677847993    -0.3039272700
   11      C       1.0644761091    -1.8240040255    -0.1315452594
   12      C       0.8433539655    -1.5726494791    -1.6148085991
   13      C      -0.4760814891    -1.5624205673    -1.8245235468
   14      C      -1.1542609502    -1.8295104387    -0.4913855323
   15      C      -0.1131606167    -2.7764529262     0.1508882826
   16      C       1.0195215427    -0.5804060644     2.1320388943
   17      C      -1.8100268429    -0.7453802764     1.7246190423
   18      H      -1.3627875097     3.2503125936    -0.8826361287
   19      H       2.9442946069     2.7589636340    -0.1387813227
   20      H      -0.9966501251    -1.2999009738    -2.7330491127
   21      H      -1.8421506212     3.7473439006     0.7713377555
   22      H      -3.0145638372     2.9180782089    -0.3015964789
   23      H       4.3603728808     1.6966311006     0.1383268479
   24      H       3.4118603366     1.5722577189    -1.3767426736
   25      H      -2.1865687303    -2.1716433321    -0.5435735011
   26      H       2.0632766969    -2.1404189067     0.1666624718
   27      H      -1.5815066998    -1.6890284184     2.2177652673
   28      H      -1.6399723041     0.0664165114     2.4300104723
   29      H      -2.8741257780    -0.7564388669     1.4736296075
   30      H       2.1038021216    -0.6522675685     2.2055144823
   31      H       0.7046258432     0.3095174320     2.6819467811
   32      H       0.5856771343    -1.4506495707     2.6227615959
   33      H      -0.0170528716    -3.7156295407    -0.3954951253
   34      H      -0.2758433953    -2.9918100251     1.2077674393
   35      H       1.6209412766    -1.3142853453    -2.3216244653
 ----------------------------------------------------------------

   15    -807.3615440340      3.39E-09 Convergence criterion met
 Total energy in the final basis set = -807.3615440340

                    Orbital Energies (a.u.)
 --------------------------------------------------------------

 Alpha MOs
 -- Occupied --
-19.174 -19.159 -19.116 -19.102 -10.304 -10.293 -10.231 -10.216
-10.213 -10.207 -10.191 -10.183 -10.173 -10.169 -10.168 -10.164
-10.163  -1.116  -1.101  -1.028  -1.015  -0.897  -0.804  -0.782
 -0.732  -0.722  -0.708  -0.687  -0.674  -0.610  -0.583  -0.567
 -0.548  -0.532  -0.529  -0.514  -0.493  -0.488  -0.477  -0.475
 -0.459  -0.453  -0.438  -0.433  -0.417  -0.410  -0.406  -0.398
 -0.393  -0.386  -0.379  -0.370  -0.368  -0.358  -0.352  -0.349
 -0.339  -0.331  -0.318  -0.315  -0.298  -0.283  -0.269  -0.243

          Ground-State Mulliken Net Atomic Charges

     Atom                 Charge (a.u.)
  ----------------------------------------
      1 C                    -0.074854
      2 C                     0.054387
      3 C                    -0.400948
      4 C                    -0.633296
      5 O                     0.028297
      6 O                    -0.174946
      7 O                     0.019912
      8 O                    -0.133970
      9 C                    -0.175616
     10 C                    -0.202967
     11 C                     0.382735
     12 C                    -0.455897
     13 C                    -0.374916
     14 C                     0.345337
     15 C                    -0.719491
     16 C                    -0.365712
     17 C                    -0.269848
     18 H                     0.191338
     19 H                     0.175276
     20 H                     0.175450
     21 H                     0.146750
     22 H                     0.170386
     23 H                     0.152377
     24 H                     0.170334
     25 H                     0.268025
     26 H                     0.260620
     27 H                     0.137549
     28 H                     0.163351
     29 H                     0.186801
     30 H                     0.190435
     31 H                     0.192974
     32 H                     0.129635
     33 H                     0.192074
     34 H                     0.098257
     35 H                     0.150163
  ----------------------------------------
  Sum of atomic charges =     0.000000

                    Cartesian Multipole Moments
 -----------------------------------------------------------------
    Charge (ESU x 10^10)
                 0.0000
    Dipole Moment (Debye)
         X       2.0455      Y       0.0733      Z       2.3089
       Tot       3.0855
    Quadrupole Moments (Debye-Ang)
        XX     -96.5525     XY       2.5757     YY     -95.5324
        XZ      -5.2707     YZ       0.1775     ZZ    -105.2327

 Frequency:        21.94                  78.82                  93.92
 Force Cnst:      0.0015                 0.0140                 0.0156
 Red. Mass:       5.4000                 3.8317                 3.0087
 IR Intens:        0.711                  0.867                  1.841
 Frequency:       103.01                 129.35                 145.24
 Force Cnst:      0.0294                 0.0225                 0.0428
 Red. Mass:       4.7101                 2.2786                 3.4400
 IR Intens:        1.254                  0.791                  1.658
 Frequency:       159.80                 165.56                 203.10
 Force Cnst:      0.0200                 0.0189                 0.0938
 Red. Mass:       1.3296                 1.1697                 3.8575
 IR Intens:        0.434                  0.241                  0.517
 Frequency:       212.29                 229.80                 261.80
 Force Cnst:      0.0296                 0.1078                 0.1387
 Red. Mass:       1.1154                 3.4635                 3.4357
 IR Intens:        0.205                  6.688                  3.442
 Frequency:       270.13                 273.29                 283.15
 Force Cnst:      0.1824                 0.1653                 0.0576
 Red. Mass:       4.2437                 3.7569                 1.2204
 IR Intens:        5.070                  5.862                  0.254
 Frequency:       315.88                 333.96                 353.10
 Force Cnst:      0.1865                 0.2065                 0.2599
 Red. Mass:       3.1723                 3.1426                 3.5380
 IR Intens:        1.274                  5.961                 11.723
 Frequency:       370.23                 374.87                 403.64
 Force Cnst:      0.2364                 0.4298                 0.3656
 Red. Mass:       2.9275                 5.1908                 3.8088
 IR Intens:        4.447                  9.621                  1.678
 Frequency:       432.28                 459.86                 505.54
 Force Cnst:      0.3651                 0.5018                 0.4029
 Red. Mass:       3.3164                 4.0274                 2.6758
 IR Intens:        0.880                  3.395                  4.086
 Frequency:       569.22                 620.92                 707.11
 Force Cnst:      0.5708                 0.7635                 0.7773
 Red. Mass:       2.9899                 3.3610                 2.6385
 IR Intens:        3.597                  4.598                 21.730
 Frequency:       737.52                 743.19                 761.12
 Force Cnst:      1.1208                 1.2465                 1.2246
 Red. Mass:       3.4974                 3.8304                 3.5878
 IR Intens:        9.303                 15.981                 11.466
 Frequency:       776.91                 805.88                 820.59
 Force Cnst:      1.6409                 1.5673                 2.0859
 Red. Mass:       4.6141                 4.0962                 5.2577
 IR Intens:        4.736                 12.279                  0.863
 Frequency:       856.99                 879.67                 888.42
 Force Cnst:      1.6041                 1.2303                 1.1617
 Red. Mass:       3.7071                 2.6985                 2.4981
 IR Intens:        1.476                 22.124                  7.579
 Frequency:       906.19                 923.21                 927.06
 Force Cnst:      1.3186                 1.0625                 1.0985
 Red. Mass:       2.7253                 2.1158                 2.1693
 IR Intens:        6.596                  6.639                  3.454
 Frequency:       953.81                 983.79                 988.01
 Force Cnst:      0.7732                 1.5314                 0.9098
 Red. Mass:       1.4424                 2.6855                 1.5819
 IR Intens:        3.562                  1.295                  2.630
 Frequency:      1001.91                1008.32                1040.86
 Force Cnst:      1.8136                 1.9599                 1.1098
 Red. Mass:       3.0664                 3.2718                 1.7387
 IR Intens:        0.412                 15.619                  2.416
 Frequency:      1066.34                1086.38                1106.53
 Force Cnst:      2.1594                 1.3736                 1.1349
 Red. Mass:       3.2232                 1.9753                 1.5732
 IR Intens:       14.506                 19.347                  4.596
 Frequency:      1130.01                1138.54                1139.86
 Force Cnst:      1.1073                 1.6449                 1.8037
 Red. Mass:       1.4718                 2.1538                 2.3562
 IR Intens:       27.515                166.509                169.135
 Frequency:      1157.10                1171.00                1172.38
 Force Cnst:      1.5879                 1.0606                 1.6673
 Red. Mass:       2.0130                 1.3127                 2.0589
 IR Intens:       57.952                  1.335                 16.807
 Frequency:      1174.52                1197.40                1208.79
 Force Cnst:      1.0601                 2.0036                 1.3374
 Red. Mass:       1.3043                 2.3718                 1.5535
 IR Intens:        2.373                 23.925                 20.553
 Frequency:      1214.24                1251.64                1276.56
 Force Cnst:      1.3545                 3.6256                 3.1324
 Red. Mass:       1.5592                 3.9280                 3.2625
 IR Intens:       24.407                276.598                 91.593
 Frequency:      1281.08                1282.43                1294.01
 Force Cnst:      1.4078                 1.5927                 1.6984
 Red. Mass:       1.4559                 1.6437                 1.7216
 IR Intens:       13.691                  9.871                 23.574
 Frequency:      1297.37                1353.47                1405.80
 Force Cnst:      1.5838                 1.9038                 1.3927
 Red. Mass:       1.5971                 1.7639                 1.1960
 IR Intens:        1.782                  7.534                  1.844
 Frequency:      1423.28                1467.94                1468.79
 Force Cnst:      1.4320                 1.4948                 1.5063
 Red. Mass:       1.1998                 1.1774                 1.1851
 IR Intens:        9.826                  7.951                  9.698
 Frequency:      1483.83                1484.90                1486.62
 Force Cnst:      1.3550                 1.3562                 1.3615
 Red. Mass:       1.0445                 1.0439                 1.0456
 IR Intens:        8.638                  9.331                 10.996
 Frequency:      1497.73                1498.38                1499.37
 Force Cnst:      1.3884                 1.3976                 1.3848
 Red. Mass:       1.0505                 1.0566                 1.0455
 IR Intens:       20.792                  0.878                  6.166
 Frequency:      1506.41                1510.75                1526.02
 Force Cnst:      1.4569                 1.4084                 1.4612
 Red. Mass:       1.0897                 1.0473                 1.0650
 IR Intens:        2.000                  4.308                 27.886
 Frequency:      1636.25                1781.17                1784.59
 Force Cnst:      8.9220                22.2969                22.2785
 Red. Mass:       5.6560                11.9284                11.8730
 IR Intens:        3.844                 73.699                345.785
 Frequency:      3044.89                3048.16                3049.21
 Force Cnst:      5.6786                 5.6366                 5.6368
 Red. Mass:       1.0396                 1.0297                 1.0290
 IR Intens:       12.195                 34.497                 45.052
 Frequency:      3050.73                3070.90                3108.99
 Force Cnst:      5.7048                 5.8846                 6.2442
 Red. Mass:       1.0404                 1.0591                 1.0965
 IR Intens:       21.826                 30.350                  7.312
 Frequency:      3112.55                3113.95                3118.03
 Force Cnst:      6.2408                 6.2734                 6.2399
 Red. Mass:       1.0933                 1.0981                 1.0894
 IR Intens:       22.175                 36.810                 19.624
 Frequency:      3119.53                3120.32                3124.21
 Force Cnst:      6.3012                 6.3494                 6.3670
 Red. Mass:       1.0990                 1.1068                 1.1071
 IR Intens:       39.762                 18.936                 16.381
 Frequency:      3135.46                3142.97                3150.71
 Force Cnst:      6.3805                 6.4167                 6.4720
 Red. Mass:       1.1015                 1.1025                 1.1065
 IR Intens:       15.710                 21.825                 15.291
 Frequency:      3154.37                3199.37                3240.01
 Force Cnst:      6.4856                 6.5778                 6.8168
 Red. Mass:       1.1063                 1.0907                 1.1021
 IR Intens:       14.960                  6.771                  3.970

 STANDARD THERMODYNAMIC QUANTITIES AT   298.15 K  AND     1.00 ATM

   This Molecule has  0 Imaginary Frequencies
   Zero point vibrational energy:      183.910 kcal/mol

   Atom    1 Element C  Has Mass   12.00000
   Atom    2 Element C  Has Mass   12.00000
   Atom    3 Element C  Has Mass   12.00000
   Atom    4 Element C  Has Mass   12.00000
   Atom    5 Element O  Has Mass   15.99491
   Atom    6 Element O  Has Mass   15.99491
   Atom    7 Element O  Has Mass   15.99491
   Atom    8 Element O  Has Mass   15.99491
   Atom    9 Element C  Has Mass   12.00000
   Atom   10 Element C  Has Mass   12.00000
   Atom   11 Element C  Has Mass   12.00000
   Atom   12 Element C  Has Mass   12.00000
   Atom   13 Element C  Has Mass   12.00000
   Atom   14 Element C  Has Mass   12.00000
   Atom   15 Element C  Has Mass   12.00000
   Atom   16 Element C  Has Mass   12.00000
   Atom   17 Element C  Has Mass   12.00000
   Atom   18 Element H  Has Mass    1.00783
   Atom   19 Element H  Has Mass    1.00783
   Atom   20 Element H  Has Mass    1.00783
   Atom   21 Element H  Has Mass    1.00783
   Atom   22 Element H  Has Mass    1.00783
   Atom   23 Element H  Has Mass    1.00783
   Atom   24 Element H  Has Mass    1.00783
   Atom   25 Element H  Has Mass    1.00783
   Atom   26 Element H  Has Mass    1.00783
   Atom   27 Element H  Has Mass    1.00783
   Atom   28 Element H  Has Mass    1.00783
   Atom   29 Element H  Has Mass    1.00783
   Atom   30 Element H  Has Mass    1.00783
   Atom   31 Element H  Has Mass    1.00783
   Atom   32 Element H  Has Mass    1.00783
   Atom   33 Element H  Has Mass    1.00783
   Atom   34 Element H  Has Mass    1.00783
   Atom   35 Element H  Has Mass    1.00783
   Molecular Mass:   238.120580 amu
   Principal axes and moments of inertia in amu*Bohr^2:
                             1           2           3
    Eigenvalues --     3075.20943  3316.98583  4466.11929
          X               0.99836     0.05421    -0.01866
          Y              -0.05462     0.99827    -0.02198
          Z               0.01743     0.02296     0.99958
   Rotational Symmetry Number is   1
   The Molecule is an Asymmetric Top
   Translational Enthalpy:        0.889 kcal/mol
   Rotational Enthalpy:           0.889 kcal/mol
   Vibrational Enthalpy:        192.676 kcal/mol
   gas constant (RT):             0.592 kcal/mol
   Translational Entropy:        42.304  cal/mol.K
   Rotational Entropy:           32.188  cal/mol.K
   Vibrational Entropy:          54.568  cal/mol.K

   Total Enthalpy:              195.046 kcal/mol
   Total Entropy:               129.060  cal/mol.K

 Total job time:  14929.89s(wall), 89709.83s(cpu)
        *  Thank you very much for using Q-Chem.  Have a nice day.  *
