 Q-Chem 4.4, Q-Chem, Inc., Pleasanton, CA (2016)
 Q-Chem 4.3.0 for Intel X86 EM64T Linux

User input:
--------------------------------------------------------------
$molecule
0  1
C    0.656  -1.997   0.550
C   -0.379  -2.055   1.685
C    1.075  -0.633   0.035
C   -0.743  -0.756   2.367
O    2.254  -0.766  -0.643
O    0.466   0.414   0.178
O    0.380  -0.211   2.923
O   -1.879  -0.339   2.537
C    0.159   1.039   3.578
C    2.798   0.433  -1.203
C   -0.074  -2.721  -0.584
C   -0.239  -4.209  -0.268
C   -1.341  -4.194   0.796
C   -1.585  -2.694   0.978
O   -1.425  -2.250  -0.391
H    1.566  -2.528   0.855
H   -0.041  -2.721   2.491
H   -0.505   1.690   2.999
H    2.061   1.233  -1.326
H    0.286  -2.514  -1.595
H   -0.592  -4.755  -1.150
H    0.687  -4.677   0.078
H   -2.237  -4.682   0.398
H   -1.053  -4.703   1.720
H   -2.574  -2.451   1.372
H   -0.249   0.863   4.578
H    1.124   1.543   3.677
H    3.204   0.190  -2.189
H    3.617   0.777  -0.565
$end

$opt
CONSTRAINT
tors    2    1    3    5    162.3
tors    1    2    4    7    -61.6
ENDCONSTRAINT
$end

$rem
JOBTYPE                   OPT
METHOD                    B3LYP
DFT_D                     EMPIRICAL_GRIMME3
BASIS                     6-31G*
GEOM_OPT_MAX_CYCLES       500
GEOM_OPT_TOL_GRADIENT     5
GEOM_OPT_TOL_DISPLACEMENT 5
GEOM_OPT_TOL_ENERGY       5
SYMMETRY                  False
THRESH                    12
SCF_CONVERGENCE           8
MAX_SUB_FILE_NUM          128
MEM_STATIC                400
MEM_TOTAL                 4000
$end

--------------------------------------------------------------

   15    -765.6305253015      4.05E-09 Convergence criterion met
 Total energy in the final basis set = -765.6305253015
   12    -765.6363054334      5.40E-09 Convergence criterion met
 Total energy in the final basis set = -765.6363054334
   12    -765.6371914708      3.23E-09 Convergence criterion met
 Total energy in the final basis set = -765.6371914708
   11    -765.6375258559      8.96E-09 Convergence criterion met
 Total energy in the final basis set = -765.6375258559
   11    -765.6376587764      4.89E-09 Convergence criterion met
 Total energy in the final basis set = -765.6376587764
   11    -765.6378296694      3.30E-09 Convergence criterion met
 Total energy in the final basis set = -765.6378296694
   11    -765.6380582301      5.13E-09 Convergence criterion met
 Total energy in the final basis set = -765.6380582301
   11    -765.6383783660      6.66E-09 Convergence criterion met
 **  OPTIMIZATION CONVERGED  **
 Total job time:  305.00s(wall), 5475.63s(cpu)
        *  Thank you very much for using Q-Chem.  Have a nice day.  *

User input: 2 of 2

                  Welcome to Q-Chem
     A Quantum Leap Into The Future Of Chemistry

 Q-Chem 4.4, Q-Chem, Inc., Pleasanton, CA (2016)

 Y. Shao,  Z. Gan,  E. Epifanovsky,  A. T. B. Gilbert,  M. Wormit,
 J. Kussmann,  A. W. Lange,  A. Behn,  J. Deng,  X. Feng,  D. Ghosh,
 M. Goldey,  P. R. Horn,  L. D. Jacobson,  I. Kaliman,  R. Z. Khaliullin,
 T. Kus,  A. Landau,  J. Liu,  E. I. Proynov,  Y. M. Rhee,  R. M. Richard,
 M. A. Rohrdanz,  R. P. Steele,  E. J. Sundstrom,  H. L. Woodcock III,
 P. M. Zimmerman,  D. Zuev,  B. Albrecht,  E. Alguire,  B. Austin,
 S. A. Baeppler,  G. J. O. Beran,  Y. A. Bernard,  E. Berquist,
 K. Brandhorst,  K. B. Bravaya,  S. T. Brown,  D. Casanova,  C.-M. Chang,
 Y. Chen,  S. H. Chien,  K. D. Closser,  M. P. Coons,  D. L. Crittenden,
 S. Dasgupta,  M. Diedenhofen,  R. A. DiStasio Jr.,  H. Do,  A. D. Dutoi,
 R. G. Edgar,  P.-T. Fang,  S. Fatehi,  Q. Feng,  L. Fusti-Molnar,
 A. Ghysels,  A. Golubeva-Zadorozhnaya,  J. Gomes,  A. Gunina,
 M. W. D. Hanson-Heine,  P. H. P. Harbach,  A. W. Hauser,  E. G. Hohenstein,
 Z. C. Holden,  K. Hui,  T.-C. Jagau,  H. Ji,  B. Kaduk,  K. Khistyaev,
 Jaehoon Kim,  Jihan Kim,  R. A. King,  P. Klunzinger,  D. Kosenkov,
 T. Kowalczyk,  C. M. Krauter,  A. Kunitsa,  K. U. Lao,  A. Laurent,
 K. V. Lawler,  D. Lefrancois,  S. Lehtola,  S. V. Levchenko,  C. Y. Lin,
 Y.-S. Lin,  F. Liu,  E. Livshits,  R. C. Lochan,  A. Luenser,  P. Manohar,
 S. F. Manzer,  S.-P. Mao,  Y. Mao,  N. Mardirossian,  A. V. Marenich,
 L. A. Martinez-Martinez,  S. A. Maurer,  N. J. Mayhall,  J.-M. Mewes,
 A. F. Morrison,  K. Nanda,  C. M. Oana,  R. Olivares-Amaya,  D. P. O'Neill,
 J. A. Parkhill,  T. M. Perrine,  R. Peverati,  P. A. Pieniazek,  F. Plasser,
 A. Prociuk,  D. R. Rehn,  E. Rosta,  N. J. Russ,  N. Sergueev,
 S. M. Sharada,  S. Sharma,  D. W. Small,  A. Sodt,  T. Stauch,  T. Stein,
 D. Stuck,  Y.-C. Su,  A. J. W. Thom,  T. Tsuchimochi,  L. Vogt,  O. Vydrov,
 T. Wang,  M. A. Watson,  J. Wenzel,  A. White,  C. F. Williams,
 V. Vanovschi,  S. Yeganeh,  S. R. Yost,  Z.-Q. You,  I. Y. Zhang,  X. Zhang,
 Y. Zhao,  B. R. Brooks,  G. K. L. Chan,  D. M. Chipman,  C. J. Cramer,
 W. A. Goddard III,  M. S. Gordon,  W. J. Hehre,  A. Klamt,
 H. F. Schaefer III,  M. W. Schmidt,  C. D. Sherrill,  D. G. Truhlar,
 A. Warshel,  X. Xu,  A. Aspuru-Guzik,  R. Baer,  A. T. Bell,  N. A. Besley,
 J.-D. Chai,  A. Dreuw,  B. D. Dunietz,  T. R. Furlani,  S. R. Gwaltney,
 C.-P. Hsu,  Y. Jung,  J. Kong,  D. S. Lambrecht,  W. Liang,  C. Ochsenfeld,
 V. A. Rassolov,  L. V. Slipchenko,  J. E. Subotnik,  T. Van Voorhis,
 J. M. Herbert,  A. I. Krylov,  P. M. W. Gill,  M. Head-Gordon

 Contributors to earlier versions of Q-Chem not listed above:
 R. D. Adamson,  J. Baker,  E. F. C. Byrd,  A. K. Chakraborty,  C.-L. Cheng,
 H. Dachsel,  R. J. Doerksen,  G. Hawkins,  A. Heyden,  S. Hirata,
 G. Kedziora,  F. J. Keil,  C. Kelley,  P. P. Korambath,  W. Kurlancheek,
 A. M. Lee,  M. S. Lee,  D. Liotard,  I. Lotan,  P. E. Maslen,  N. Nair,
 D. Neuhauser,  R. Olson,  B. Peters,  J. Ritchie,  N. E. Schultz,
 N. Shenvi,  A. C. Simmonett,  K. S. Thanthiriwatte,  Q. Wu,  W. Zhang

 Please cite Q-Chem as follows:
 Y. Shao et al., Mol. Phys. 113, 184-215 (2015)
 DOI: 10.1080/00268976.2014.952696

 Q-Chem 4.3.0 for Intel X86 EM64T Linux

 Parts of Q-Chem use Armadillo 5.200.1 (Boston Tea Smuggler).
 http://arma.sourceforge.net/

 Q-Chem begins on Mon Oct  2 21:26:20 2017

Host: nid03798
0

     Scratch files written to /global/cscratch1/sd/junteng/scratch/13/opt_1001.save//

Checking the input file for inconsistencies... 	...done.

--------------------------------------------------------------
User input:
--------------------------------------------------------------

$molecule
   read
$end

$rem
JOBTYPE                   OPT
METHOD                    B3LYP
DFT_D                     EMPIRICAL_GRIMME3
BASIS                     6-31G*
GEOM_OPT_MAX_CYCLES       500
GEOM_OPT_TOL_GRADIENT     5
GEOM_OPT_TOL_DISPLACEMENT 5
GEOM_OPT_TOL_ENERGY       5
SYMMETRY                  False
THRESH                    12
SCF_CONVERGENCE           8
MAX_SUB_FILE_NUM          128
MEM_STATIC                400
MEM_TOTAL                 4000
$end
--------------------------------------------------------------

    9    -765.6391172104      8.36E-09 Convergence criterion met
 Total energy in the final basis set = -765.6391172104
    8    -765.6391168516      3.88E-09 Convergence criterion met
 Total energy in the final basis set = -765.6391168516
    7    -765.6391169831      6.51E-09 Convergence criterion met
 Total energy in the final basis set = -765.6391169831
    7    -765.6391171055      8.39E-09 Convergence criterion met
 Total energy in the final basis set = -765.6391171055
    8    -765.6391171364      2.64E-09 Convergence criterion met
 Total energy in the final basis set = -765.6391171364
    7    -765.6391171483      3.63E-09 Convergence criterion met
 Total energy in the final basis set = -765.6391171483

             Standard Nuclear Orientation (Angstroms)
    I     Atom           X                Y                Z
 ----------------------------------------------------------------
    1      C      -0.3863553065     0.6456121161    -0.6222143192
    2      C      -0.6084698679    -0.8968577973    -0.4948418947
    3      C       0.8628317405     1.1837535247     0.0468285628
    4      C       0.5762748924    -1.7076626195     0.0053679530
    5      O       1.1545466727     2.4095047494    -0.4473401391
    6      O       1.4932727432     0.6565369505     0.9360083898
    7      O       1.6162171454    -1.5765406404    -0.8488391954
    8      O       0.5772164904    -2.4371726064     0.9695637124
    9      C       2.8325564672    -2.2106222514    -0.4217485677
   10      C       2.2793687900     3.0615647798     0.1672877844
   11      C      -1.6337807014     1.1586421211     0.1690865149
   12      C      -2.9245578162     0.8714456571    -0.6368038660
   13      C      -3.1123722315    -0.6537049377    -0.3660461356
   14      C      -1.8384703158    -0.9588137306     0.4478092337
   15      O      -1.7010647270     0.2280977407     1.2496952854
   16      H      -0.3981435555     0.9882465435    -1.6589300409
   17      H      -0.8468706080    -1.3017762756    -1.4848927105
   18      H       3.1724644487    -1.7623385789     0.5160949976
   19      H       2.1112783957     3.1874946653     1.2405156811
   20      H      -1.5347373142     2.1751957078     0.5528743577
   21      H      -3.7574994770     1.4562870617    -0.2375231560
   22      H      -2.8185627068     1.1147243768    -1.6985596286
   23      H      -4.0004452652    -0.8415461185     0.2433631906
   24      H      -3.1909724634    -1.2503372071    -1.2801359649
   25      H      -1.8602150219    -1.8371342162     1.0903683620
   26      H       2.6792822441    -3.2833546798    -0.2748817051
   27      H       3.5545504396    -2.0305609461    -1.2194480041
   28      H       2.3635628371     4.0299032522    -0.3271429481
   29      H       3.1891568178     2.4726085684     0.0194607668
 ----------------------------------------------------------------

    7    -765.6391171503      4.23E-09 Convergence criterion met
 Total energy in the final basis set = -765.6391171503
 Final energy is   -765.639117150324
 **  OPTIMIZATION CONVERGED  **

                    Orbital Energies (a.u.)
 --------------------------------------------------------------

 Alpha MOs
 -- Occupied --
-19.196 -19.183 -19.148 -19.139 -19.127 -10.316 -10.308 -10.247
-10.243 -10.235 -10.231 -10.214 -10.209 -10.193 -10.190  -1.105
 -1.092  -1.052  -1.016  -1.006  -0.820  -0.775  -0.766  -0.728
 -0.714  -0.644  -0.595  -0.587  -0.567  -0.548  -0.533  -0.509
 -0.492  -0.480  -0.476  -0.474  -0.466  -0.457  -0.447  -0.420
 -0.409  -0.408  -0.400  -0.383  -0.376  -0.363  -0.357  -0.355
 -0.348  -0.347  -0.327  -0.322  -0.306  -0.291  -0.276  -0.265
 -0.258

          Ground-State Mulliken Net Atomic Charges

     Atom                 Charge (a.u.)
  ----------------------------------------
      1 C                    -0.186830
      2 C                    -0.198984
      3 C                     0.634462
      4 C                     0.651541
      5 O                    -0.461879
      6 O                    -0.473834
      7 O                    -0.465618
      8 O                    -0.479936
      9 C                    -0.220275
     10 C                    -0.219638
     11 C                     0.095234
     12 C                    -0.287371
     13 C                    -0.281036
     14 C                     0.102540
     15 O                    -0.462588
     16 H                     0.162185
     17 H                     0.164078
     18 H                     0.182301
     19 H                     0.174495
     20 H                     0.152198
     21 H                     0.155585
     22 H                     0.141024
     23 H                     0.155044
     24 H                     0.138653
     25 H                     0.168421
     26 H                     0.168268
     27 H                     0.156529
     28 H                     0.164809
     29 H                     0.170624
  ----------------------------------------
  Sum of atomic charges =     0.000000

                    Cartesian Multipole Moments
 -----------------------------------------------------------------
    Charge (ESU x 10^10)
                 0.0000
    Dipole Moment (Debye)
         X      -0.0133      Y       2.0616      Z      -3.4264
       Tot       3.9988
    Quadrupole Moments (Debye-Ang)
        XX     -75.3209     XY       2.3407     YY     -81.2761
        XZ       0.5779     YZ       4.7913     ZZ     -92.2804

 Total job time:  173.73s(wall), 3822.84s(cpu)
        *  Thank you very much for using Q-Chem.  Have a nice day.  *
