 Q-Chem 5.0, Q-Chem, Inc., Pleasanton, CA (2017)
 Q-Chem 5.0.0 for Intel X86 EM64T Linux

User input:
--------------------------------------------------------------
$molecule
0  1
C    0.579  -1.978   0.499
C   -0.345  -1.987   1.740
C    0.941  -0.610  -0.048
C   -0.562  -0.630   2.386
O    2.215  -0.645  -0.542
O    0.210   0.366  -0.087
O    0.648  -0.161   2.826
O   -1.631  -0.088   2.617
C    0.572   1.116   3.461
C    2.652   0.593  -1.106
C   -0.242  -2.782  -0.524
C   -0.292  -4.259  -0.098
C   -1.265  -4.223   1.081
C   -1.594  -2.718   1.188
O   -1.591  -2.362  -0.216
H    1.516  -2.494   0.747
H    0.090  -2.606   2.538
H   -0.024   1.052   4.377
H    2.622   1.389  -0.356
H   -0.708  -4.895  -0.888
H    0.690  -4.657   0.174
H   -2.154  -4.811   0.825
H   -0.840  -4.639   1.999
H    1.587   1.422   3.729
H    0.156   1.863   2.777
H    2.039   0.852  -1.975
H    3.687   0.467  -1.436
C   -2.945  -2.478   1.828
H   -3.699  -3.155   1.411
H   -2.911  -2.635   2.910
H   -3.320  -1.473   1.614
C    0.085  -2.603  -1.994
H   -0.579  -3.214  -2.616
H   -0.074  -1.570  -2.320
H    1.119  -2.890  -2.210
$end

$opt
CONSTRAINT
tors    2    1    3    5    152.3
tors    1    2    4    7    -69.6
ENDCONSTRAINT
$end

$rem
JOBTYPE                   OPT
METHOD                    B3LYP
DFT_D                     D3_OP
BASIS                     STO-3G
GEOM_OPT_MAX_CYCLES       500
SYMMETRY                  False
THRESH                    12
SCF_CONVERGENCE           8
MAX_SUB_FILE_NUM          128
MEM_STATIC                400
MEM_TOTAL                 4000
$end

--------------------------------------------------------------

   14    -833.4099632771      3.41E-09 Convergence criterion met
 Total energy in the final basis set = -833.4099632771
   13    -833.4389157571      4.35E-09 Convergence criterion met
 Total energy in the final basis set = -833.4389157571
   13    -833.4466886725      3.25E-09 Convergence criterion met
 Total energy in the final basis set = -833.4466886725
   12    -833.4477796589      7.37E-09 Convergence criterion met
 Total energy in the final basis set = -833.4477796589
   11    -833.4481248080      9.61E-09 Convergence criterion met
 Total energy in the final basis set = -833.4481248080
   11    -833.4484198005      5.23E-09 Convergence criterion met
 Total energy in the final basis set = -833.4484198005
   11    -833.4486909753      6.13E-09 Convergence criterion met
 Total energy in the final basis set = -833.4486909753
   11    -833.4489579842      7.82E-09 Convergence criterion met
 **  OPTIMIZATION CONVERGED  **
 Total job time:  137.08s(wall), 2775.69s(cpu)
        *  Thank you very much for using Q-Chem.  Have a nice day.  *

User input: 2 of 3

nid04265 10.128.16
Q-Chem Developer Version! Running on 10.128.16.*
                  Welcome to Q-Chem
     A Quantum Leap Into The Future Of Chemistry

 Q-Chem 5.0, Q-Chem, Inc., Pleasanton, CA (2017)

 Yihan Shao,  Zhengting Gan,  E. Epifanovsky,  A. T. B. Gilbert,  M. Wormit,
 J. Kussmann,  A. W. Lange,  A. Behn,  Jia Deng,  Xintian Feng,  D. Ghosh,
 M. Goldey,  P. R. Horn,  L. D. Jacobson,  I. Kaliman,  T. Kus,  A. Landau,
 Jie Liu,  E. I. Proynov,  R. M. Richard,  R. P. Steele,  E. J. Sundstrom,
 H. L. Woodcock III,  P. M. Zimmerman,  D. Zuev,  B. Albrecht,  E. Alguire,
 S. A. Baeppler,  Z. Benda,  Y. A. Bernard,  E. J. Berquist,  K. B. Bravaya,
 D. Casanova,  Chun-Min Chang,  Yunqing Chen,  A. Chien,  K. D. Closser,
 M. P. Coons,  S. Dasgupta,  M. Diedenhofen,  Hainam Do,  R. G. Edgar,
 Po-Tung Fang,  S. Fatehi,  Qingguo Feng,  Qinghui Ge,  A. Ghysels,
 J. Gomes,  J. Gonthier,  A. Gunina,  M. W. D. Hanson-Heine,
 P. H. P. Harbach,  A. W. Hauser,  J. E. Herr,  E. G. Hohenstein,
 Z. C. Holden,  Kerwin Hui,  T.-C. Jagau,  Hyunjun Ji,  B. Kaduk,
 K. Khistyaev,  Jaehoon Kim,  P. Klunzinger,  K. Koh,  D. Kosenkov,
 T. Kowalczyk,  C. M. Krauter,  A. Kunitsa,  Ka Un Lao,  A. Laurent,
 K. V. Lawler,  Joonho Lee,  D. Lefrancois,  S. Lehtola,  D. S. Levine,
 Yi-Pei Li,  You-Sheng Lin,  Fenglai Liu,  E. Livshits,  A. Luenser,
 P. Manohar,  E. Mansoor,  S. F. Manzer,  Shan-Ping Mao,  Yuezhi Mao,
 N. Mardirossian,  A. V. Marenich,  L. A. Martinez-Martinez,  S. A. Maurer,
 N. J. Mayhall,  S. C. McKenzie,  J.-M. Mewes,  A. F. Morrison,  K. Nanda,
 T. S. Nguyen-Beck,  R. Olivares-Amaya,  J. A. Parkhill,  T. M. Perrine,
 F. Plasser,  S. Prager,  A. Prociuk,  D. R. Rehn,  F. Rob,  M. Schneider,
 N. Sergueev,  S. M. Sharada,  S. Sharma,  D. W. Small,  T. Stauch,
 T. Stein,  Yu-Chuan Su,  A. J. W. Thom,  T. Tsuchimochi,  L. Vogt,
 O. Vydrov,  M. A. Watson,  J. Wenzel,  M. de Wergifosse,  T. A. Wesolowski,
 A. White,  J. Witte,  A. Yamada,  Jun Yang,  K. Yao,  S. Yeganeh,
 S. R. Yost,  Zhi-Qiang You,  A. Zech,  Igor Ying Zhang,  Xing Zhang,
 Yan Zhao,  Ying Zhu,  B. R. Brooks,  G. K. L. Chan,  C. J. Cramer,
 M. S. Gordon,  W. J. Hehre,  A. Klamt,  M. W. Schmidt,  C. D. Sherrill,
 D. G. Truhlar,  A. Aspuru-Guzik,  R. Baer,  A. T. Bell,  N. A. Besley,
 Jeng-Da Chai,  A. Dreuw,  B. D. Dunietz,  T. R. Furlani,  Chao-Ping Hsu,
 Yousung Jung,  Jing Kong,  D. S. Lambrecht,  WanZhen Liang,  C. Ochsenfeld,
 V. A. Rassolov,  L. V. Slipchenko,  J. E. Subotnik,  T. Van Voorhis,
 J. M. Herbert,  A. I. Krylov,  P. M. W. Gill,  M. Head-Gordon

 Contributors to earlier versions of Q-Chem not listed above:
 R. D. Adamson,  B. Austin,  J. Baker,  G. J. O. Beran,  K. Brandhorst,
 S. T. Brown,  E. F. C. Byrd,  A. K. Chakraborty,  C.-L. Cheng,
 Siu Hung Chien,  D. M. Chipman,  D. L. Crittenden,  H. Dachsel,
 R. A. DiStasio Jr.,  R. J. Doerksen,  A. D. Dutoi,  L. Fusti-Molnar,
 W. A. Goddard III,  A. Golubeva-Zadorozhnaya,  S. R. Gwaltney,  G. Hawkins,
 A. Heyden,  S. Hirata,  G. Kedziora,  F. J. Keil,  C. Kelley,  Jihan Kim,
 R. A. King,  R. Z. Khaliullin,  P. P. Korambath,  W. Kurlancheek,
 A. M. Lee,  M. S. Lee,  S. V. Levchenko,  Ching Yeh Lin,  D. Liotard,
 R. C. Lochan,  I. Lotan,  P. E. Maslen,  N. Nair,  D. P. O'Neill,
 D. Neuhauser,  E. Neuscamman,  C. M. Oana,  R. Olson,  B. Peters,
 R. Peverati,  P. A. Pieniazek,  Y. M. Rhee,  J. Ritchie,  M. A. Rohrdanz,
 E. Rosta,  N. J. Russ,  H. F. Schaefer III,  N. E. Schultz,  N. Shenvi,
 A. C. Simmonett,  A. Sodt,  D. Stuck,  K. S. Thanthiriwatte,  V. Vanovschi,
 Tao Wang,  A. Warshel,  C. F. Williams,  Q. Wu,  X. Xu,  W. Zhang

 Please cite Q-Chem as follows:
 Y. Shao et al., Mol. Phys. 113, 184-215 (2015)
 DOI: 10.1080/00268976.2014.952696

 Q-Chem 5.0.0 for Intel X86 EM64T Linux

 Parts of Q-Chem use Armadillo 5.200.1 (Boston Tea Smuggler).
 http://arma.sourceforge.net/

 Q-Chem begins on Wed Oct  4 18:01:48 2017

Host: nid04265
0

     Scratch files written to /global/cscratch1/sd/junteng/scratch/15/opt_1111+-.save//
The previous job contains 0 fragments, simply inherited here

Checking the input file for inconsistencies... 	...done.

--------------------------------------------------------------
User input:
--------------------------------------------------------------

$molecule
   read
$end

$rem
JOBTYPE                   OPT
METHOD                    B3LYP
DFT_D                     D3_OP
BASIS                     6-311++G(d,p)
GEOM_OPT_MAX_CYCLES       500
GEOM_OPT_TOL_GRADIENT     1
GEOM_OPT_TOL_DISPLACEMENT 1
GEOM_OPT_TOL_ENERGY       1
SYMMETRY                  False
THRESH                    12
SCF_CONVERGENCE           8
MAX_SUB_FILE_NUM          128
MEM_STATIC                400
MEM_TOTAL                 4000
$end

--------------------------------------------------------------

   10    -844.5292309062      4.90E-09 Convergence criterion met
 Total energy in the final basis set = -844.5292309062
    9    -844.5292315689      9.29E-09 Convergence criterion met
 Total energy in the final basis set = -844.5292315689
    9    -844.5292313866      2.85E-09 Convergence criterion met
 Total energy in the final basis set = -844.5292313866
    7    -844.5292314710      6.51E-09 Convergence criterion met
 Total energy in the final basis set = -844.5292314710
    6    -844.5292314857      5.76E-09 Convergence criterion met
 Total energy in the final basis set = -844.5292314857
    6    -844.5292314863      2.16E-09 Convergence criterion met
 Total energy in the final basis set = -844.5292314863
 Final energy is   -844.529231486259
        *  Thank you very much for using Q-Chem.  Have a nice day.  *
 Q-Chem 5.0, Q-Chem, Inc., Pleasanton, CA (2017)
 Q-Chem 5.0.0 for Intel X86 EM64T Linux

             Standard Nuclear Orientation (Angstroms)
    I     Atom           X                Y                Z
 ----------------------------------------------------------------
    1      C       0.0290114069     0.6611474088     0.6479393916
    2      C       0.5121899949    -0.8297827480     0.6441351713
    3      C      -1.2626799059     0.9265352448    -0.0916385935
    4      C      -0.5032328951    -1.8067508279     0.0673748122
    5      O      -1.9815182500     1.8767092867     0.5493406372
    6      O      -1.6093254012     0.4244111785    -1.1315354028
    7      O      -1.6274838448    -1.7590380715     0.8254381030
    8      O      -0.3676392520    -2.5588530932    -0.8601274755
    9      C      -2.7382392181    -2.5387880172     0.3466214659
   10      C      -3.2061835061     2.2783072928    -0.0917877453
   11      C       1.2384201935     1.3717410256    -0.0741714065
   12      C       2.4052887678     1.4249861986     0.9443541350
   13      C       2.8674401658    -0.0541144219     0.9597269805
   14      C       1.9001988547    -0.7123116258    -0.0664500414
   15      O       1.6742730830     0.3669946896    -0.9955564013
   16      H      -0.0897662075     1.0423766997     1.6604471598
   17      H       0.6472009714    -1.1538485534     1.6791971841
   18      H      -2.4774014292    -3.5972867348     0.3046556592
   19      H      -3.8648838458     1.4194070674    -0.2275503582
   20      H       3.1900415545     2.0839709460     0.5674051867
   21      H       2.0921222839     1.8006463110     1.9203644408
   22      H       3.8940880245    -0.1512229530     0.6028950515
   23      H       2.8110371703    -0.5215716803     1.9449479220
   24      H      -3.5406003946    -2.3711002930     1.0621484068
   25      H      -3.0297281226    -2.1967325445    -0.6477099057
   26      H      -2.9985773506     2.7273209048    -1.0645015084
   27      H      -3.6586381578     3.0069825789     0.5772097850
   28      C       2.4708520199    -1.9207427996    -0.7767074467
   29      H       3.4657421493    -1.6771594572    -1.1570059464
   30      H       2.5623927038    -2.7608673736    -0.0828844070
   31      H       1.8315949838    -2.2296011485    -1.5993297011
   32      C       0.9325622596     2.6665456047    -0.7944496424
   33      H       1.8404264928     3.0481932942    -1.2659471371
   34      H       0.1826459840     2.5101140405    -1.5718773587
   35      H       0.5620836813     3.4179529643    -0.0926226423
 ----------------------------------------------------------------

   15    -844.5292074687      3.72E-09 Convergence criterion met
 Total energy in the final basis set = -844.5292074687

                    Orbital Energies (a.u.)
 --------------------------------------------------------------

 Alpha MOs
 -- Occupied --
-19.177 -19.166 -19.125 -19.117 -19.111 -10.306 -10.303 -10.242
-10.236 -10.232 -10.223 -10.203 -10.203 -10.177 -10.175 -10.168
-10.154  -1.117  -1.108  -1.059  -1.029  -1.023  -0.830  -0.803
 -0.782  -0.749  -0.725  -0.720  -0.670  -0.642  -0.601  -0.581
 -0.563  -0.553  -0.526  -0.508  -0.501  -0.491  -0.488  -0.480
 -0.473  -0.470  -0.456  -0.439  -0.433  -0.422  -0.419  -0.411
 -0.405  -0.396  -0.392  -0.373  -0.369  -0.365  -0.358  -0.355
 -0.352  -0.346  -0.331  -0.323  -0.318  -0.308  -0.289  -0.274
 -0.269

          Ground-State Mulliken Net Atomic Charges

     Atom                 Charge (a.u.)
  ----------------------------------------
      1 C                     0.695695
      2 C                     0.417234
      3 C                    -1.524507
      4 C                    -0.527900
      5 O                     0.041861
      6 O                    -0.151989
      7 O                    -0.018889
      8 O                    -0.171736
      9 C                    -0.176132
     10 C                    -0.186866
     11 C                    -0.179168
     12 C                    -0.293833
     13 C                    -0.437145
     14 C                    -0.749283
     15 O                     0.038758
     16 H                     0.295128
     17 H                     0.261304
     18 H                     0.169477
     19 H                     0.162281
     20 H                     0.170241
     21 H                     0.140850
     22 H                     0.174726
     23 H                     0.139363
     24 H                     0.148794
     25 H                     0.190527
     26 H                     0.178603
     27 H                     0.154240
     28 C                    -0.021481
     29 H                     0.141443
     30 H                     0.159470
     31 H                     0.207887
     32 C                    -0.010047
     33 H                     0.178748
     34 H                     0.218777
     35 H                     0.163569
  ----------------------------------------
  Sum of atomic charges =     0.000000

                    Cartesian Multipole Moments
 -----------------------------------------------------------------
    Charge (ESU x 10^10)
                 0.0000
    Dipole Moment (Debye)
         X      -0.8269      Y       2.0045      Z       3.5054
       Tot       4.1219
    Quadrupole Moments (Debye-Ang)
        XX     -89.2135     XY      -0.9497     YY     -97.7722
        XZ       1.5814     YZ      -4.7468     ZZ    -107.8588

 Frequency:        24.64                  37.57                  79.96
 Force Cnst:      0.0014                 0.0041                 0.0191
 Red. Mass:       3.8765                 4.8808                 5.0597
 IR Intens:        0.025                  0.848                  3.024
 Frequency:       100.01                 121.62                 146.53
 Force Cnst:      0.0205                 0.0156                 0.0226
 Red. Mass:       3.4846                 1.7953                 1.7863
 IR Intens:        2.010                  0.228                  1.278
 Frequency:       149.60                 151.49                 185.83
 Force Cnst:      0.0218                 0.0219                 0.0625
 Red. Mass:       1.6517                 1.6219                 3.0698
 IR Intens:        1.049                  0.471                  0.500
 Frequency:       219.30                 221.12                 224.84
 Force Cnst:      0.0758                 0.0405                 0.0535
 Red. Mass:       2.6742                 1.4062                 1.7977
 IR Intens:        0.426                  2.266                  2.626
 Frequency:       233.31                 247.18                 260.43
 Force Cnst:      0.0522                 0.0802                 0.1876
 Red. Mass:       1.6281                 2.2276                 4.6944
 IR Intens:        2.707                  1.841                  4.140
 Frequency:       280.86                 319.99                 325.02
 Force Cnst:      0.1708                 0.2426                 0.1635
 Red. Mass:       3.6743                 4.0205                 2.6267
 IR Intens:        1.172                 12.332                  0.414
 Frequency:       339.88                 367.38                 369.87
 Force Cnst:      0.2392                 0.3392                 0.3002
 Red. Mass:       3.5149                 4.2655                 3.7247
 IR Intens:        5.342                  4.091                  8.868
 Frequency:       422.86                 489.01                 572.66
 Force Cnst:      0.3043                 0.4705                 0.7419
 Red. Mass:       2.8880                 3.3393                 3.8399
 IR Intens:        3.871                 12.586                 11.442
 Frequency:       596.60                 613.52                 647.98
 Force Cnst:      0.9852                 0.8973                 1.1163
 Red. Mass:       4.6979                 4.0461                 4.5124
 IR Intens:        8.691                  3.914                  2.060
 Frequency:       674.83                 719.37                 755.04
 Force Cnst:      1.2935                 1.8104                 1.5425
 Red. Mass:       4.8211                 5.9376                 4.5922
 IR Intens:        1.040                  7.454                  2.858
 Frequency:       808.07                 825.03                 858.27
 Force Cnst:      1.1930                 1.0371                 1.3397
 Red. Mass:       3.1010                 2.5860                 3.0868
 IR Intens:        1.750                  8.591                  6.025
 Frequency:       862.12                 871.95                 887.60
 Force Cnst:      2.1180                 1.9216                 1.1522
 Red. Mass:       4.8365                 4.2897                 2.4822
 IR Intens:        7.390                 23.062                 18.703
 Frequency:       890.67                 914.48                 926.53
 Force Cnst:      1.1340                 1.0984                 1.3187
 Red. Mass:       2.4262                 2.2292                 2.6072
 IR Intens:        8.412                 11.613                 30.295
 Frequency:       968.19                 971.79                 985.83
 Force Cnst:      1.8316                 2.4700                 1.9222
 Red. Mass:       3.3163                 4.4392                 3.3569
 IR Intens:        7.709                  3.356                  5.392
 Frequency:      1010.74                1056.31                1064.99
 Force Cnst:      0.9545                 2.4494                 2.0128
 Red. Mass:       1.5858                 3.7258                 3.0120
 IR Intens:        2.077                 61.933                 53.732
 Frequency:      1109.75                1129.40                1137.62
 Force Cnst:      1.0837                 1.3209                 1.8571
 Red. Mass:       1.4936                 1.7576                 2.4356
 IR Intens:        7.275                 22.513                 23.031
 Frequency:      1165.34                1171.08                1172.14
 Force Cnst:      1.7494                 1.0482                 1.1039
 Red. Mass:       2.1865                 1.2972                 1.3637
 IR Intens:      112.634                  9.445                 12.776
 Frequency:      1181.06                1195.05                1204.87
 Force Cnst:      1.9140                 2.4146                 1.6162
 Red. Mass:       2.3289                 2.8696                 1.8895
 IR Intens:       57.132                369.743                  7.216
 Frequency:      1209.80                1212.36                1220.86
 Force Cnst:      1.3515                 1.6365                 1.6068
 Red. Mass:       1.5673                 1.8897                 1.8297
 IR Intens:       19.273                159.447                 16.922
 Frequency:      1245.95                1257.45                1263.26
 Force Cnst:      2.0322                 1.2587                 1.4074
 Red. Mass:       2.2219                 1.3512                 1.4968
 IR Intens:       37.380                  3.050                 26.640
 Frequency:      1286.59                1329.94                1343.75
 Force Cnst:      1.6630                 1.6276                 2.4272
 Red. Mass:       1.7052                 1.5618                 2.2815
 IR Intens:        8.396                  1.610                  6.422
 Frequency:      1370.45                1396.36                1417.93
 Force Cnst:      1.7478                 1.8199                 1.6228
 Red. Mass:       1.5795                 1.5842                 1.3700
 IR Intens:      101.400                 39.415                 24.168
 Frequency:      1428.61                1466.82                1468.75
 Force Cnst:      1.5972                 1.5035                 1.5304
 Red. Mass:       1.3283                 1.1861                 1.2041
 IR Intens:       11.879                 14.266                 14.436
 Frequency:      1482.67                1483.83                1484.01
 Force Cnst:      1.3755                 1.3561                 1.3582
 Red. Mass:       1.0620                 1.0454                 1.0467
 IR Intens:        4.167                  1.373                 16.695
 Frequency:      1488.28                1494.38                1495.79
 Force Cnst:      1.3848                 1.3941                 1.3812
 Red. Mass:       1.0612                 1.0596                 1.0478
 IR Intens:        5.530                  0.921                  7.837
 Frequency:      1499.12                1501.45                1508.31
 Force Cnst:      1.3838                 1.3981                 1.4242
 Red. Mass:       1.0451                 1.0526                 1.0625
 IR Intens:       14.461                  7.314                 10.936
 Frequency:      1511.84                1791.39                1811.74
 Force Cnst:      1.4606                20.8456                22.1027
 Red. Mass:       1.0846                11.0251                11.4289
 IR Intens:        7.680                 89.406                319.628
 Frequency:      3041.15                3042.21                3048.86
 Force Cnst:      5.6408                 5.6753                 5.6381
 Red. Mass:       1.0352                 1.0408                 1.0295
 IR Intens:       14.698                 16.472                 18.525
 Frequency:      3049.18                3053.55                3061.79
 Force Cnst:      5.6402                 5.8279                 5.9059
 Red. Mass:       1.0296                 1.0608                 1.0693
 IR Intens:       51.557                 30.380                 23.543
 Frequency:      3067.79                3090.52                3099.09
 Force Cnst:      5.9456                 6.2290                 6.2368
 Red. Mass:       1.0722                 1.1069                 1.1022
 IR Intens:       28.291                  0.299                 12.917
 Frequency:      3108.45                3110.48                3116.83
 Force Cnst:      6.2810                 6.2743                 6.3109
 Red. Mass:       1.1033                 1.1007                 1.1026
 IR Intens:       14.351                 29.349                 19.996
 Frequency:      3118.50                3122.20                3123.44
 Force Cnst:      6.2428                 6.3578                 6.3638
 Red. Mass:       1.0895                 1.1070                 1.1071
 IR Intens:       26.201                 20.397                 13.956
 Frequency:      3152.50                3156.26                3165.26
 Force Cnst:      6.4790                 6.4922                 6.4723
 Red. Mass:       1.1065                 1.1061                 1.0964
 IR Intens:       14.038                 14.380                  2.134

 STANDARD THERMODYNAMIC QUANTITIES AT   298.15 K  AND     1.00 ATM

   This Molecule has  0 Imaginary Frequencies
   Zero point vibrational energy:      183.653 kcal/mol

   Atom    1 Element C  Has Mass   12.00000
   Atom    2 Element C  Has Mass   12.00000
   Atom    3 Element C  Has Mass   12.00000
   Atom    4 Element C  Has Mass   12.00000
   Atom    5 Element O  Has Mass   15.99491
   Atom    6 Element O  Has Mass   15.99491
   Atom    7 Element O  Has Mass   15.99491
   Atom    8 Element O  Has Mass   15.99491
   Atom    9 Element C  Has Mass   12.00000
   Atom   10 Element C  Has Mass   12.00000
   Atom   11 Element C  Has Mass   12.00000
   Atom   12 Element C  Has Mass   12.00000
   Atom   13 Element C  Has Mass   12.00000
   Atom   14 Element C  Has Mass   12.00000
   Atom   15 Element O  Has Mass   15.99491
   Atom   16 Element H  Has Mass    1.00783
   Atom   17 Element H  Has Mass    1.00783
   Atom   18 Element H  Has Mass    1.00783
   Atom   19 Element H  Has Mass    1.00783
   Atom   20 Element H  Has Mass    1.00783
   Atom   21 Element H  Has Mass    1.00783
   Atom   22 Element H  Has Mass    1.00783
   Atom   23 Element H  Has Mass    1.00783
   Atom   24 Element H  Has Mass    1.00783
   Atom   25 Element H  Has Mass    1.00783
   Atom   26 Element H  Has Mass    1.00783
   Atom   27 Element H  Has Mass    1.00783
   Atom   28 Element C  Has Mass   12.00000
   Atom   29 Element H  Has Mass    1.00783
   Atom   30 Element H  Has Mass    1.00783
   Atom   31 Element H  Has Mass    1.00783
   Atom   32 Element C  Has Mass   12.00000
   Atom   33 Element H  Has Mass    1.00783
   Atom   34 Element H  Has Mass    1.00783
   Atom   35 Element H  Has Mass    1.00783
   Molecular Mass:   242.115490 amu
   Principal axes and moments of inertia in amu*Bohr^2:
                             1           2           3
    Eigenvalues --     2977.16307  3617.36908  5613.91588
          X               0.99992    -0.01153     0.00565
          Y               0.01156     0.99992    -0.00479
          Z              -0.00559     0.00486     0.99997
   Rotational Symmetry Number is   1
   The Molecule is an Asymmetric Top
   Translational Enthalpy:        0.889 kcal/mol
   Rotational Enthalpy:           0.889 kcal/mol
   Vibrational Enthalpy:        192.705 kcal/mol
   gas constant (RT):             0.592 kcal/mol
   Translational Entropy:        42.354  cal/mol.K
   Rotational Entropy:           32.469  cal/mol.K
   Vibrational Entropy:          58.057  cal/mol.K

   Total Enthalpy:              195.075 kcal/mol
   Total Entropy:               132.879  cal/mol.K

 Total job time:  14055.53s(wall), 84629.04s(cpu)
        *  Thank you very much for using Q-Chem.  Have a nice day.  *
