 Q-Chem 5.0, Q-Chem, Inc., Pleasanton, CA (2017)
 Q-Chem 5.0.0 for Intel X86 EM64T Linux

User input:
--------------------------------------------------------------
$molecule
0  1
C    0.656  -1.997   0.550
C   -0.379  -2.055   1.685
C    1.075  -0.633   0.035
C   -0.743  -0.756   2.367
O    2.254  -0.766  -0.643
O    0.466   0.414   0.178
O    0.380  -0.211   2.923
O   -1.879  -0.339   2.537
C    0.159   1.039   3.578
C    2.798   0.433  -1.203
C   -0.074  -2.721  -0.584
C   -0.239  -4.209  -0.268
C   -1.341  -4.194   0.796
C   -1.585  -2.694   0.978
O   -1.425  -2.250  -0.391
H    1.566  -2.528   0.855
H   -0.041  -2.721   2.491
H   -0.505   1.690   2.999
H    2.061   1.233  -1.326
H    0.286  -2.514  -1.595
H   -0.592  -4.755  -1.150
H    0.687  -4.677   0.078
H   -2.237  -4.682   0.398
H   -1.053  -4.703   1.720
H   -2.574  -2.451   1.372
H   -0.249   0.863   4.578
H    1.124   1.543   3.677
H    3.204   0.190  -2.189
H    3.617   0.777  -0.565
$end

$opt
CONSTRAINT
tors    2    1    3    5    157.3
tors    1    2    4    7    -66.6
ENDCONSTRAINT
$end

$rem
JOBTYPE                   OPT
METHOD                    B3LYP
DFT_D                     D3_OP
BASIS                     STO-3G
GEOM_OPT_MAX_CYCLES       500
SYMMETRY                  False
THRESH                    12
SCF_CONVERGENCE           8
MAX_SUB_FILE_NUM          128
MEM_STATIC                400
MEM_TOTAL                 4000
$end

--------------------------------------------------------------

   14    -755.6953363584      6.30E-09 Convergence criterion met
 Total energy in the final basis set = -755.6953363584
   13    -755.7246088443      3.92E-09 Convergence criterion met
 Total energy in the final basis set = -755.7246088443
   13    -755.7317175655      5.82E-09 Convergence criterion met
 Total energy in the final basis set = -755.7317175655
   12    -755.7325794123      6.06E-09 Convergence criterion met
 Total energy in the final basis set = -755.7325794123
   12    -755.7328254708      2.18E-09 Convergence criterion met
 Total energy in the final basis set = -755.7328254708
   11    -755.7329014767      6.52E-09 Convergence criterion met
 Total energy in the final basis set = -755.7329014767
   11    -755.7329484199      4.93E-09 Convergence criterion met
 Total energy in the final basis set = -755.7329484199
   11    -755.7330137761      5.68E-09 Convergence criterion met
 **  OPTIMIZATION CONVERGED  **
 Total job time:  64.36s(wall), 1502.96s(cpu)
        *  Thank you very much for using Q-Chem.  Have a nice day.  *

User input: 2 of 3

nid03653 10.128.14
Q-Chem Developer Version! Running on 10.128.14.*
                  Welcome to Q-Chem
     A Quantum Leap Into The Future Of Chemistry

 Q-Chem 5.0, Q-Chem, Inc., Pleasanton, CA (2017)

 Yihan Shao,  Zhengting Gan,  E. Epifanovsky,  A. T. B. Gilbert,  M. Wormit,
 J. Kussmann,  A. W. Lange,  A. Behn,  Jia Deng,  Xintian Feng,  D. Ghosh,
 M. Goldey,  P. R. Horn,  L. D. Jacobson,  I. Kaliman,  T. Kus,  A. Landau,
 Jie Liu,  E. I. Proynov,  R. M. Richard,  R. P. Steele,  E. J. Sundstrom,
 H. L. Woodcock III,  P. M. Zimmerman,  D. Zuev,  B. Albrecht,  E. Alguire,
 S. A. Baeppler,  Z. Benda,  Y. A. Bernard,  E. J. Berquist,  K. B. Bravaya,
 D. Casanova,  Chun-Min Chang,  Yunqing Chen,  A. Chien,  K. D. Closser,
 M. P. Coons,  S. Dasgupta,  M. Diedenhofen,  Hainam Do,  R. G. Edgar,
 Po-Tung Fang,  S. Fatehi,  Qingguo Feng,  Qinghui Ge,  A. Ghysels,
 J. Gomes,  J. Gonthier,  A. Gunina,  M. W. D. Hanson-Heine,
 P. H. P. Harbach,  A. W. Hauser,  J. E. Herr,  E. G. Hohenstein,
 Z. C. Holden,  Kerwin Hui,  T.-C. Jagau,  Hyunjun Ji,  B. Kaduk,
 K. Khistyaev,  Jaehoon Kim,  P. Klunzinger,  K. Koh,  D. Kosenkov,
 T. Kowalczyk,  C. M. Krauter,  A. Kunitsa,  Ka Un Lao,  A. Laurent,
 K. V. Lawler,  Joonho Lee,  D. Lefrancois,  S. Lehtola,  D. S. Levine,
 Yi-Pei Li,  You-Sheng Lin,  Fenglai Liu,  E. Livshits,  A. Luenser,
 P. Manohar,  E. Mansoor,  S. F. Manzer,  Shan-Ping Mao,  Yuezhi Mao,
 N. Mardirossian,  A. V. Marenich,  L. A. Martinez-Martinez,  S. A. Maurer,
 N. J. Mayhall,  S. C. McKenzie,  J.-M. Mewes,  A. F. Morrison,  K. Nanda,
 T. S. Nguyen-Beck,  R. Olivares-Amaya,  J. A. Parkhill,  T. M. Perrine,
 F. Plasser,  S. Prager,  A. Prociuk,  D. R. Rehn,  F. Rob,  M. Schneider,
 N. Sergueev,  S. M. Sharada,  S. Sharma,  D. W. Small,  T. Stauch,
 T. Stein,  Yu-Chuan Su,  A. J. W. Thom,  T. Tsuchimochi,  L. Vogt,
 O. Vydrov,  M. A. Watson,  J. Wenzel,  M. de Wergifosse,  T. A. Wesolowski,
 A. White,  J. Witte,  A. Yamada,  Jun Yang,  K. Yao,  S. Yeganeh,
 S. R. Yost,  Zhi-Qiang You,  A. Zech,  Igor Ying Zhang,  Xing Zhang,
 Yan Zhao,  Ying Zhu,  B. R. Brooks,  G. K. L. Chan,  C. J. Cramer,
 M. S. Gordon,  W. J. Hehre,  A. Klamt,  M. W. Schmidt,  C. D. Sherrill,
 D. G. Truhlar,  A. Aspuru-Guzik,  R. Baer,  A. T. Bell,  N. A. Besley,
 Jeng-Da Chai,  A. Dreuw,  B. D. Dunietz,  T. R. Furlani,  Chao-Ping Hsu,
 Yousung Jung,  Jing Kong,  D. S. Lambrecht,  WanZhen Liang,  C. Ochsenfeld,
 V. A. Rassolov,  L. V. Slipchenko,  J. E. Subotnik,  T. Van Voorhis,
 J. M. Herbert,  A. I. Krylov,  P. M. W. Gill,  M. Head-Gordon

 Contributors to earlier versions of Q-Chem not listed above:
 R. D. Adamson,  B. Austin,  J. Baker,  G. J. O. Beran,  K. Brandhorst,
 S. T. Brown,  E. F. C. Byrd,  A. K. Chakraborty,  C.-L. Cheng,
 Siu Hung Chien,  D. M. Chipman,  D. L. Crittenden,  H. Dachsel,
 R. A. DiStasio Jr.,  R. J. Doerksen,  A. D. Dutoi,  L. Fusti-Molnar,
 W. A. Goddard III,  A. Golubeva-Zadorozhnaya,  S. R. Gwaltney,  G. Hawkins,
 A. Heyden,  S. Hirata,  G. Kedziora,  F. J. Keil,  C. Kelley,  Jihan Kim,
 R. A. King,  R. Z. Khaliullin,  P. P. Korambath,  W. Kurlancheek,
 A. M. Lee,  M. S. Lee,  S. V. Levchenko,  Ching Yeh Lin,  D. Liotard,
 R. C. Lochan,  I. Lotan,  P. E. Maslen,  N. Nair,  D. P. O'Neill,
 D. Neuhauser,  E. Neuscamman,  C. M. Oana,  R. Olson,  B. Peters,
 R. Peverati,  P. A. Pieniazek,  Y. M. Rhee,  J. Ritchie,  M. A. Rohrdanz,
 E. Rosta,  N. J. Russ,  H. F. Schaefer III,  N. E. Schultz,  N. Shenvi,
 A. C. Simmonett,  A. Sodt,  D. Stuck,  K. S. Thanthiriwatte,  V. Vanovschi,
 Tao Wang,  A. Warshel,  C. F. Williams,  Q. Wu,  X. Xu,  W. Zhang

 Please cite Q-Chem as follows:
 Y. Shao et al., Mol. Phys. 113, 184-215 (2015)
 DOI: 10.1080/00268976.2014.952696

 Q-Chem 5.0.0 for Intel X86 EM64T Linux

 Parts of Q-Chem use Armadillo 5.200.1 (Boston Tea Smuggler).
 http://arma.sourceforge.net/

 Q-Chem begins on Wed Oct  4 17:30:59 2017

Host: nid03653
0

     Scratch files written to /global/cscratch1/sd/junteng/scratch/13/opt_1001--.save//
The previous job contains 0 fragments, simply inherited here

Checking the input file for inconsistencies... 	...done.

--------------------------------------------------------------
User input:
--------------------------------------------------------------

$molecule
   read
$end

$rem
JOBTYPE                   OPT
METHOD                    B3LYP
DFT_D                     D3_OP
BASIS                     6-311++G(d,p)
GEOM_OPT_MAX_CYCLES       500
GEOM_OPT_TOL_GRADIENT     1
GEOM_OPT_TOL_DISPLACEMENT 1
GEOM_OPT_TOL_ENERGY       1
SYMMETRY                  False
THRESH                    12
SCF_CONVERGENCE           8
MAX_SUB_FILE_NUM          128
MEM_STATIC                400
MEM_TOTAL                 4000
$end

--------------------------------------------------------------

    8    -765.8625763193      4.36E-09 Convergence criterion met
 Total energy in the final basis set = -765.8625763193
    8    -765.8625762510      7.19E-09 Convergence criterion met
 Total energy in the final basis set = -765.8625762510
    8    -765.8625761200      5.70E-09 Convergence criterion met
 Total energy in the final basis set = -765.8625761200
    7    -765.8625760617      7.07E-09 Convergence criterion met
 Total energy in the final basis set = -765.8625760617
    5    -765.8625760566      8.57E-09 Convergence criterion met
 Total energy in the final basis set = -765.8625760566
    5    -765.8625760513      9.31E-09 Convergence criterion met
 Total energy in the final basis set = -765.8625760513
 Final energy is   -765.862576051299
        *  Thank you very much for using Q-Chem.  Have a nice day.  *
 Q-Chem 5.0, Q-Chem, Inc., Pleasanton, CA (2017)
 Q-Chem 5.0.0 for Intel X86 EM64T Linux

             Standard Nuclear Orientation (Angstroms)
    I     Atom           X                Y                Z
 ----------------------------------------------------------------
    1      C       0.3771174929    -0.6460459849    -0.5993840464
    2      C       0.6161898647     0.8945421506    -0.4821116393
    3      C      -0.8733175292    -1.1758229200     0.0687137565
    4      C      -0.5545015045     1.7279890866     0.0093707100
    5      O      -1.1949290637    -2.3819853497    -0.4549555937
    6      O      -1.4833957406    -0.6613445305     0.9707914231
    7      O      -1.6023195450     1.5870367731    -0.8317614330
    8      O      -0.5427120560     2.4734159659     0.9537860005
    9      C      -2.8222060184     2.2381979556    -0.4334850186
   10      C      -2.3216209699    -3.0494992872     0.1442781815
   11      C       1.6268796675    -1.1709293567     0.1794757491
   12      C       2.9062105495    -0.9056690595    -0.6485174473
   13      C       3.1136020967     0.6206673302    -0.4002818223
   14      C       1.8621062910     0.9499876035     0.4382326089
   15      O       1.7240965299    -0.2306700169     1.2497378015
   16      H       0.3808592160    -0.9883778256    -1.6332985511
   17      H       0.8497180538     1.2860917559    -1.4762783074
   18      H      -3.1612481346     1.8338796489     0.5215030855
   19      H      -3.2267151039    -2.4528791969     0.0202684686
   20      H       1.5215476620    -2.1793197258     0.5743046154
   21      H       3.7384696309    -1.4920869587    -0.2571996018
   22      H       2.7790963751    -1.1595237165    -1.7028563466
   23      H       4.0168064068     0.8086257030     0.1818563572
   24      H       3.1721819616     1.2037054634    -1.3215181911
   25      H       1.9105279170     1.8288919819     1.0739186323
   26      H      -2.6721090986     3.3148580741    -0.3420367681
   27      H      -3.5399298439     2.0170890795    -1.2207627792
   28      H      -2.1454201652    -3.2171435033     1.2078123829
   29      H      -2.4124655158    -3.9959386248    -0.3842447763
 ----------------------------------------------------------------

   15    -765.8625230496      3.39E-09 Convergence criterion met
 Total energy in the final basis set = -765.8625230496

                    Orbital Energies (a.u.)
 --------------------------------------------------------------

 Alpha MOs
 -- Occupied --
-19.177 -19.167 -19.131 -19.120 -19.111 -10.309 -10.302 -10.240
-10.232 -10.229 -10.222 -10.207 -10.203 -10.183 -10.180  -1.118
 -1.108  -1.064  -1.031  -1.023  -0.832  -0.785  -0.777  -0.738
 -0.725  -0.654  -0.605  -0.597  -0.577  -0.559  -0.546  -0.520
 -0.504  -0.492  -0.487  -0.485  -0.478  -0.471  -0.459  -0.431
 -0.421  -0.420  -0.412  -0.397  -0.386  -0.374  -0.368  -0.366
 -0.360  -0.358  -0.339  -0.333  -0.320  -0.307  -0.291  -0.281
 -0.273

          Ground-State Mulliken Net Atomic Charges

     Atom                 Charge (a.u.)
  ----------------------------------------
      1 C                     0.033000
      2 C                     0.099712
      3 C                    -0.648227
      4 C                    -0.401533
      5 O                    -0.028417
      6 O                    -0.202773
      7 O                    -0.045096
      8 O                    -0.220394
      9 C                    -0.191769
     10 C                    -0.236962
     11 C                     0.353244
     12 C                    -0.466041
     13 C                    -0.468507
     14 C                    -0.142564
     15 O                    -0.141104
     16 H                     0.284189
     17 H                     0.234998
     18 H                     0.190297
     19 H                     0.172366
     20 H                     0.267429
     21 H                     0.179939
     22 H                     0.123899
     23 H                     0.192310
     24 H                     0.125245
     25 H                     0.286492
     26 H                     0.165795
     27 H                     0.148983
     28 H                     0.184310
     29 H                     0.151180
  ----------------------------------------
  Sum of atomic charges =     0.000000

                    Cartesian Multipole Moments
 -----------------------------------------------------------------
    Charge (ESU x 10^10)
                 0.0000
    Dipole Moment (Debye)
         X       0.0128      Y      -2.1138      Z      -3.7294
       Tot       4.2868
    Quadrupole Moments (Debye-Ang)
        XX     -76.7925     XY       2.3024     YY     -83.5606
        XZ      -0.8505     YZ      -5.1609     ZZ     -95.2201

 Frequency:        23.99                  61.05                  83.93
 Force Cnst:      0.0016                 0.0077                 0.0148
 Red. Mass:       4.5745                 3.4966                 3.5604
 IR Intens:        0.508                  0.698                  3.834
 Frequency:        86.72                 101.77                 132.48
 Force Cnst:      0.0145                 0.0081                 0.0187
 Red. Mass:       3.2671                 1.3248                 1.8097
 IR Intens:        0.144                  1.337                  0.300
 Frequency:       138.15                 143.95                 196.71
 Force Cnst:      0.0196                 0.0421                 0.0973
 Red. Mass:       1.7470                 3.4453                 4.2663
 IR Intens:        0.852                  2.280                  0.286
 Frequency:       216.81                 242.79                 275.63
 Force Cnst:      0.1444                 0.1166                 0.2231
 Red. Mass:       5.2137                 3.3579                 4.9841
 IR Intens:        2.382                  3.291                  8.198
 Frequency:       293.68                 328.75                 335.14
 Force Cnst:      0.1583                 0.2289                 0.2811
 Red. Mass:       3.1144                 3.5946                 4.2478
 IR Intens:        5.540                  5.667                 11.158
 Frequency:       372.63                 469.64                 563.47
 Force Cnst:      0.4723                 0.6364                 0.8179
 Red. Mass:       5.7726                 4.8970                 4.3724
 IR Intens:        9.956                  9.616                 22.046
 Frequency:       627.55                 657.86                 684.71
 Force Cnst:      1.4672                 1.1683                 1.5485
 Red. Mass:       6.3233                 4.5817                 5.6058
 IR Intens:       14.053                  1.355                  4.109
 Frequency:       741.64                 796.65                 816.11
 Force Cnst:      1.7885                 1.5823                 0.9128
 Red. Mass:       5.5189                 4.2315                 2.3262
 IR Intens:        7.631                  7.015                  5.780
 Frequency:       828.13                 835.93                 860.73
 Force Cnst:      1.3754                 1.8714                 1.6148
 Red. Mass:       3.4040                 4.5455                 3.6994
 IR Intens:       20.034                  3.457                  2.066
 Frequency:       897.69                 909.14                 915.40
 Force Cnst:      1.2638                 1.3545                 1.5202
 Red. Mass:       2.6618                 2.7815                 3.0792
 IR Intens:        3.534                 11.394                  4.237
 Frequency:       934.63                 957.77                 974.93
 Force Cnst:      1.6907                 3.0935                 1.3226
 Red. Mass:       3.2851                 5.7238                 2.3617
 IR Intens:       26.160                 33.770                 16.520
 Frequency:       984.37                1014.86                1025.96
 Force Cnst:      2.5242                 2.0161                 2.2926
 Red. Mass:       4.4213                 3.3224                 3.6967
 IR Intens:        3.622                 30.660                 18.075
 Frequency:      1068.15                1072.71                1073.61
 Force Cnst:      2.2974                 1.3462                 1.6958
 Red. Mass:       3.4177                 1.9856                 2.4970
 IR Intens:       34.627                 19.512                 16.407
 Frequency:      1162.79                1171.88                1172.77
 Force Cnst:      1.0132                 1.0870                 1.0674
 Red. Mass:       1.2718                 1.3435                 1.3172
 IR Intens:       56.751                 21.465                 17.521
 Frequency:      1177.20                1200.14                1207.93
 Force Cnst:      1.7602                 1.2892                 1.4739
 Red. Mass:       2.1558                 1.5191                 1.7145
 IR Intens:      217.582                  4.243                 92.057
 Frequency:      1211.54                1215.90                1229.91
 Force Cnst:      1.3817                 1.7581                 1.0907
 Red. Mass:       1.5976                 2.0183                 1.2238
 IR Intens:       59.146                265.211                 21.142
 Frequency:      1242.03                1248.17                1281.91
 Force Cnst:      1.3853                 1.4274                 1.2194
 Red. Mass:       1.5241                 1.5551                 1.2594
 IR Intens:       25.735                 25.856                  4.330
 Frequency:      1287.02                1313.77                1320.00
 Force Cnst:      1.5173                 1.4318                 1.4930
 Red. Mass:       1.5547                 1.4079                 1.4543
 IR Intens:       16.641                  1.814                 35.983
 Frequency:      1353.11                1372.64                1389.93
 Force Cnst:      1.6786                 1.8024                 1.9450
 Red. Mass:       1.5561                 1.6236                 1.7087
 IR Intens:       23.107                 79.256                 37.255
 Frequency:      1470.05                1470.69                1482.49
 Force Cnst:      1.5206                 1.5315                 1.3523
 Red. Mass:       1.1943                 1.2018                 1.0444
 IR Intens:       19.361                 10.265                  8.285
 Frequency:      1484.17                1489.13                1497.76
 Force Cnst:      1.3541                 1.4134                 1.3853
 Red. Mass:       1.0434                 1.0818                 1.0481
 IR Intens:       10.773                  2.274                 12.841
 Frequency:      1498.77                1510.69                1796.52
 Force Cnst:      1.3836                 1.4801                21.9390
 Red. Mass:       1.0455                 1.1007                11.5372
 IR Intens:        6.024                  6.051                 67.233
 Frequency:      1805.30                3049.46                3049.76
 Force Cnst:     22.0122                 5.6399                 5.6420
 Red. Mass:      11.4634                 1.0294                 1.0296
 IR Intens:      395.974                 24.160                 46.724
 Frequency:      3056.96                3061.26                3067.76
 Force Cnst:      5.8651                 5.9357                 5.8917
 Red. Mass:       1.0652                 1.0750                 1.0625
 IR Intens:       14.377                 16.001                 35.977
 Frequency:      3096.88                3110.42                3117.26
 Force Cnst:      6.2544                 6.2249                 6.3016
 Red. Mass:       1.1068                 1.0921                 1.1007
 IR Intens:        0.939                  7.557                 36.598
 Frequency:      3122.74                3124.57                3131.94
 Force Cnst:      6.3605                 6.3698                 6.2988
 Red. Mass:       1.1071                 1.1074                 1.0899
 IR Intens:       18.689                 15.447                 21.772
 Frequency:      3153.05                3155.98                3162.15
 Force Cnst:      6.4809                 6.4915                 6.4252
 Red. Mass:       1.1064                 1.1062                 1.0906
 IR Intens:       14.117                 14.345                  5.640

 STANDARD THERMODYNAMIC QUANTITIES AT   298.15 K  AND     1.00 ATM

   This Molecule has  0 Imaginary Frequencies
   Zero point vibrational energy:      149.062 kcal/mol

   Atom    1 Element C  Has Mass   12.00000
   Atom    2 Element C  Has Mass   12.00000
   Atom    3 Element C  Has Mass   12.00000
   Atom    4 Element C  Has Mass   12.00000
   Atom    5 Element O  Has Mass   15.99491
   Atom    6 Element O  Has Mass   15.99491
   Atom    7 Element O  Has Mass   15.99491
   Atom    8 Element O  Has Mass   15.99491
   Atom    9 Element C  Has Mass   12.00000
   Atom   10 Element C  Has Mass   12.00000
   Atom   11 Element C  Has Mass   12.00000
   Atom   12 Element C  Has Mass   12.00000
   Atom   13 Element C  Has Mass   12.00000
   Atom   14 Element C  Has Mass   12.00000
   Atom   15 Element O  Has Mass   15.99491
   Atom   16 Element H  Has Mass    1.00783
   Atom   17 Element H  Has Mass    1.00783
   Atom   18 Element H  Has Mass    1.00783
   Atom   19 Element H  Has Mass    1.00783
   Atom   20 Element H  Has Mass    1.00783
   Atom   21 Element H  Has Mass    1.00783
   Atom   22 Element H  Has Mass    1.00783
   Atom   23 Element H  Has Mass    1.00783
   Atom   24 Element H  Has Mass    1.00783
   Atom   25 Element H  Has Mass    1.00783
   Atom   26 Element H  Has Mass    1.00783
   Atom   27 Element H  Has Mass    1.00783
   Atom   28 Element H  Has Mass    1.00783
   Atom   29 Element H  Has Mass    1.00783
   Molecular Mass:   214.084170 amu
   Principal axes and moments of inertia in amu*Bohr^2:
                             1           2           3
    Eigenvalues --     2455.66143  2966.46276  4687.98905
          X               0.99988     0.01217    -0.00997
          Y              -0.01225     0.99990    -0.00749
          Z               0.00987     0.00761     0.99992
   Rotational Symmetry Number is   1
   The Molecule is an Asymmetric Top
   Translational Enthalpy:        0.889 kcal/mol
   Rotational Enthalpy:           0.889 kcal/mol
   Vibrational Enthalpy:        156.330 kcal/mol
   gas constant (RT):             0.592 kcal/mol
   Translational Entropy:        41.987  cal/mol.K
   Rotational Entropy:           31.902  cal/mol.K
   Vibrational Entropy:          48.140  cal/mol.K

   Total Enthalpy:              158.700 kcal/mol
   Total Entropy:               122.029  cal/mol.K

 Total job time:  7304.13s(wall), 40158.07s(cpu)
        *  Thank you very much for using Q-Chem.  Have a nice day.  *
