 Q-Chem 5.0, Q-Chem, Inc., Pleasanton, CA (2017)
 Q-Chem 5.0.0 for Intel X86 EM64T Linux

User input:
--------------------------------------------------------------
$molecule
0  1
C    0.304  -2.425   0.241
C   -0.187  -2.670   1.539
C    0.664  -1.037  -0.131
C   -0.223  -1.586   2.547
O    1.892  -1.027  -0.706
O   -0.050  -0.071   0.073
O    1.036  -1.102   2.698
O   -1.208  -1.281   3.197
C    1.131  -0.051   3.659
C    2.346   0.277  -1.069
C    0.337  -3.468  -0.713
C   -0.078  -4.750  -0.324
C   -0.556  -4.992   0.965
C   -0.619  -3.961   1.912
H    0.496   0.792   3.371
H    1.683   0.717  -1.820
H   -0.885  -5.997   1.223
H    0.862  -0.417   4.655
H    2.169   0.291   3.685
H    3.345   0.180  -1.503
H    2.413   0.921  -0.186
H   -0.050  -5.576  -1.034
C   -1.153  -4.262   3.286
C    0.800  -3.263  -2.130
H    0.377  -2.346  -2.553
H    0.472  -4.085  -2.776
H    1.893  -3.221  -2.170
H   -2.134  -3.796   3.422
H   -0.464  -3.904   4.057
H   -1.273  -5.340   3.441
$end

$opt
CONSTRAINT
tors    2    1    3    5    135.2
tors    1    2    4    7    -52.3
ENDCONSTRAINT
$end

$rem
JOBTYPE                   OPT
METHOD                    B3LYP
DFT_D                     D3_OP
BASIS                     STO-3G
GEOM_OPT_MAX_CYCLES       500
SYMMETRY                  False
THRESH                    12
SCF_CONVERGENCE           8
MAX_SUB_FILE_NUM          128
MEM_STATIC                400
MEM_TOTAL                 4000
$end

--------------------------------------------------------------

   15    -756.7774928998      6.43E-09 Convergence criterion met
 Total energy in the final basis set = -756.7774928998
   14    -756.8051564788      5.86E-09 Convergence criterion met
 Total energy in the final basis set = -756.8051564788
   14    -756.8078849791      3.11E-09 Convergence criterion met
 Total energy in the final basis set = -756.8078849791
   12    -756.8081877699      7.88E-09 Convergence criterion met
 Total energy in the final basis set = -756.8081877699
   11    -756.8082203885      4.40E-09 Convergence criterion met
 Total energy in the final basis set = -756.8082203885
   11    -756.8082359252      7.14E-09 Convergence criterion met
 Total energy in the final basis set = -756.8082359252
   10    -756.8082486844      9.96E-09 Convergence criterion met
 Total energy in the final basis set = -756.8082486844
   11    -756.8082811600      3.66E-09 Convergence criterion met
 **  OPTIMIZATION CONVERGED  **
 Total job time:  178.11s(wall), 3367.08s(cpu)
        *  Thank you very much for using Q-Chem.  Have a nice day.  *

User input: 2 of 3

nid03059 10.128.12
Q-Chem Developer Version! Running on 10.128.12.*
                  Welcome to Q-Chem
     A Quantum Leap Into The Future Of Chemistry

 Q-Chem 5.0, Q-Chem, Inc., Pleasanton, CA (2017)

 Yihan Shao,  Zhengting Gan,  E. Epifanovsky,  A. T. B. Gilbert,  M. Wormit,
 J. Kussmann,  A. W. Lange,  A. Behn,  Jia Deng,  Xintian Feng,  D. Ghosh,
 M. Goldey,  P. R. Horn,  L. D. Jacobson,  I. Kaliman,  T. Kus,  A. Landau,
 Jie Liu,  E. I. Proynov,  R. M. Richard,  R. P. Steele,  E. J. Sundstrom,
 H. L. Woodcock III,  P. M. Zimmerman,  D. Zuev,  B. Albrecht,  E. Alguire,
 S. A. Baeppler,  Z. Benda,  Y. A. Bernard,  E. J. Berquist,  K. B. Bravaya,
 D. Casanova,  Chun-Min Chang,  Yunqing Chen,  A. Chien,  K. D. Closser,
 M. P. Coons,  S. Dasgupta,  M. Diedenhofen,  Hainam Do,  R. G. Edgar,
 Po-Tung Fang,  S. Fatehi,  Qingguo Feng,  Qinghui Ge,  A. Ghysels,
 J. Gomes,  J. Gonthier,  A. Gunina,  M. W. D. Hanson-Heine,
 P. H. P. Harbach,  A. W. Hauser,  J. E. Herr,  E. G. Hohenstein,
 Z. C. Holden,  Kerwin Hui,  T.-C. Jagau,  Hyunjun Ji,  B. Kaduk,
 K. Khistyaev,  Jaehoon Kim,  P. Klunzinger,  K. Koh,  D. Kosenkov,
 T. Kowalczyk,  C. M. Krauter,  A. Kunitsa,  Ka Un Lao,  A. Laurent,
 K. V. Lawler,  Joonho Lee,  D. Lefrancois,  S. Lehtola,  D. S. Levine,
 Yi-Pei Li,  You-Sheng Lin,  Fenglai Liu,  E. Livshits,  A. Luenser,
 P. Manohar,  E. Mansoor,  S. F. Manzer,  Shan-Ping Mao,  Yuezhi Mao,
 N. Mardirossian,  A. V. Marenich,  L. A. Martinez-Martinez,  S. A. Maurer,
 N. J. Mayhall,  S. C. McKenzie,  J.-M. Mewes,  A. F. Morrison,  K. Nanda,
 T. S. Nguyen-Beck,  R. Olivares-Amaya,  J. A. Parkhill,  T. M. Perrine,
 F. Plasser,  S. Prager,  A. Prociuk,  D. R. Rehn,  F. Rob,  M. Schneider,
 N. Sergueev,  S. M. Sharada,  S. Sharma,  D. W. Small,  T. Stauch,
 T. Stein,  Yu-Chuan Su,  A. J. W. Thom,  T. Tsuchimochi,  L. Vogt,
 O. Vydrov,  M. A. Watson,  J. Wenzel,  M. de Wergifosse,  T. A. Wesolowski,
 A. White,  J. Witte,  A. Yamada,  Jun Yang,  K. Yao,  S. Yeganeh,
 S. R. Yost,  Zhi-Qiang You,  A. Zech,  Igor Ying Zhang,  Xing Zhang,
 Yan Zhao,  Ying Zhu,  B. R. Brooks,  G. K. L. Chan,  C. J. Cramer,
 M. S. Gordon,  W. J. Hehre,  A. Klamt,  M. W. Schmidt,  C. D. Sherrill,
 D. G. Truhlar,  A. Aspuru-Guzik,  R. Baer,  A. T. Bell,  N. A. Besley,
 Jeng-Da Chai,  A. Dreuw,  B. D. Dunietz,  T. R. Furlani,  Chao-Ping Hsu,
 Yousung Jung,  Jing Kong,  D. S. Lambrecht,  WanZhen Liang,  C. Ochsenfeld,
 V. A. Rassolov,  L. V. Slipchenko,  J. E. Subotnik,  T. Van Voorhis,
 J. M. Herbert,  A. I. Krylov,  P. M. W. Gill,  M. Head-Gordon

 Contributors to earlier versions of Q-Chem not listed above:
 R. D. Adamson,  B. Austin,  J. Baker,  G. J. O. Beran,  K. Brandhorst,
 S. T. Brown,  E. F. C. Byrd,  A. K. Chakraborty,  C.-L. Cheng,
 Siu Hung Chien,  D. M. Chipman,  D. L. Crittenden,  H. Dachsel,
 R. A. DiStasio Jr.,  R. J. Doerksen,  A. D. Dutoi,  L. Fusti-Molnar,
 W. A. Goddard III,  A. Golubeva-Zadorozhnaya,  S. R. Gwaltney,  G. Hawkins,
 A. Heyden,  S. Hirata,  G. Kedziora,  F. J. Keil,  C. Kelley,  Jihan Kim,
 R. A. King,  R. Z. Khaliullin,  P. P. Korambath,  W. Kurlancheek,
 A. M. Lee,  M. S. Lee,  S. V. Levchenko,  Ching Yeh Lin,  D. Liotard,
 R. C. Lochan,  I. Lotan,  P. E. Maslen,  N. Nair,  D. P. O'Neill,
 D. Neuhauser,  E. Neuscamman,  C. M. Oana,  R. Olson,  B. Peters,
 R. Peverati,  P. A. Pieniazek,  Y. M. Rhee,  J. Ritchie,  M. A. Rohrdanz,
 E. Rosta,  N. J. Russ,  H. F. Schaefer III,  N. E. Schultz,  N. Shenvi,
 A. C. Simmonett,  A. Sodt,  D. Stuck,  K. S. Thanthiriwatte,  V. Vanovschi,
 Tao Wang,  A. Warshel,  C. F. Williams,  Q. Wu,  X. Xu,  W. Zhang

 Please cite Q-Chem as follows:
 Y. Shao et al., Mol. Phys. 113, 184-215 (2015)
 DOI: 10.1080/00268976.2014.952696

 Q-Chem 5.0.0 for Intel X86 EM64T Linux

 Parts of Q-Chem use Armadillo 5.200.1 (Boston Tea Smuggler).
 http://arma.sourceforge.net/

 Q-Chem begins on Wed Oct  4 18:29:26 2017

Host: nid03059
0

     Scratch files written to /global/cscratch1/sd/junteng/scratch/18/opt_11n11o+.save//
The previous job contains 0 fragments, simply inherited here

Checking the input file for inconsistencies... 	...done.

--------------------------------------------------------------
User input:
--------------------------------------------------------------

$molecule
   read
$end

$rem
JOBTYPE                   OPT
METHOD                    B3LYP
DFT_D                     D3_OP
BASIS                     6-311++G(d,p)
GEOM_OPT_MAX_CYCLES       500
GEOM_OPT_TOL_GRADIENT     1
GEOM_OPT_TOL_DISPLACEMENT 1
GEOM_OPT_TOL_ENERGY       1
SYMMETRY                  False
THRESH                    12
SCF_CONVERGENCE           8
MAX_SUB_FILE_NUM          128
MEM_STATIC                400
MEM_TOTAL                 4000
$end

--------------------------------------------------------------

    9    -766.8750469252      3.28E-09 Convergence criterion met
 Total energy in the final basis set = -766.8750469252
    8    -766.8750468114      3.45E-09 Convergence criterion met
 Total energy in the final basis set = -766.8750468114
    7    -766.8750468429      3.86E-09 Convergence criterion met
 Total energy in the final basis set = -766.8750468429
    6    -766.8750468392      7.78E-09 Convergence criterion met
 Total energy in the final basis set = -766.8750468392
    6    -766.8750468575      4.33E-09 Convergence criterion met
 Total energy in the final basis set = -766.8750468575
    5    -766.8750468542      7.89E-09 Convergence criterion met
 Total energy in the final basis set = -766.8750468542
 Final energy is   -766.875046854197
        *  Thank you very much for using Q-Chem.  Have a nice day.  *
 Q-Chem 5.0, Q-Chem, Inc., Pleasanton, CA (2017)
 Q-Chem 5.0.0 for Intel X86 EM64T Linux

             Standard Nuclear Orientation (Angstroms)
    I     Atom           X                Y                Z
 ----------------------------------------------------------------
    1      C       0.1968836095    -0.7319684537    -0.0960615723
    2      C      -0.9824639496     0.0327952554    -0.0371141838
    3      C       1.5006041275    -0.0437423458    -0.3746240868
    4      C      -0.9178769596     1.5236256374    -0.1518869181
    5      O       2.4212345554    -0.3134264683     0.5688140942
    6      O       1.7138444213     0.6483915757    -1.3412109647
    7      O       0.0394110728     2.0377535661     0.6491048310
    8      O      -1.6384438919     2.1961703433    -0.8480571884
    9      C       0.2943024561     3.4459286709     0.4984627719
   10      C       3.7171503244     0.2803861456     0.3668395208
   11      C       0.1529177665    -2.1337573197    -0.0125027302
   12      C      -1.0974393495    -2.7323143321     0.1513514309
   13      C      -2.2605824154    -1.9773228191     0.2266151405
   14      C      -2.2362182399    -0.5855862413     0.1230888326
   15      H       0.6585469486     3.6495715574    -0.5098159084
   16      H       4.1499628405    -0.0591900583    -0.5754293392
   17      H      -3.2129588718    -2.4790913751     0.3617802754
   18      H      -0.6132145665     4.0222907133     0.6816675143
   19      H       1.0562732896     3.6826107654     1.2377593668
   20      H       4.3207553687    -0.0487974779     1.2095256982
   21      H       3.6356154058     1.3681435811     0.3530026931
   22      H      -1.1606958407    -3.8136828910     0.2139684550
   23      C      -3.5305648380     0.1891252308     0.1929111697
   24      C       1.3883248445    -2.9969596317    -0.1184736378
   25      H       2.0103401293    -2.7117596538    -0.9711168380
   26      H       1.1092887047    -4.0444717679    -0.2455855263
   27      H       2.0075315180    -2.9120651200     0.7773849616
   28      H      -3.7835620517     0.6177443725    -0.7790753050
   29      H      -3.4714238067     1.0222417839     0.8972549276
   30      H      -4.3450525884    -0.4659153445     0.5078384245
 ----------------------------------------------------------------

   15    -766.8750373508      8.82E-09 Convergence criterion met
 Total energy in the final basis set = -766.8750373508

                    Orbital Energies (a.u.)
 --------------------------------------------------------------

 Alpha MOs
 -- Occupied --
-19.178 -19.173 -19.120 -19.116 -10.312 -10.308 -10.233 -10.227
-10.205 -10.203 -10.201 -10.200 -10.187 -10.185 -10.176 -10.169
 -1.121  -1.113  -1.032  -1.027  -0.885  -0.808  -0.792  -0.748
 -0.732  -0.726  -0.674  -0.648  -0.620  -0.576  -0.568  -0.531
 -0.519  -0.513  -0.489  -0.488  -0.480  -0.476  -0.469  -0.441
 -0.436  -0.428  -0.423  -0.415  -0.412  -0.406  -0.396  -0.388
 -0.380  -0.372  -0.359  -0.358  -0.357  -0.320  -0.311  -0.298
 -0.287  -0.265  -0.253

          Ground-State Mulliken Net Atomic Charges

     Atom                 Charge (a.u.)
  ----------------------------------------
      1 C                     0.465205
      2 C                     0.527438
      3 C                    -0.874747
      4 C                    -0.475579
      5 O                     0.030725
      6 O                    -0.139814
      7 O                     0.002369
      8 O                    -0.192263
      9 C                    -0.222671
     10 C                    -0.213709
     11 C                     0.608706
     12 C                    -0.559627
     13 C                    -0.652299
     14 C                     0.518769
     15 H                     0.193734
     16 H                     0.186420
     17 H                     0.126548
     18 H                     0.173374
     19 H                     0.151230
     20 H                     0.158285
     21 H                     0.157929
     22 H                     0.130563
     23 C                    -0.565864
     24 C                    -0.572544
     25 H                     0.173590
     26 H                     0.150702
     27 H                     0.193637
     28 H                     0.204381
     29 H                     0.175715
     30 H                     0.139796
  ----------------------------------------
  Sum of atomic charges =     0.000000

                    Cartesian Multipole Moments
 -----------------------------------------------------------------
    Charge (ESU x 10^10)
                 0.0000
    Dipole Moment (Debye)
         X       1.5929      Y      -1.4790      Z       2.4803
       Tot       3.2981
    Quadrupole Moments (Debye-Ang)
        XX     -82.4436     XY       5.2015     YY     -84.2813
        XZ      -0.1493     YZ       5.9820     ZZ    -102.0365

 Frequency:        25.06                  54.60                  70.18
 Force Cnst:      0.0020                 0.0072                 0.0114
 Red. Mass:       5.4112                 4.1063                 3.9427
 IR Intens:        0.441                  0.042                  2.777
 Frequency:        81.04                 114.19                 118.28
 Force Cnst:      0.0119                 0.0118                 0.0168
 Red. Mass:       3.0666                 1.5390                 2.0366
 IR Intens:        4.167                  0.192                  0.803
 Frequency:       128.16                 136.78                 140.14
 Force Cnst:      0.0230                 0.0137                 0.0185
 Red. Mass:       2.3743                 1.2392                 1.5974
 IR Intens:        4.028                  1.201                  0.256
 Frequency:       152.31                 156.16                 221.58
 Force Cnst:      0.0174                 0.0194                 0.1457
 Red. Mass:       1.2759                 1.3516                 5.0381
 IR Intens:        0.102                  0.771                  0.294
 Frequency:       242.05                 251.69                 291.28
 Force Cnst:      0.1988                 0.1696                 0.1586
 Red. Mass:       5.7580                 4.5444                 3.1734
 IR Intens:        0.901                  3.663                  1.578
 Frequency:       303.87                 316.30                 322.96
 Force Cnst:      0.2643                 0.2364                 0.2200
 Red. Mass:       4.8580                 4.0112                 3.5800
 IR Intens:        4.504                 11.848                  6.621
 Frequency:       368.28                 401.97                 424.50
 Force Cnst:      0.4545                 0.3725                 0.5271
 Red. Mass:       5.6883                 3.9134                 4.9647
 IR Intens:        5.291                  6.550                  1.210
 Frequency:       487.08                 495.82                 556.90
 Force Cnst:      0.6004                 0.5415                 0.7958
 Red. Mass:       4.2955                 3.7385                 4.3551
 IR Intens:        1.292                  9.955                  1.649
 Frequency:       616.95                 713.38                 724.87
 Force Cnst:      1.0682                 1.8525                 1.9399
 Red. Mass:       4.7634                 6.1784                 6.2663
 IR Intens:        7.085                  1.474                  0.283
 Frequency:       736.65                 799.23                 805.79
 Force Cnst:      1.9874                 2.1358                 2.3370
 Red. Mass:       6.2159                 5.6752                 6.1090
 IR Intens:       23.368                  7.561                 10.122
 Frequency:       815.23                 832.08                 889.73
 Force Cnst:      2.8223                 0.5242                 2.6401
 Red. Mass:       7.2075                 1.2849                 5.6605
 IR Intens:        9.078                 19.584                  4.907
 Frequency:       922.81                 970.50                 989.05
 Force Cnst:      2.1970                 0.7397                 1.4898
 Red. Mass:       4.3787                 1.3329                 2.5848
 IR Intens:        9.727                  0.146                  5.673
 Frequency:       998.18                1047.30                1056.19
 Force Cnst:      2.8640                 1.0037                 1.5356
 Red. Mass:       4.8788                 1.5531                 2.3364
 IR Intens:       12.088                  3.924                 59.340
 Frequency:      1060.44                1063.70                1134.62
 Force Cnst:      1.0709                 1.0122                 3.9874
 Red. Mass:       1.6163                 1.5183                 5.2571
 IR Intens:        6.201                  3.564                 91.433
 Frequency:      1169.51                1171.96                1186.13
 Force Cnst:      1.0364                 1.0429                 1.3112
 Red. Mass:       1.2861                 1.2888                 1.5818
 IR Intens:        0.417                  2.335                100.795
 Frequency:      1203.31                1211.06                1222.92
 Force Cnst:      1.5154                 1.3731                 2.8299
 Red. Mass:       1.7763                 1.5891                 3.2117
 IR Intens:       14.904                 11.199                291.368
 Frequency:      1275.04                1288.55                1293.67
 Force Cnst:      1.9122                 5.9764                 3.7510
 Red. Mass:       1.9963                 6.1093                 3.8041
 IR Intens:       24.872                177.085                194.392
 Frequency:      1316.68                1420.57                1422.49
 Force Cnst:      6.2981                 1.4754                 1.4802
 Red. Mass:       6.1659                 1.2409                 1.2416
 IR Intens:       50.172                  1.510                  4.510
 Frequency:      1433.57                1465.97                1468.89
 Force Cnst:      3.4381                 1.5330                 1.5903
 Red. Mass:       2.8394                 1.2107                 1.2510
 IR Intens:       51.389                 14.670                 43.385
 Frequency:      1481.22                1482.18                1485.17
 Force Cnst:      1.4146                 1.4023                 1.3582
 Red. Mass:       1.0943                 1.0834                 1.0451
 IR Intens:        3.310                  5.991                 15.298
 Frequency:      1487.08                1490.85                1495.98
 Force Cnst:      1.4211                 1.4360                 1.3860
 Red. Mass:       1.0907                 1.0966                 1.0511
 IR Intens:        0.210                 10.123                 17.067
 Frequency:      1496.98                1502.07                1503.83
 Force Cnst:      1.3911                 1.5843                 2.9125
 Red. Mass:       1.0536                 1.1918                 2.1858
 IR Intens:        1.997                  8.830                 18.694
 Frequency:      1609.25                1633.77                1771.26
 Force Cnst:      8.1634                11.1151                21.8457
 Red. Mass:       5.3502                 7.0678                11.8182
 IR Intens:       12.576                  2.410                145.258
 Frequency:      1780.10                3036.65                3041.14
 Force Cnst:     21.8573                 5.6305                 5.6427
 Red. Mass:      11.7073                 1.0363                 1.0355
 IR Intens:      373.412                 25.145                 22.740
 Frequency:      3050.16                3050.69                3092.79
 Force Cnst:      5.6433                 5.6440                 6.1979
 Red. Mass:       1.0295                 1.0293                 1.0997
 IR Intens:       24.006                 44.094                 12.075
 Frequency:      3099.16                3109.43                3110.93
 Force Cnst:      6.2253                 6.2791                 6.2892
 Red. Mass:       1.1001                 1.1023                 1.1030
 IR Intens:       10.868                 16.722                 14.986
 Frequency:      3122.80                3126.29                3156.78
 Force Cnst:      6.3601                 6.3756                 6.4966
 Red. Mass:       1.1069                 1.1072                 1.1065
 IR Intens:       17.698                 13.679                 13.112
 Frequency:      3158.16                3161.21                3178.22
 Force Cnst:      6.5009                 6.4005                 6.5140
 Red. Mass:       1.1063                 1.0871                 1.0945
 IR Intens:       12.626                  8.099                 20.247

 STANDARD THERMODYNAMIC QUANTITIES AT   298.15 K  AND     1.00 ATM

   This Molecule has  0 Imaginary Frequencies
   Zero point vibrational energy:      150.537 kcal/mol

   Atom    1 Element C  Has Mass   12.00000
   Atom    2 Element C  Has Mass   12.00000
   Atom    3 Element C  Has Mass   12.00000
   Atom    4 Element C  Has Mass   12.00000
   Atom    5 Element O  Has Mass   15.99491
   Atom    6 Element O  Has Mass   15.99491
   Atom    7 Element O  Has Mass   15.99491
   Atom    8 Element O  Has Mass   15.99491
   Atom    9 Element C  Has Mass   12.00000
   Atom   10 Element C  Has Mass   12.00000
   Atom   11 Element C  Has Mass   12.00000
   Atom   12 Element C  Has Mass   12.00000
   Atom   13 Element C  Has Mass   12.00000
   Atom   14 Element C  Has Mass   12.00000
   Atom   15 Element H  Has Mass    1.00783
   Atom   16 Element H  Has Mass    1.00783
   Atom   17 Element H  Has Mass    1.00783
   Atom   18 Element H  Has Mass    1.00783
   Atom   19 Element H  Has Mass    1.00783
   Atom   20 Element H  Has Mass    1.00783
   Atom   21 Element H  Has Mass    1.00783
   Atom   22 Element H  Has Mass    1.00783
   Atom   23 Element C  Has Mass   12.00000
   Atom   24 Element C  Has Mass   12.00000
   Atom   25 Element H  Has Mass    1.00783
   Atom   26 Element H  Has Mass    1.00783
   Atom   27 Element H  Has Mass    1.00783
   Atom   28 Element H  Has Mass    1.00783
   Atom   29 Element H  Has Mass    1.00783
   Atom   30 Element H  Has Mass    1.00783
   Molecular Mass:   222.089260 amu
   Principal axes and moments of inertia in amu*Bohr^2:
                             1           2           3
    Eigenvalues --     2862.21793  3195.49243  5570.89020
          X               0.99994     0.01115     0.00036
          Y              -0.01116     0.99990     0.00852
          Z              -0.00026    -0.00852     0.99996
   Rotational Symmetry Number is   1
   The Molecule is an Asymmetric Top
   Translational Enthalpy:        0.889 kcal/mol
   Rotational Enthalpy:           0.889 kcal/mol
   Vibrational Enthalpy:        159.357 kcal/mol
   gas constant (RT):             0.592 kcal/mol
   Translational Entropy:        42.096  cal/mol.K
   Rotational Entropy:           32.299  cal/mol.K
   Vibrational Entropy:          58.318  cal/mol.K

   Total Enthalpy:              161.727 kcal/mol
   Total Entropy:               132.713  cal/mol.K

 Total job time:  8254.73s(wall), 47052.77s(cpu)
        *  Thank you very much for using Q-Chem.  Have a nice day.  *
