 Q-Chem 5.0, Q-Chem, Inc., Pleasanton, CA (2017)
 Q-Chem 5.0.0 for Intel X86 EM64T Linux

User input:
--------------------------------------------------------------
$molecule
0  1
C    0.711  -1.958   0.589
C   -0.299  -1.995   1.756
C    1.089  -0.603   0.022
C   -0.528  -0.668   2.454
O    2.255  -0.726  -0.682
O    0.458   0.435   0.138
O    0.672  -0.221   2.944
O   -1.603  -0.140   2.687
C    0.580   1.027   3.634
C    2.698   0.490  -1.286
C   -0.031  -2.720  -0.508
C   -0.144  -4.202  -0.153
C   -1.210  -4.188   0.944
C   -1.515  -2.680   1.086
O   -1.391  -2.278  -0.299
H    1.639  -2.461   0.888
H    0.068  -2.659   2.552
H   -0.050   0.928   4.523
H    1.951   0.864  -1.993
H   -0.511  -4.776  -1.011
H    0.804  -4.638   0.173
H   -2.087  -4.746   0.595
H   -0.869  -4.649   1.876
H    1.587   1.311   3.953
H    0.196   1.807   2.969
H    3.619   0.278  -1.837
H    2.918   1.240  -0.519
H    0.300  -2.531  -1.532
C   -2.908  -2.427   1.624
H   -3.642  -3.061   1.114
H   -2.968  -2.632   2.696
H   -3.235  -1.402   1.426
$end

$opt
CONSTRAINT
tors    2    1    3    5    167.3
tors    1    2    4    7    -60.0
ENDCONSTRAINT
$end

$rem
JOBTYPE                   OPT
METHOD                    B3LYP
DFT_D                     D3_OP
BASIS                     STO-3G
GEOM_OPT_MAX_CYCLES       500
SYMMETRY                  False
THRESH                    12
SCF_CONVERGENCE           8
MAX_SUB_FILE_NUM          128
MEM_STATIC                400
MEM_TOTAL                 4000
$end

--------------------------------------------------------------

   14    -794.5514909720      6.56E-09 Convergence criterion met
 Total energy in the final basis set = -794.5514909720
   13    -794.5822941131      3.17E-09 Convergence criterion met
 Total energy in the final basis set = -794.5822941131
   13    -794.5889124110      3.73E-09 Convergence criterion met
 Total energy in the final basis set = -794.5889124110
   12    -794.5894561594      5.12E-09 Convergence criterion met
 Total energy in the final basis set = -794.5894561594
   11    -794.5896206340      7.17E-09 Convergence criterion met
 Total energy in the final basis set = -794.5896206340
   11    -794.5897428911      4.05E-09 Convergence criterion met
 Total energy in the final basis set = -794.5897428911
   11    -794.5898984501      3.33E-09 Convergence criterion met
 Total energy in the final basis set = -794.5898984501
   11    -794.5901168073      3.41E-09 Convergence criterion met
 **  OPTIMIZATION CONVERGED  **
 Total job time:  43.70s(wall), 1028.13s(cpu)
        *  Thank you very much for using Q-Chem.  Have a nice day.  *

User input: 2 of 3

nid05745 10.128.22
Q-Chem Developer Version! Running on 10.128.22.*
                  Welcome to Q-Chem
     A Quantum Leap Into The Future Of Chemistry

 Q-Chem 5.0, Q-Chem, Inc., Pleasanton, CA (2017)

 Yihan Shao,  Zhengting Gan,  E. Epifanovsky,  A. T. B. Gilbert,  M. Wormit,
 J. Kussmann,  A. W. Lange,  A. Behn,  Jia Deng,  Xintian Feng,  D. Ghosh,
 M. Goldey,  P. R. Horn,  L. D. Jacobson,  I. Kaliman,  T. Kus,  A. Landau,
 Jie Liu,  E. I. Proynov,  R. M. Richard,  R. P. Steele,  E. J. Sundstrom,
 H. L. Woodcock III,  P. M. Zimmerman,  D. Zuev,  B. Albrecht,  E. Alguire,
 S. A. Baeppler,  Z. Benda,  Y. A. Bernard,  E. J. Berquist,  K. B. Bravaya,
 D. Casanova,  Chun-Min Chang,  Yunqing Chen,  A. Chien,  K. D. Closser,
 M. P. Coons,  S. Dasgupta,  M. Diedenhofen,  Hainam Do,  R. G. Edgar,
 Po-Tung Fang,  S. Fatehi,  Qingguo Feng,  Qinghui Ge,  A. Ghysels,
 J. Gomes,  J. Gonthier,  A. Gunina,  M. W. D. Hanson-Heine,
 P. H. P. Harbach,  A. W. Hauser,  J. E. Herr,  E. G. Hohenstein,
 Z. C. Holden,  Kerwin Hui,  T.-C. Jagau,  Hyunjun Ji,  B. Kaduk,
 K. Khistyaev,  Jaehoon Kim,  P. Klunzinger,  K. Koh,  D. Kosenkov,
 T. Kowalczyk,  C. M. Krauter,  A. Kunitsa,  Ka Un Lao,  A. Laurent,
 K. V. Lawler,  Joonho Lee,  D. Lefrancois,  S. Lehtola,  D. S. Levine,
 Yi-Pei Li,  You-Sheng Lin,  Fenglai Liu,  E. Livshits,  A. Luenser,
 P. Manohar,  E. Mansoor,  S. F. Manzer,  Shan-Ping Mao,  Yuezhi Mao,
 N. Mardirossian,  A. V. Marenich,  L. A. Martinez-Martinez,  S. A. Maurer,
 N. J. Mayhall,  S. C. McKenzie,  J.-M. Mewes,  A. F. Morrison,  K. Nanda,
 T. S. Nguyen-Beck,  R. Olivares-Amaya,  J. A. Parkhill,  T. M. Perrine,
 F. Plasser,  S. Prager,  A. Prociuk,  D. R. Rehn,  F. Rob,  M. Schneider,
 N. Sergueev,  S. M. Sharada,  S. Sharma,  D. W. Small,  T. Stauch,
 T. Stein,  Yu-Chuan Su,  A. J. W. Thom,  T. Tsuchimochi,  L. Vogt,
 O. Vydrov,  M. A. Watson,  J. Wenzel,  M. de Wergifosse,  T. A. Wesolowski,
 A. White,  J. Witte,  A. Yamada,  Jun Yang,  K. Yao,  S. Yeganeh,
 S. R. Yost,  Zhi-Qiang You,  A. Zech,  Igor Ying Zhang,  Xing Zhang,
 Yan Zhao,  Ying Zhu,  B. R. Brooks,  G. K. L. Chan,  C. J. Cramer,
 M. S. Gordon,  W. J. Hehre,  A. Klamt,  M. W. Schmidt,  C. D. Sherrill,
 D. G. Truhlar,  A. Aspuru-Guzik,  R. Baer,  A. T. Bell,  N. A. Besley,
 Jeng-Da Chai,  A. Dreuw,  B. D. Dunietz,  T. R. Furlani,  Chao-Ping Hsu,
 Yousung Jung,  Jing Kong,  D. S. Lambrecht,  WanZhen Liang,  C. Ochsenfeld,
 V. A. Rassolov,  L. V. Slipchenko,  J. E. Subotnik,  T. Van Voorhis,
 J. M. Herbert,  A. I. Krylov,  P. M. W. Gill,  M. Head-Gordon

 Contributors to earlier versions of Q-Chem not listed above:
 R. D. Adamson,  B. Austin,  J. Baker,  G. J. O. Beran,  K. Brandhorst,
 S. T. Brown,  E. F. C. Byrd,  A. K. Chakraborty,  C.-L. Cheng,
 Siu Hung Chien,  D. M. Chipman,  D. L. Crittenden,  H. Dachsel,
 R. A. DiStasio Jr.,  R. J. Doerksen,  A. D. Dutoi,  L. Fusti-Molnar,
 W. A. Goddard III,  A. Golubeva-Zadorozhnaya,  S. R. Gwaltney,  G. Hawkins,
 A. Heyden,  S. Hirata,  G. Kedziora,  F. J. Keil,  C. Kelley,  Jihan Kim,
 R. A. King,  R. Z. Khaliullin,  P. P. Korambath,  W. Kurlancheek,
 A. M. Lee,  M. S. Lee,  S. V. Levchenko,  Ching Yeh Lin,  D. Liotard,
 R. C. Lochan,  I. Lotan,  P. E. Maslen,  N. Nair,  D. P. O'Neill,
 D. Neuhauser,  E. Neuscamman,  C. M. Oana,  R. Olson,  B. Peters,
 R. Peverati,  P. A. Pieniazek,  Y. M. Rhee,  J. Ritchie,  M. A. Rohrdanz,
 E. Rosta,  N. J. Russ,  H. F. Schaefer III,  N. E. Schultz,  N. Shenvi,
 A. C. Simmonett,  A. Sodt,  D. Stuck,  K. S. Thanthiriwatte,  V. Vanovschi,
 Tao Wang,  A. Warshel,  C. F. Williams,  Q. Wu,  X. Xu,  W. Zhang

 Please cite Q-Chem as follows:
 Y. Shao et al., Mol. Phys. 113, 184-215 (2015)
 DOI: 10.1080/00268976.2014.952696

 Q-Chem 5.0.0 for Intel X86 EM64T Linux

 Parts of Q-Chem use Armadillo 5.200.1 (Boston Tea Smuggler).
 http://arma.sourceforge.net/

 Q-Chem begins on Wed Oct  4 17:37:59 2017

Host: nid05745
0

     Scratch files written to /global/cscratch1/sd/junteng/scratch/14/opt_1101+o.save//
The previous job contains 0 fragments, simply inherited here

Checking the input file for inconsistencies... 	...done.

--------------------------------------------------------------
User input:
--------------------------------------------------------------

$molecule
   read
$end

$rem
JOBTYPE                   OPT
METHOD                    B3LYP
DFT_D                     D3_OP
BASIS                     6-311++G(d,p)
GEOM_OPT_MAX_CYCLES       500
GEOM_OPT_TOL_GRADIENT     1
GEOM_OPT_TOL_DISPLACEMENT 1
GEOM_OPT_TOL_ENERGY       1
SYMMETRY                  False
THRESH                    12
SCF_CONVERGENCE           8
MAX_SUB_FILE_NUM          128
MEM_STATIC                400
MEM_TOTAL                 4000
$end

--------------------------------------------------------------

    6    -805.1940353901      7.85E-09 Convergence criterion met
 Total energy in the final basis set = -805.1940353901
    6    -805.1940353840      8.19E-09 Convergence criterion met
 Total energy in the final basis set = -805.1940353840
    6    -805.1940354068      4.43E-09 Convergence criterion met
 Total energy in the final basis set = -805.1940354068
    6    -805.1940354030      4.92E-09 Convergence criterion met
 Total energy in the final basis set = -805.1940354030
    5    -805.1940354158      7.81E-09 Convergence criterion met
 Total energy in the final basis set = -805.1940354158
    5    -805.1940354130      6.69E-09 Convergence criterion met
 Total energy in the final basis set = -805.1940354130
 Final energy is   -805.194035413032
        *  Thank you very much for using Q-Chem.  Have a nice day.  *
 Q-Chem 5.0, Q-Chem, Inc., Pleasanton, CA (2017)
 Q-Chem 5.0.0 for Intel X86 EM64T Linux

             Standard Nuclear Orientation (Angstroms)
    I     Atom           X                Y                Z
 ----------------------------------------------------------------
    1      C      -0.0497127198     0.8277619884     0.6248569987
    2      C       0.6597769345    -0.5666476460     0.5980002964
    3      C      -1.3350401585     0.9241722609    -0.1680860409
    4      C      -0.2295222680    -1.7150763812     0.1444395220
    5      O      -2.0755409324     1.9650059960     0.2787939605
    6      O      -1.6596441893     0.2334084107    -1.1004084166
    7      O      -1.3032191302    -1.7811571746     0.9705160927
    8      O      -0.0261467806    -2.5070090075    -0.7365664181
    9      C      -2.3069925513    -2.7484764680     0.6134167483
   10      C      -3.2961149059     2.2213059687    -0.4414530127
   11      C       1.0344568165     1.7066261468    -0.0725793347
   12      C       2.2359747245     1.8868558029     0.8799872107
   13      C       2.9176112714     0.4959574522     0.7539048817
   14      C       1.9621672535    -0.2504931853    -0.2198910676
   15      O       1.5322683845     0.8309943912    -1.0797294440
   16      H      -0.2506380129     1.1732873980     1.6378167357
   17      H       0.9295988648    -0.8282235841     1.6249711977
   18      H      -1.8922675164    -3.7575149997     0.6266611244
   19      H      -3.0821504545     2.4497975040    -1.4866260612
   20      H       2.8870381743     2.6848375148     0.5199220887
   21      H       1.9284233242     2.1343044931     1.8979623729
   22      H       3.9045980208     0.5800307946     0.2965869889
   23      H       3.0308109418    -0.0219099592     1.7083979685
   24      H      -3.0885620635    -2.6462618314     1.3634587196
   25      H      -2.6954505107    -2.5270817878    -0.3817865902
   26      H      -3.7510160772     3.0763732217     0.0536958745
   27      H      -3.9555733919     1.3534674724    -0.3924472553
   28      H       0.6501254667     2.6184772165    -0.5253856489
   29      C       2.6189820015    -1.3438967241    -1.0323902955
   30      H       3.5180554203    -0.9432110873    -1.5067562387
   31      H       2.9101244037    -2.1753343168    -0.3853498679
   32      H       1.9456262036    -1.7295142662    -1.7932030418
 ----------------------------------------------------------------

   15    -805.1940730044      3.66E-09 Convergence criterion met
 Total energy in the final basis set = -805.1940730044

                    Orbital Energies (a.u.)
 --------------------------------------------------------------

 Alpha MOs
 -- Occupied --
-19.177 -19.166 -19.128 -19.119 -19.111 -10.308 -10.303 -10.238
-10.238 -10.232 -10.222 -10.205 -10.203 -10.181 -10.177 -10.154
 -1.118  -1.107  -1.062  -1.030  -1.022  -0.831  -0.793  -0.780
 -0.748  -0.723  -0.686  -0.650  -0.603  -0.594  -0.569  -0.553
 -0.532  -0.510  -0.504  -0.491  -0.489  -0.482  -0.477  -0.471
 -0.458  -0.436  -0.425  -0.420  -0.417  -0.407  -0.394  -0.377
 -0.373  -0.369  -0.365  -0.359  -0.359  -0.349  -0.335  -0.328
 -0.319  -0.307  -0.290  -0.275  -0.271

          Ground-State Mulliken Net Atomic Charges

     Atom                 Charge (a.u.)
  ----------------------------------------
      1 C                     0.039415
      2 C                     0.298014
      3 C                    -0.920538
      4 C                    -0.431108
      5 O                    -0.011116
      6 O                    -0.188094
      7 O                    -0.018820
      8 O                    -0.188756
      9 C                    -0.180512
     10 C                    -0.230574
     11 C                     0.467751
     12 C                    -0.454942
     13 C                    -0.459976
     14 C                    -0.288903
     15 O                    -0.052215
     16 H                     0.289632
     17 H                     0.249788
     18 H                     0.165861
     19 H                     0.184007
     20 H                     0.183950
     21 H                     0.121346
     22 H                     0.173775
     23 H                     0.142896
     24 H                     0.148947
     25 H                     0.189762
     26 H                     0.151002
     27 H                     0.170142
     28 H                     0.277694
     29 C                    -0.338188
     30 H                     0.143274
     31 H                     0.157775
     32 H                     0.208710
  ----------------------------------------
  Sum of atomic charges =     0.000000

                    Cartesian Multipole Moments
 -----------------------------------------------------------------
    Charge (ESU x 10^10)
                 0.0000
    Dipole Moment (Debye)
         X      -0.8243      Y       1.9666      Z       3.4262
       Tot       4.0356
    Quadrupole Moments (Debye-Ang)
        XX     -82.7401     XY      -0.7633     YY     -91.7373
        XZ       2.3311     YZ      -4.4251     ZZ    -100.3411

 Frequency:        24.73                  34.09                  78.72
 Force Cnst:      0.0013                 0.0031                 0.0072
 Red. Mass:       3.6508                 4.5610                 1.9673
 IR Intens:        0.129                  0.574                  0.230
 Frequency:        84.52                 111.23                 124.41
 Force Cnst:      0.0142                 0.0130                 0.0215
 Red. Mass:       3.3825                 1.7873                 2.3561
 IR Intens:        4.852                  0.038                  1.063
 Frequency:       144.42                 153.65                 189.11
 Force Cnst:      0.0467                 0.0188                 0.0730
 Red. Mass:       3.8038                 1.3483                 3.4641
 IR Intens:        1.954                  0.324                  0.429
 Frequency:       214.07                 232.30                 248.07
 Force Cnst:      0.1172                 0.0814                 0.0492
 Red. Mass:       4.3423                 2.5593                 1.3579
 IR Intens:        1.489                  4.255                  1.684
 Frequency:       267.85                 294.30                 317.47
 Force Cnst:      0.1725                 0.2546                 0.1686
 Red. Mass:       4.0816                 4.9900                 2.8400
 IR Intens:        3.643                  3.967                  8.704
 Frequency:       329.14                 343.85                 359.39
 Force Cnst:      0.1855                 0.3066                 0.2053
 Red. Mass:       2.9059                 4.4009                 2.6979
 IR Intens:        0.042                 13.092                  2.936
 Frequency:       378.51                 476.66                 574.26
 Force Cnst:      0.4108                 0.5339                 0.7238
 Red. Mass:       4.8665                 3.9886                 3.7253
 IR Intens:        8.407                 13.615                 17.210
 Frequency:       606.61                 644.72                 663.89
 Force Cnst:      1.1208                 1.1717                 1.1160
 Red. Mass:       5.1694                 4.7843                 4.2974
 IR Intens:       11.261                  4.302                  0.218
 Frequency:       699.94                 750.41                 802.21
 Force Cnst:      1.7662                 1.7291                 1.3552
 Red. Mass:       6.1187                 5.2115                 3.5743
 IR Intens:        4.296                  4.613                  5.309
 Frequency:       813.78                 831.34                 841.55
 Force Cnst:      0.9673                 1.7162                 1.6588
 Red. Mass:       2.4791                 4.2147                 3.9754
 IR Intens:       10.736                 12.513                 11.280
 Frequency:       858.47                 898.54                 904.58
 Force Cnst:      1.2463                 1.2141                 1.3073
 Red. Mass:       2.8701                 2.5523                 2.7116
 IR Intens:       10.129                  6.921                  3.562
 Frequency:       915.38                 934.02                 967.31
 Force Cnst:      1.2138                 1.5860                 2.3637
 Red. Mass:       2.4586                 3.0856                 4.2875
 IR Intens:       12.485                  5.837                  3.264
 Frequency:       973.94                 993.95                1011.23
 Force Cnst:      2.0076                 1.7398                 2.4650
 Red. Mass:       3.5923                 2.9890                 4.0913
 IR Intens:       14.630                 13.973                 42.092
 Frequency:      1036.08                1061.63                1073.91
 Force Cnst:      1.1829                 2.5312                 1.7206
 Red. Mass:       1.8703                 3.8119                 2.5323
 IR Intens:       25.615                 58.934                 22.136
 Frequency:      1123.73                1137.57                1171.04
 Force Cnst:      1.3745                 1.2759                 1.1036
 Red. Mass:       1.8475                 1.6734                 1.3659
 IR Intens:       30.886                 14.198                 26.244
 Frequency:      1171.36                1178.79                1189.09
 Force Cnst:      1.0409                 1.9210                 1.6906
 Red. Mass:       1.2876                 2.3464                 2.0293
 IR Intens:        3.835                182.147                299.846
 Frequency:      1201.91                1204.78                1211.26
 Force Cnst:      1.3587                 1.3835                 1.3364
 Red. Mass:       1.5963                 1.6177                 1.5460
 IR Intens:       13.027                 40.393                 18.113
 Frequency:      1212.86                1216.95                1249.89
 Force Cnst:      1.5335                 1.5390                 1.4026
 Red. Mass:       1.7693                 1.7638                 1.5239
 IR Intens:      143.892                 79.741                 14.289
 Frequency:      1255.16                1290.66                1317.25
 Force Cnst:      1.1739                 1.8498                 1.4613
 Red. Mass:       1.2647                 1.8847                 1.4294
 IR Intens:        3.900                  8.478                 16.982
 Frequency:      1325.18                1336.57                1362.48
 Force Cnst:      1.6273                 2.0383                 1.7464
 Red. Mass:       1.5728                 1.9366                 1.5967
 IR Intens:       20.186                 10.093                 84.630
 Frequency:      1388.87                1430.76                1466.19
 Force Cnst:      1.9211                 1.5969                 1.5001
 Red. Mass:       1.6903                 1.3240                 1.1844
 IR Intens:       49.371                 14.984                 12.567
 Frequency:      1469.01                1481.89                1483.10
 Force Cnst:      1.5284                 1.3536                 1.3905
 Red. Mass:       1.2021                 1.0462                 1.0730
 IR Intens:       15.960                  8.064                  1.879
 Frequency:      1484.11                1490.91                1497.20
 Force Cnst:      1.3556                 1.3852                 1.3808
 Red. Mass:       1.0446                 1.0577                 1.0455
 IR Intens:       11.232                  2.218                 11.551
 Frequency:      1498.99                1500.35                1508.79
 Force Cnst:      1.3873                 1.3965                 1.4731
 Red. Mass:       1.0479                 1.0530                 1.0983
 IR Intens:       10.820                  9.443                  6.277
 Frequency:      1795.49                1811.40                3044.44
 Force Cnst:     21.6665                22.1822                 5.6828
 Red. Mass:      11.4070                11.4744                 1.0406
 IR Intens:       88.224                350.845                 19.008
 Frequency:      3048.68                3049.60                3055.21
 Force Cnst:      5.6371                 5.6418                 5.8667
 Red. Mass:       1.0294                 1.0296                 1.0667
 IR Intens:       33.340                 37.697                 14.856
 Frequency:      3060.10                3067.28                3093.60
 Force Cnst:      5.9169                 5.8892                 6.2441
 Red. Mass:       1.0724                 1.0624                 1.1074
 IR Intens:       20.699                 37.866                  0.581
 Frequency:      3102.41                3110.08                3116.36
 Force Cnst:      6.2492                 6.2486                 6.2702
 Red. Mass:       1.1020                 1.0965                 1.0958
 IR Intens:       12.448                 18.152                 37.217
 Frequency:      3122.23                3123.63                3128.48
 Force Cnst:      6.3583                 6.3654                 6.2860
 Red. Mass:       1.1070                 1.1073                 1.0901
 IR Intens:       19.049                 15.416                 23.538
 Frequency:      3152.63                3157.03                3164.32
 Force Cnst:      6.4789                 6.4967                 6.4728
 Red. Mass:       1.1064                 1.1063                 1.0972
 IR Intens:       14.469                 14.497                  2.789

 STANDARD THERMODYNAMIC QUANTITIES AT   298.15 K  AND     1.00 ATM

   This Molecule has  0 Imaginary Frequencies
   Zero point vibrational energy:      166.293 kcal/mol

   Atom    1 Element C  Has Mass   12.00000
   Atom    2 Element C  Has Mass   12.00000
   Atom    3 Element C  Has Mass   12.00000
   Atom    4 Element C  Has Mass   12.00000
   Atom    5 Element O  Has Mass   15.99491
   Atom    6 Element O  Has Mass   15.99491
   Atom    7 Element O  Has Mass   15.99491
   Atom    8 Element O  Has Mass   15.99491
   Atom    9 Element C  Has Mass   12.00000
   Atom   10 Element C  Has Mass   12.00000
   Atom   11 Element C  Has Mass   12.00000
   Atom   12 Element C  Has Mass   12.00000
   Atom   13 Element C  Has Mass   12.00000
   Atom   14 Element C  Has Mass   12.00000
   Atom   15 Element O  Has Mass   15.99491
   Atom   16 Element H  Has Mass    1.00783
   Atom   17 Element H  Has Mass    1.00783
   Atom   18 Element H  Has Mass    1.00783
   Atom   19 Element H  Has Mass    1.00783
   Atom   20 Element H  Has Mass    1.00783
   Atom   21 Element H  Has Mass    1.00783
   Atom   22 Element H  Has Mass    1.00783
   Atom   23 Element H  Has Mass    1.00783
   Atom   24 Element H  Has Mass    1.00783
   Atom   25 Element H  Has Mass    1.00783
   Atom   26 Element H  Has Mass    1.00783
   Atom   27 Element H  Has Mass    1.00783
   Atom   28 Element H  Has Mass    1.00783
   Atom   29 Element C  Has Mass   12.00000
   Atom   30 Element H  Has Mass    1.00783
   Atom   31 Element H  Has Mass    1.00783
   Atom   32 Element H  Has Mass    1.00783
   Molecular Mass:   228.099830 amu
   Principal axes and moments of inertia in amu*Bohr^2:
                             1           2           3
    Eigenvalues --     2651.33805  3419.87444  5128.77991
          X               0.99998    -0.00301     0.00564
          Y               0.00300     0.99999     0.00239
          Z              -0.00564    -0.00237     0.99998
   Rotational Symmetry Number is   1
   The Molecule is an Asymmetric Top
   Translational Enthalpy:        0.889 kcal/mol
   Rotational Enthalpy:           0.889 kcal/mol
   Vibrational Enthalpy:        174.466 kcal/mol
   gas constant (RT):             0.592 kcal/mol
   Translational Entropy:        42.176  cal/mol.K
   Rotational Entropy:           32.208  cal/mol.K
   Vibrational Entropy:          53.867  cal/mol.K

   Total Enthalpy:              176.836 kcal/mol
   Total Entropy:               128.251  cal/mol.K

 Total job time:  10365.64s(wall), 58482.08s(cpu)
        *  Thank you very much for using Q-Chem.  Have a nice day.  *
