 Q-Chem 5.0, Q-Chem, Inc., Pleasanton, CA (2017)
 Q-Chem 5.0.0 for Intel X86 EM64T Linux

User input:
--------------------------------------------------------------
$molecule
0  1
C          0.19900        0.79300        0.83500
C          0.89200       -0.61700        0.84600
C         -1.06800        0.92100        0.02100
C          0.17100       -1.73800        0.12400
O         -1.86400        1.88800        0.53500
O         -1.33700        0.31100       -0.99200
O         -1.02000       -1.98700        0.71400
O          0.60700       -2.37300       -0.80900
C         -1.84700       -2.93600        0.02100
C         -3.06700        2.14100       -0.21000
C          1.35100        1.71400        0.24200
C          1.57500        1.29100       -1.20000
C          2.15100        0.08100       -1.18100
C          2.32000       -0.32100        0.27500
C          2.57900        1.06200        0.91700
H         -2.09800       -2.54900       -0.97100
H         -3.68400        1.24000       -0.26000
H          2.34000       -0.57500       -2.02000
H         -2.74500       -3.04600        0.63000
H         -1.33200       -3.89500       -0.08500
H         -3.58600        2.93400        0.33100
H         -2.82900        2.46000       -1.22900
H          3.03700       -1.11800        0.47700
H          1.17400        2.77600        0.42300
H          3.52200        1.50900        0.58800
H          2.53200        1.06200        2.01300
H          1.20000        1.82500       -2.06500
H         -0.02000        1.11800        1.85500
H          0.97400       -0.93600        1.89200
$end

$opt
CONSTRAINT
tors    1    2    4    8    119.9
tors    2    1    3    6    -31.3
ENDCONSTRAINT
$end

$rem
JOBTYPE                   OPT
METHOD                    B3LYP
DFT_D                     D3_OP
BASIS                     STO-3G
GEOM_OPT_MAX_CYCLES       500
SYMMETRY                  False
THRESH                    12
SCF_CONVERGENCE           8
MAX_SUB_FILE_NUM          128
MEM_STATIC                400
MEM_TOTAL                 4000
$end

--------------------------------------------------------------

   14    -719.1254722305      7.45E-09 Convergence criterion met
 Total energy in the final basis set = -719.1254722305
   14    -719.1523486737      3.32E-09 Convergence criterion met
 Total energy in the final basis set = -719.1523486737
   13    -719.1540809063      4.32E-09 Convergence criterion met
 Total energy in the final basis set = -719.1540809063
   12    -719.1543297744      3.65E-09 Convergence criterion met
 Total energy in the final basis set = -719.1543297744
   11    -719.1543603384      2.24E-09 Convergence criterion met
 Total energy in the final basis set = -719.1543603384
   11    -719.1543715311      2.13E-09 Convergence criterion met
 Total energy in the final basis set = -719.1543715311
   10    -719.1543754722      5.87E-09 Convergence criterion met
 Total energy in the final basis set = -719.1543754722
   10    -719.1543781915      6.68E-09 Convergence criterion met
 **  OPTIMIZATION CONVERGED  **
 Total job time:  34.68s(wall), 798.39s(cpu)
        *  Thank you very much for using Q-Chem.  Have a nice day.  *

User input: 2 of 3

nid05906 10.128.23
Q-Chem Developer Version! Running on 10.128.23.*
                  Welcome to Q-Chem
     A Quantum Leap Into The Future Of Chemistry

 Q-Chem 5.0, Q-Chem, Inc., Pleasanton, CA (2017)

 Yihan Shao,  Zhengting Gan,  E. Epifanovsky,  A. T. B. Gilbert,  M. Wormit,
 J. Kussmann,  A. W. Lange,  A. Behn,  Jia Deng,  Xintian Feng,  D. Ghosh,
 M. Goldey,  P. R. Horn,  L. D. Jacobson,  I. Kaliman,  T. Kus,  A. Landau,
 Jie Liu,  E. I. Proynov,  R. M. Richard,  R. P. Steele,  E. J. Sundstrom,
 H. L. Woodcock III,  P. M. Zimmerman,  D. Zuev,  B. Albrecht,  E. Alguire,
 S. A. Baeppler,  Z. Benda,  Y. A. Bernard,  E. J. Berquist,  K. B. Bravaya,
 D. Casanova,  Chun-Min Chang,  Yunqing Chen,  A. Chien,  K. D. Closser,
 M. P. Coons,  S. Dasgupta,  M. Diedenhofen,  Hainam Do,  R. G. Edgar,
 Po-Tung Fang,  S. Fatehi,  Qingguo Feng,  Qinghui Ge,  A. Ghysels,
 J. Gomes,  J. Gonthier,  A. Gunina,  M. W. D. Hanson-Heine,
 P. H. P. Harbach,  A. W. Hauser,  J. E. Herr,  E. G. Hohenstein,
 Z. C. Holden,  Kerwin Hui,  T.-C. Jagau,  Hyunjun Ji,  B. Kaduk,
 K. Khistyaev,  Jaehoon Kim,  P. Klunzinger,  K. Koh,  D. Kosenkov,
 T. Kowalczyk,  C. M. Krauter,  A. Kunitsa,  Ka Un Lao,  A. Laurent,
 K. V. Lawler,  Joonho Lee,  D. Lefrancois,  S. Lehtola,  D. S. Levine,
 Yi-Pei Li,  You-Sheng Lin,  Fenglai Liu,  E. Livshits,  A. Luenser,
 P. Manohar,  E. Mansoor,  S. F. Manzer,  Shan-Ping Mao,  Yuezhi Mao,
 N. Mardirossian,  A. V. Marenich,  L. A. Martinez-Martinez,  S. A. Maurer,
 N. J. Mayhall,  S. C. McKenzie,  J.-M. Mewes,  A. F. Morrison,  K. Nanda,
 T. S. Nguyen-Beck,  R. Olivares-Amaya,  J. A. Parkhill,  T. M. Perrine,
 F. Plasser,  S. Prager,  A. Prociuk,  D. R. Rehn,  F. Rob,  M. Schneider,
 N. Sergueev,  S. M. Sharada,  S. Sharma,  D. W. Small,  T. Stauch,
 T. Stein,  Yu-Chuan Su,  A. J. W. Thom,  T. Tsuchimochi,  L. Vogt,
 O. Vydrov,  M. A. Watson,  J. Wenzel,  M. de Wergifosse,  T. A. Wesolowski,
 A. White,  J. Witte,  A. Yamada,  Jun Yang,  K. Yao,  S. Yeganeh,
 S. R. Yost,  Zhi-Qiang You,  A. Zech,  Igor Ying Zhang,  Xing Zhang,
 Yan Zhao,  Ying Zhu,  B. R. Brooks,  G. K. L. Chan,  C. J. Cramer,
 M. S. Gordon,  W. J. Hehre,  A. Klamt,  M. W. Schmidt,  C. D. Sherrill,
 D. G. Truhlar,  A. Aspuru-Guzik,  R. Baer,  A. T. Bell,  N. A. Besley,
 Jeng-Da Chai,  A. Dreuw,  B. D. Dunietz,  T. R. Furlani,  Chao-Ping Hsu,
 Yousung Jung,  Jing Kong,  D. S. Lambrecht,  WanZhen Liang,  C. Ochsenfeld,
 V. A. Rassolov,  L. V. Slipchenko,  J. E. Subotnik,  T. Van Voorhis,
 J. M. Herbert,  A. I. Krylov,  P. M. W. Gill,  M. Head-Gordon

 Contributors to earlier versions of Q-Chem not listed above:
 R. D. Adamson,  B. Austin,  J. Baker,  G. J. O. Beran,  K. Brandhorst,
 S. T. Brown,  E. F. C. Byrd,  A. K. Chakraborty,  C.-L. Cheng,
 Siu Hung Chien,  D. M. Chipman,  D. L. Crittenden,  H. Dachsel,
 R. A. DiStasio Jr.,  R. J. Doerksen,  A. D. Dutoi,  L. Fusti-Molnar,
 W. A. Goddard III,  A. Golubeva-Zadorozhnaya,  S. R. Gwaltney,  G. Hawkins,
 A. Heyden,  S. Hirata,  G. Kedziora,  F. J. Keil,  C. Kelley,  Jihan Kim,
 R. A. King,  R. Z. Khaliullin,  P. P. Korambath,  W. Kurlancheek,
 A. M. Lee,  M. S. Lee,  S. V. Levchenko,  Ching Yeh Lin,  D. Liotard,
 R. C. Lochan,  I. Lotan,  P. E. Maslen,  N. Nair,  D. P. O'Neill,
 D. Neuhauser,  E. Neuscamman,  C. M. Oana,  R. Olson,  B. Peters,
 R. Peverati,  P. A. Pieniazek,  Y. M. Rhee,  J. Ritchie,  M. A. Rohrdanz,
 E. Rosta,  N. J. Russ,  H. F. Schaefer III,  N. E. Schultz,  N. Shenvi,
 A. C. Simmonett,  A. Sodt,  D. Stuck,  K. S. Thanthiriwatte,  V. Vanovschi,
 Tao Wang,  A. Warshel,  C. F. Williams,  Q. Wu,  X. Xu,  W. Zhang

 Please cite Q-Chem as follows:
 Y. Shao et al., Mol. Phys. 113, 184-215 (2015)
 DOI: 10.1080/00268976.2014.952696

 Q-Chem 5.0.0 for Intel X86 EM64T Linux

 Parts of Q-Chem use Armadillo 5.200.1 (Boston Tea Smuggler).
 http://arma.sourceforge.net/

 Q-Chem begins on Wed Oct 18 12:18:53 2017

Host: nid05906
0

     Scratch files written to /global/cscratch1/sd/junteng/scratch/15/opt_10d01.save//
The previous job contains 0 fragments, simply inherited here

Checking the input file for inconsistencies... 	...done.

--------------------------------------------------------------
User input:
--------------------------------------------------------------

$molecule
   read
$end

$rem
JOBTYPE                   OPT
METHOD                    B3LYP
DFT_D                     D3_OP
BASIS                     6-311++G(d,p)
GEOM_OPT_MAX_CYCLES       500
GEOM_OPT_TOL_GRADIENT     1
GEOM_OPT_TOL_DISPLACEMENT 1
GEOM_OPT_TOL_ENERGY       1
SYMMETRY                  False
THRESH                    12
SCF_CONVERGENCE           8
MAX_SUB_FILE_NUM          128
MEM_STATIC                400
MEM_TOTAL                 4000
$end

--------------------------------------------------------------

    4    -728.7127268632      9.40E-09 Convergence criterion met
 Total energy in the final basis set = -728.7127268632
    4    -728.7127268826      8.81E-09 Convergence criterion met
 Total energy in the final basis set = -728.7127268826
    5    -728.7127268670      4.68E-09 Convergence criterion met
 Total energy in the final basis set = -728.7127268670
    4    -728.7127268812      9.58E-09 Convergence criterion met
 Total energy in the final basis set = -728.7127268812
    4    -728.7127268693      9.42E-09 Convergence criterion met
 Total energy in the final basis set = -728.7127268693
    5    -728.7127268787      3.87E-09 Convergence criterion met
 Total energy in the final basis set = -728.7127268787
 Final energy is   -728.712726878712
        *  Thank you very much for using Q-Chem.  Have a nice day.  *
 Q-Chem 5.0, Q-Chem, Inc., Pleasanton, CA (2017)
 Q-Chem 5.0.0 for Intel X86 EM64T Linux

             Standard Nuclear Orientation (Angstroms)
    I     Atom           X                Y                Z
 ----------------------------------------------------------------
    1      C       0.1978632839     0.7790184333     0.8014098357
    2      C       0.8714436474    -0.6385995613     0.7971932792
    3      C      -1.0684843962     0.9440767424    -0.0050063004
    4      C       0.1266661940    -1.7549016771     0.0951370460
    5      O      -1.8129584840     1.9552863380     0.4996283618
    6      O      -1.3810454770     0.3224676898    -0.9905166697
    7      O      -1.0365670142    -2.0101186754     0.7335953525
    8      O       0.5251414920    -2.3878047767    -0.8498011425
    9      C      -1.8915015067    -2.9877332526     0.1155121178
   10      C      -3.0201534893     2.2675396883    -0.2192840690
   11      C       1.3659428463     1.6975781085     0.2375625487
   12      C       1.5887429483     1.3022785310    -1.2132263595
   13      C       2.1417791126     0.0850753024    -1.2197478350
   14      C       2.3031466800    -0.3532462594     0.2274694243
   15      C       2.5788908327     1.0092786357     0.9037882467
   16      H      -2.1598818049    -2.6621360975    -0.8903934977
   17      H      -3.6885931959     1.4051389377    -0.2322894825
   18      H       2.3229872846    -0.5504406099    -2.0738161207
   19      H      -2.7738719589    -3.0438191858     0.7496072564
   20      H      -1.3926975513    -3.9568467755     0.0650770968
   21      H      -3.4733673187     3.0957615066     0.3209383903
   22      H      -2.7898895945     2.5574846500    -1.2457057490
   23      H       3.0087776060    -1.1618262707     0.4107071278
   24      H       1.2043357082     2.7546621640     0.4421749718
   25      H       3.5280256365     1.4494700004     0.5939223647
   26      H       2.5223661925     0.9811186940     1.9964530694
   27      H       1.2308622170     1.8606858059    -2.0677009542
   28      H      -0.0212858253     1.0892917576     1.8232387374
   29      H       0.9596515502    -0.9593773305     1.8396919651
 ----------------------------------------------------------------

   15    -728.7126492128      4.49E-09 Convergence criterion met
 Total energy in the final basis set = -728.7126492128

                    Orbital Energies (a.u.)
 --------------------------------------------------------------

 Alpha MOs
 -- Occupied --
-19.175 -19.164 -19.117 -19.108 -10.305 -10.298 -10.231 -10.220
-10.204 -10.200 -10.196 -10.188 -10.178 -10.168 -10.167  -1.115
 -1.105  -1.028  -1.020  -0.898  -0.788  -0.764  -0.729  -0.721
 -0.704  -0.634  -0.586  -0.572  -0.559  -0.533  -0.532  -0.526
 -0.496  -0.486  -0.484  -0.475  -0.463  -0.458  -0.442  -0.422
 -0.410  -0.406  -0.391  -0.380  -0.377  -0.365  -0.361  -0.357
 -0.348  -0.346  -0.325  -0.318  -0.304  -0.288  -0.275  -0.248

          Ground-State Mulliken Net Atomic Charges

     Atom                 Charge (a.u.)
  ----------------------------------------
      1 C                     0.042063
      2 C                     0.325141
      3 C                    -0.511318
      4 C                    -0.723935
      5 O                    -0.034664
      6 O                    -0.202226
      7 O                    -0.043157
      8 O                    -0.196246
      9 C                    -0.208327
     10 C                    -0.232388
     11 C                     0.289921
     12 C                    -0.386472
     13 C                    -0.367791
     14 C                     0.289337
     15 C                    -0.721673
     16 H                     0.192079
     17 H                     0.174064
     18 H                     0.176767
     19 H                     0.148064
     20 H                     0.164453
     21 H                     0.149042
     22 H                     0.174591
     23 H                     0.261203
     24 H                     0.254163
     25 H                     0.172959
     26 H                     0.130201
     27 H                     0.153513
     28 H                     0.274320
     29 H                     0.256319
  ----------------------------------------
  Sum of atomic charges =     0.000000

                    Cartesian Multipole Moments
 -----------------------------------------------------------------
    Charge (ESU x 10^10)
                 0.0000
    Dipole Moment (Debye)
         X      -1.1754      Y       1.7938      Z       2.1869
       Tot       3.0630
    Quadrupole Moments (Debye-Ang)
        XX     -80.3906     XY       0.3427     YY     -85.1113
        XZ       2.6295     YZ      -4.4088     ZZ     -90.7388

 Frequency:        21.39                  73.76                  75.01
 Force Cnst:      0.0011                 0.0118                 0.0086
 Red. Mass:       4.2421                 3.6729                 2.5947
 IR Intens:        0.533                  0.511                  1.786
 Frequency:        82.79                 106.42                 118.48
 Force Cnst:      0.0106                 0.0095                 0.0137
 Red. Mass:       2.6322                 1.4262                 1.6567
 IR Intens:        2.459                  0.445                  0.436
 Frequency:       146.18                 149.36                 199.84
 Force Cnst:      0.0311                 0.0468                 0.1312
 Red. Mass:       2.4664                 3.5604                 5.5758
 IR Intens:        0.880                  2.349                  1.204
 Frequency:       231.02                 259.64                 280.48
 Force Cnst:      0.1436                 0.1980                 0.2484
 Red. Mass:       4.5657                 4.9856                 5.3588
 IR Intens:        9.479                  3.858                  3.411
 Frequency:       321.00                 362.46                 390.62
 Force Cnst:      0.2734                 0.4081                 0.3748
 Red. Mass:       4.5040                 5.2722                 4.1695
 IR Intens:       17.628                 13.312                  1.903
 Frequency:       403.70                 486.79                 518.62
 Force Cnst:      0.3547                 0.4014                 0.3878
 Red. Mass:       3.6942                 2.8751                 2.4471
 IR Intens:        2.141                  4.556                  6.273
 Frequency:       641.41                 677.01                 705.79
 Force Cnst:      0.9798                 1.4405                 1.0632
 Red. Mass:       4.0423                 5.3344                 3.6227
 IR Intens:        5.895                  5.731                  7.011
 Frequency:       729.77                 768.00                 786.63
 Force Cnst:      0.7807                 1.3493                 2.2105
 Red. Mass:       2.4881                 3.8827                 6.0630
 IR Intens:       35.369                  7.188                  7.492
 Frequency:       803.47                 830.97                 852.84
 Force Cnst:      1.5505                 1.5451                 1.2333
 Red. Mass:       4.0764                 3.7977                 2.8779
 IR Intens:       10.730                  8.021                  5.946
 Frequency:       861.75                 914.08                 920.84
 Force Cnst:      1.6262                 1.7472                 1.1131
 Red. Mass:       3.7167                 3.5492                 2.2280
 IR Intens:        1.772                 16.665                  4.039
 Frequency:       943.04                 952.36                 953.76
 Force Cnst:      1.0326                 1.9764                 0.9356
 Red. Mass:       1.9707                 3.6984                 1.7457
 IR Intens:        2.005                  7.936                  4.033
 Frequency:       966.15                 977.91                1000.38
 Force Cnst:      1.8929                 1.5822                 1.2007
 Red. Mass:       3.4419                 2.8081                 2.0364
 IR Intens:        3.139                  5.351                  1.975
 Frequency:      1037.99                1058.28                1090.53
 Force Cnst:      1.4143                 2.0372                 2.3509
 Red. Mass:       2.2279                 3.0874                 3.3552
 IR Intens:        8.293                 34.293                 59.946
 Frequency:      1118.14                1146.40                1162.33
 Force Cnst:      0.8719                 0.8375                 1.0257
 Red. Mass:       1.1836                 1.0815                 1.2885
 IR Intens:        3.824                  7.056                 32.612
 Frequency:      1170.72                1171.82                1179.56
 Force Cnst:      1.0405                 1.0357                 2.0682
 Red. Mass:       1.2885                 1.2802                 2.5230
 IR Intens:        6.560                  2.692                225.678
 Frequency:      1188.75                1204.21                1209.58
 Force Cnst:      1.5976                 1.5751                 1.3986
 Red. Mass:       1.9188                 1.8435                 1.6225
 IR Intens:        4.223                166.681                 65.058
 Frequency:      1212.13                1243.95                1278.09
 Force Cnst:      1.6220                 1.3946                 1.5433
 Red. Mass:       1.8737                 1.5296                 1.6035
 IR Intens:      229.451                 11.841                 37.589
 Frequency:      1284.49                1293.73                1314.18
 Force Cnst:      1.3814                 1.2832                 1.6402
 Red. Mass:       1.4211                 1.3013                 1.6119
 IR Intens:       11.250                  1.079                  9.717
 Frequency:      1354.04                1366.97                1393.04
 Force Cnst:      1.9003                 1.9071                 1.8815
 Red. Mass:       1.7592                 1.7322                 1.6457
 IR Intens:       64.171                 55.140                 47.309
 Frequency:      1465.84                1467.79                1480.53
 Force Cnst:      1.5202                 1.5351                 1.3490
 Red. Mass:       1.2008                 1.2093                 1.0445
 IR Intens:       16.633                 15.911                  7.504
 Frequency:      1482.80                1496.64                1497.41
 Force Cnst:      1.3532                 1.3810                 1.3849
 Red. Mass:       1.0446                 1.0465                 1.0483
 IR Intens:       11.678                 12.063                  6.569
 Frequency:      1505.57                1633.80                1787.99
 Force Cnst:      1.4829                 8.9877                21.5623
 Red. Mass:       1.1104                 5.7148                11.4477
 IR Intens:        3.423                  2.984                 69.202
 Frequency:      1795.53                3040.62                3048.06
 Force Cnst:     21.6741                 5.7991                 5.6783
 Red. Mass:      11.4105                 1.0646                 1.0373
 IR Intens:      339.477                 35.405                 36.532
 Frequency:      3048.63                3049.59                3092.84
 Force Cnst:      5.7826                 5.7295                 6.1175
 Red. Mass:       1.0560                 1.0456                 1.0855
 IR Intens:       23.694                 26.527                  8.322
 Frequency:      3106.59                3116.70                3119.93
 Force Cnst:      6.2703                 6.2242                 6.2927
 Red. Mass:       1.1027                 1.0875                 1.0972
 IR Intens:       29.026                 43.542                 12.965
 Frequency:      3120.02                3124.18                3152.94
 Force Cnst:      6.3095                 6.3657                 6.4810
 Red. Mass:       1.1001                 1.1069                 1.1065
 IR Intens:       19.396                 16.916                 14.775
 Frequency:      3156.29                3204.21                3237.13
 Force Cnst:      6.4920                 6.5913                 6.8108
 Red. Mass:       1.1061                 1.0896                 1.1031
 IR Intens:       15.134                  4.791                  3.789

 STANDARD THERMODYNAMIC QUANTITIES AT   298.15 K  AND     1.00 ATM

   This Molecule has  0 Imaginary Frequencies
   Zero point vibrational energy:      148.996 kcal/mol

   Atom    1 Element C  Has Mass   12.00000
   Atom    2 Element C  Has Mass   12.00000
   Atom    3 Element C  Has Mass   12.00000
   Atom    4 Element C  Has Mass   12.00000
   Atom    5 Element O  Has Mass   15.99491
   Atom    6 Element O  Has Mass   15.99491
   Atom    7 Element O  Has Mass   15.99491
   Atom    8 Element O  Has Mass   15.99491
   Atom    9 Element C  Has Mass   12.00000
   Atom   10 Element C  Has Mass   12.00000
   Atom   11 Element C  Has Mass   12.00000
   Atom   12 Element C  Has Mass   12.00000
   Atom   13 Element C  Has Mass   12.00000
   Atom   14 Element C  Has Mass   12.00000
   Atom   15 Element C  Has Mass   12.00000
   Atom   16 Element H  Has Mass    1.00783
   Atom   17 Element H  Has Mass    1.00783
   Atom   18 Element H  Has Mass    1.00783
   Atom   19 Element H  Has Mass    1.00783
   Atom   20 Element H  Has Mass    1.00783
   Atom   21 Element H  Has Mass    1.00783
   Atom   22 Element H  Has Mass    1.00783
   Atom   23 Element H  Has Mass    1.00783
   Atom   24 Element H  Has Mass    1.00783
   Atom   25 Element H  Has Mass    1.00783
   Atom   26 Element H  Has Mass    1.00783
   Atom   27 Element H  Has Mass    1.00783
   Atom   28 Element H  Has Mass    1.00783
   Atom   29 Element H  Has Mass    1.00783
   Molecular Mass:   210.089260 amu
   Principal axes and moments of inertia in amu*Bohr^2:
                             1           2           3
    Eigenvalues --     2534.71439  2655.55580  4291.93499
          X               0.99258     0.12094     0.01252
          Y              -0.12091     0.99266    -0.00331
          Z              -0.01283     0.00177     0.99992
   Rotational Symmetry Number is   1
   The Molecule is an Asymmetric Top
   Translational Enthalpy:        0.889 kcal/mol
   Rotational Enthalpy:           0.889 kcal/mol
   Vibrational Enthalpy:        156.166 kcal/mol
   gas constant (RT):             0.592 kcal/mol
   Translational Entropy:        41.931  cal/mol.K
   Rotational Entropy:           31.735  cal/mol.K
   Vibrational Entropy:          47.478  cal/mol.K

   Total Enthalpy:              158.536 kcal/mol
   Total Entropy:               121.144  cal/mol.K

 Total job time:  7562.05s(wall), 41621.79s(cpu)
        *  Thank you very much for using Q-Chem.  Have a nice day.  *
