 Q-Chem 5.0, Q-Chem, Inc., Pleasanton, CA (2017)
 Q-Chem 5.0.0 for Intel X86 EM64T Linux

User input:
--------------------------------------------------------------
$molecule
0  1
C    0.355  -2.424   0.293
C   -0.264  -2.685   1.524
C    0.749  -1.045  -0.086
C   -0.385  -1.681   2.598
O    1.805  -1.090  -0.938
O    0.175  -0.038   0.291
O    0.833  -1.128   2.820
O   -1.397  -1.517   3.259
C    0.836  -0.152   3.862
C    2.258   0.195  -1.365
C    0.489  -3.469  -0.639
C    0.011  -4.748  -0.345
C   -0.620  -4.996   0.872
C   -0.760  -3.969   1.804
H    0.142   0.662   3.629
H    1.480   0.699  -1.947
H   -1.003  -5.990   1.096
H    0.581  -0.616   4.820
H    1.845   0.263   3.935
H    3.132   0.050  -2.006
H    2.557   0.804  -0.506
H    0.116  -5.548  -1.075
H   -1.248  -4.169   2.757
H    0.945  -3.290  -1.611
$end

$opt
CONSTRAINT
tors    2    1    3    5    155.0
tors    1    2    4    7    -50.0
ENDCONSTRAINT
$end

$rem
JOBTYPE                   OPT
METHOD                    B3LYP
DFT_D                     D3_OP
BASIS                     6-311++G(d,p)
GEOM_OPT_MAX_CYCLES       500
GEOM_OPT_TOL_DISPLACEMENT 1
SYMMETRY                  False
THRESH                    12
SCF_CONVERGENCE           8
MAX_SUB_FILE_NUM          128
MEM_STATIC                400
MEM_TOTAL                 4000
$end

--------------------------------------------------------------

   15    -688.2114763676      7.98E-09 Convergence criterion met
 Total energy in the final basis set = -688.2114763676
   13    -688.2155922941      4.75E-09 Convergence criterion met
 Total energy in the final basis set = -688.2155922941
   12    -688.2159770394      6.29E-09 Convergence criterion met
 Total energy in the final basis set = -688.2159770394
   11    -688.2160145674      6.16E-09 Convergence criterion met
 Total energy in the final basis set = -688.2160145674
   11    -688.2160422096      3.46E-09 Convergence criterion met
 Total energy in the final basis set = -688.2160422096
   10    -688.2160549278      6.89E-09 Convergence criterion met
 Total energy in the final basis set = -688.2160549278
   10    -688.2160650384      5.37E-09 Convergence criterion met
 Total energy in the final basis set = -688.2160650384
   10    -688.2160770978      6.96E-09 Convergence criterion met
 **  OPTIMIZATION CONVERGED  **
 Total job time:  579.19s(wall), 10829.92s(cpu)
        *  Thank you very much for using Q-Chem.  Have a nice day.  *

User input: 2 of 2

nid04477 10.128.17
Q-Chem Developer Version! Running on 10.128.17.*
                  Welcome to Q-Chem
     A Quantum Leap Into The Future Of Chemistry

 Q-Chem 5.0, Q-Chem, Inc., Pleasanton, CA (2017)

 Yihan Shao,  Zhengting Gan,  E. Epifanovsky,  A. T. B. Gilbert,  M. Wormit,
 J. Kussmann,  A. W. Lange,  A. Behn,  Jia Deng,  Xintian Feng,  D. Ghosh,
 M. Goldey,  P. R. Horn,  L. D. Jacobson,  I. Kaliman,  T. Kus,  A. Landau,
 Jie Liu,  E. I. Proynov,  R. M. Richard,  R. P. Steele,  E. J. Sundstrom,
 H. L. Woodcock III,  P. M. Zimmerman,  D. Zuev,  B. Albrecht,  E. Alguire,
 S. A. Baeppler,  Z. Benda,  Y. A. Bernard,  E. J. Berquist,  K. B. Bravaya,
 D. Casanova,  Chun-Min Chang,  Yunqing Chen,  A. Chien,  K. D. Closser,
 M. P. Coons,  S. Dasgupta,  M. Diedenhofen,  Hainam Do,  R. G. Edgar,
 Po-Tung Fang,  S. Fatehi,  Qingguo Feng,  Qinghui Ge,  A. Ghysels,
 J. Gomes,  J. Gonthier,  A. Gunina,  M. W. D. Hanson-Heine,
 P. H. P. Harbach,  A. W. Hauser,  J. E. Herr,  E. G. Hohenstein,
 Z. C. Holden,  Kerwin Hui,  T.-C. Jagau,  Hyunjun Ji,  B. Kaduk,
 K. Khistyaev,  Jaehoon Kim,  P. Klunzinger,  K. Koh,  D. Kosenkov,
 T. Kowalczyk,  C. M. Krauter,  A. Kunitsa,  Ka Un Lao,  A. Laurent,
 K. V. Lawler,  Joonho Lee,  D. Lefrancois,  S. Lehtola,  D. S. Levine,
 Yi-Pei Li,  You-Sheng Lin,  Fenglai Liu,  E. Livshits,  A. Luenser,
 P. Manohar,  E. Mansoor,  S. F. Manzer,  Shan-Ping Mao,  Yuezhi Mao,
 N. Mardirossian,  A. V. Marenich,  L. A. Martinez-Martinez,  S. A. Maurer,
 N. J. Mayhall,  S. C. McKenzie,  J.-M. Mewes,  A. F. Morrison,  K. Nanda,
 T. S. Nguyen-Beck,  R. Olivares-Amaya,  J. A. Parkhill,  T. M. Perrine,
 F. Plasser,  S. Prager,  A. Prociuk,  D. R. Rehn,  F. Rob,  M. Schneider,
 N. Sergueev,  S. M. Sharada,  S. Sharma,  D. W. Small,  T. Stauch,
 T. Stein,  Yu-Chuan Su,  A. J. W. Thom,  T. Tsuchimochi,  L. Vogt,
 O. Vydrov,  M. A. Watson,  J. Wenzel,  M. de Wergifosse,  T. A. Wesolowski,
 A. White,  J. Witte,  A. Yamada,  Jun Yang,  K. Yao,  S. Yeganeh,
 S. R. Yost,  Zhi-Qiang You,  A. Zech,  Igor Ying Zhang,  Xing Zhang,
 Yan Zhao,  Ying Zhu,  B. R. Brooks,  G. K. L. Chan,  C. J. Cramer,
 M. S. Gordon,  W. J. Hehre,  A. Klamt,  M. W. Schmidt,  C. D. Sherrill,
 D. G. Truhlar,  A. Aspuru-Guzik,  R. Baer,  A. T. Bell,  N. A. Besley,
 Jeng-Da Chai,  A. Dreuw,  B. D. Dunietz,  T. R. Furlani,  Chao-Ping Hsu,
 Yousung Jung,  Jing Kong,  D. S. Lambrecht,  WanZhen Liang,  C. Ochsenfeld,
 V. A. Rassolov,  L. V. Slipchenko,  J. E. Subotnik,  T. Van Voorhis,
 J. M. Herbert,  A. I. Krylov,  P. M. W. Gill,  M. Head-Gordon

 Contributors to earlier versions of Q-Chem not listed above:
 R. D. Adamson,  B. Austin,  J. Baker,  G. J. O. Beran,  K. Brandhorst,
 S. T. Brown,  E. F. C. Byrd,  A. K. Chakraborty,  C.-L. Cheng,
 Siu Hung Chien,  D. M. Chipman,  D. L. Crittenden,  H. Dachsel,
 R. A. DiStasio Jr.,  R. J. Doerksen,  A. D. Dutoi,  L. Fusti-Molnar,
 W. A. Goddard III,  A. Golubeva-Zadorozhnaya,  S. R. Gwaltney,  G. Hawkins,
 A. Heyden,  S. Hirata,  G. Kedziora,  F. J. Keil,  C. Kelley,  Jihan Kim,
 R. A. King,  R. Z. Khaliullin,  P. P. Korambath,  W. Kurlancheek,
 A. M. Lee,  M. S. Lee,  S. V. Levchenko,  Ching Yeh Lin,  D. Liotard,
 R. C. Lochan,  I. Lotan,  P. E. Maslen,  N. Nair,  D. P. O'Neill,
 D. Neuhauser,  E. Neuscamman,  C. M. Oana,  R. Olson,  B. Peters,
 R. Peverati,  P. A. Pieniazek,  Y. M. Rhee,  J. Ritchie,  M. A. Rohrdanz,
 E. Rosta,  N. J. Russ,  H. F. Schaefer III,  N. E. Schultz,  N. Shenvi,
 A. C. Simmonett,  A. Sodt,  D. Stuck,  K. S. Thanthiriwatte,  V. Vanovschi,
 Tao Wang,  A. Warshel,  C. F. Williams,  Q. Wu,  X. Xu,  W. Zhang

 Please cite Q-Chem as follows:
 Y. Shao et al., Mol. Phys. 113, 184-215 (2015)
 DOI: 10.1080/00268976.2014.952696

 Q-Chem 5.0.0 for Intel X86 EM64T Linux

 Parts of Q-Chem use Armadillo 5.200.1 (Boston Tea Smuggler).
 http://arma.sourceforge.net/

 Q-Chem begins on Tue Oct  3 18:23:19 2017

Host: nid04477
0

     Scratch files written to /global/cscratch1/sd/junteng/scratch/16/opt_10n01.save//
The previous job contains 0 fragments, simply inherited here

Checking the input file for inconsistencies... 	...done.

--------------------------------------------------------------
User input:
--------------------------------------------------------------

$molecule
   read
$end

$rem
JOBTYPE                   OPT
METHOD                    B3LYP
DFT_D                     D3_OP
BASIS                     6-311++G(d,p)
GEOM_OPT_MAX_CYCLES       500
GEOM_OPT_TOL_DISPLACEMENT 1
SYMMETRY                  False
THRESH                    12
SCF_CONVERGENCE           8
MAX_SUB_FILE_NUM          128
MEM_STATIC                400
MEM_TOTAL                 4000
$end
--------------------------------------------------------------

   11    -688.2160658318      8.42E-09 Convergence criterion met
 Total energy in the final basis set = -688.2160658318
   11    -688.2160634870      5.58E-09 Convergence criterion met
 Total energy in the final basis set = -688.2160634870
   11    -688.2160702163      4.77E-09 Convergence criterion met
 Total energy in the final basis set = -688.2160702163
   11    -688.2160739759      4.73E-09 Convergence criterion met
 Total energy in the final basis set = -688.2160739759
   10    -688.2160733486      5.40E-09 Convergence criterion met
 Total energy in the final basis set = -688.2160733486
    9    -688.2160755135      8.82E-09 Convergence criterion met
 Total energy in the final basis set = -688.2160755135

             Standard Nuclear Orientation (Angstroms)
    I     Atom           X                Y                Z
 ----------------------------------------------------------------
    1      C      -0.1482055595    -0.8753215661    -0.0296418824
    2      C      -1.1048400434     0.1545286712    -0.0676538134
    3      C       1.2952489291    -0.5843439879    -0.2819583162
    4      C      -0.7457109757     1.6062238587    -0.1660423145
    5      O       2.0991766040    -1.4976958727     0.3014255260
    6      O       1.7057722164     0.3277784603    -0.9595762343
    7      O       0.1487025413     1.9551291100     0.7746355763
    8      O      -1.2508192524     2.3759660423    -0.9460016506
    9      C       0.6590130041     3.2979920556     0.6892793993
   10      C       3.5081646077    -1.3461243342     0.0503564086
   11      C      -0.5737941542    -2.1997162501     0.1192997612
   12      C      -1.9291655268    -2.5040407108     0.2114670267
   13      C      -2.8755023477    -1.4838985372     0.1498314599
   14      C      -2.4619993514    -0.1616813710     0.0073536563
   15      H       1.1930724580     3.4289009160    -0.2531247312
   16      H       3.7151474923    -1.4218968011    -1.0183357201
   17      H      -3.9328036025    -1.7147906591     0.2124808706
   18      H      -0.1531613670     4.0231783680     0.7543839437
   19      H       1.3379382886     3.4030432880     1.5324717953
   20      H       3.9867411400    -2.1579141133     0.5935028042
   21      H       3.8574003063    -0.3795154283     0.4158562134
   22      H      -2.2443036114    -3.5354657361     0.3199692254
   23      H      -3.1891490274     0.6398876034    -0.0403937849
   24      H       0.1650641090    -2.9898477707     0.1416939621
 ----------------------------------------------------------------

    9    -688.2160755358      4.87E-09 Convergence criterion met
 Total energy in the final basis set = -688.2160755358
 Final energy is   -688.216075535791
 **  OPTIMIZATION CONVERGED  **

                    Orbital Energies (a.u.)
 --------------------------------------------------------------

 Alpha MOs
 -- Occupied --
-19.180 -19.171 -19.121 -19.115 -10.314 -10.308 -10.234 -10.224
-10.212 -10.211 -10.199 -10.198 -10.197 -10.197  -1.121  -1.113
 -1.033  -1.026  -0.887  -0.796  -0.787  -0.741  -0.729  -0.655
 -0.639  -0.594  -0.574  -0.553  -0.523  -0.503  -0.493  -0.489
 -0.486  -0.480  -0.463  -0.457  -0.435  -0.431  -0.418  -0.402
 -0.390  -0.382  -0.375  -0.372  -0.361  -0.323  -0.309  -0.298
 -0.293  -0.277  -0.270

          Ground-State Mulliken Net Atomic Charges

     Atom                 Charge (a.u.)
  ----------------------------------------
      1 C                     0.734335
      2 C                     0.359768
      3 C                    -0.398470
      4 C                    -0.627452
      5 O                    -0.061840
      6 O                    -0.210567
      7 O                    -0.006204
      8 O                    -0.215549
      9 C                    -0.245840
     10 C                    -0.237104
     11 C                    -0.098925
     12 C                    -0.209465
     13 C                    -0.207764
     14 C                    -0.311440
     15 H                     0.188371
     16 H                     0.188591
     17 H                     0.172598
     18 H                     0.169349
     19 H                     0.153897
     20 H                     0.159170
     21 H                     0.172805
     22 H                     0.173793
     23 H                     0.175693
     24 H                     0.182252
  ----------------------------------------
  Sum of atomic charges =     0.000000

                    Cartesian Multipole Moments
 -----------------------------------------------------------------
    Charge (ESU x 10^10)
                 0.0000
    Dipole Moment (Debye)
         X       0.9886      Y      -2.4165      Z       2.2021
       Tot       3.4156
    Quadrupole Moments (Debye-Ang)
        XX     -67.7647     XY       3.5128     YY     -73.3563
        XZ      -0.6873     YZ       6.4613     ZZ     -87.5586

 Total job time:  471.29s(wall), 8804.86s(cpu)
        *  Thank you very much for using Q-Chem.  Have a nice day.  *
