 Q-Chem 5.0, Q-Chem, Inc., Pleasanton, CA (2017)
 Q-Chem 5.0.0 for Intel X86 EM64T Linux

User input:
--------------------------------------------------------------
$molecule
0  1
C    0.304  -2.425   0.241
C   -0.187  -2.670   1.539
C    0.664  -1.037  -0.131
C   -0.223  -1.586   2.547
O    1.892  -1.027  -0.706
O   -0.050  -0.071   0.073
O    1.036  -1.102   2.698
O   -1.208  -1.281   3.197
C    1.131  -0.051   3.659
C    2.346   0.277  -1.069
C    0.337  -3.468  -0.713
C   -0.078  -4.750  -0.324
C   -0.556  -4.992   0.965
C   -0.619  -3.961   1.912
H    0.496   0.792   3.371
H    1.683   0.717  -1.820
H   -0.885  -5.997   1.223
H    0.862  -0.417   4.655
H    2.169   0.291   3.685
H    3.345   0.180  -1.503
H    2.413   0.921  -0.186
H   -0.050  -5.576  -1.034
C   -1.153  -4.262   3.286
C    0.800  -3.263  -2.130
H    0.377  -2.346  -2.553
H    0.472  -4.085  -2.776
H    1.893  -3.221  -2.170
H   -2.134  -3.796   3.422
H   -0.464  -3.904   4.057
H   -1.273  -5.340   3.441
$end

$opt
CONSTRAINT
tors    2    1    3    5    130.2
tors    1    2    4    7    -52.3
ENDCONSTRAINT
$end

$rem
JOBTYPE                   OPT
METHOD                    B3LYP
DFT_D                     D3_OP
BASIS                     STO-3G
GEOM_OPT_MAX_CYCLES       500
SYMMETRY                  False
THRESH                    12
SCF_CONVERGENCE           8
MAX_SUB_FILE_NUM          128
MEM_STATIC                400
MEM_TOTAL                 4000
$end

--------------------------------------------------------------

   15    -756.7774928998      6.43E-09 Convergence criterion met
 Total energy in the final basis set = -756.7774928998
   14    -756.8052606966      6.17E-09 Convergence criterion met
 Total energy in the final basis set = -756.8052606966
   14    -756.8078851384      2.94E-09 Convergence criterion met
 Total energy in the final basis set = -756.8078851384
   13    -756.8081981842      3.86E-09 Convergence criterion met
 Total energy in the final basis set = -756.8081981842
   11    -756.8082378774      5.47E-09 Convergence criterion met
 Total energy in the final basis set = -756.8082378774
   11    -756.8082555058      7.30E-09 Convergence criterion met
 Total energy in the final basis set = -756.8082555058
   11    -756.8082692788      2.36E-09 Convergence criterion met
 Total energy in the final basis set = -756.8082692788
   11    -756.8083014059      4.48E-09 Convergence criterion met
 **  OPTIMIZATION CONVERGED  **
 Total job time:  88.36s(wall), 2050.81s(cpu)
        *  Thank you very much for using Q-Chem.  Have a nice day.  *

User input: 2 of 3

nid03054 10.128.12
Q-Chem Developer Version! Running on 10.128.12.*
                  Welcome to Q-Chem
     A Quantum Leap Into The Future Of Chemistry

 Q-Chem 5.0, Q-Chem, Inc., Pleasanton, CA (2017)

 Yihan Shao,  Zhengting Gan,  E. Epifanovsky,  A. T. B. Gilbert,  M. Wormit,
 J. Kussmann,  A. W. Lange,  A. Behn,  Jia Deng,  Xintian Feng,  D. Ghosh,
 M. Goldey,  P. R. Horn,  L. D. Jacobson,  I. Kaliman,  T. Kus,  A. Landau,
 Jie Liu,  E. I. Proynov,  R. M. Richard,  R. P. Steele,  E. J. Sundstrom,
 H. L. Woodcock III,  P. M. Zimmerman,  D. Zuev,  B. Albrecht,  E. Alguire,
 S. A. Baeppler,  Z. Benda,  Y. A. Bernard,  E. J. Berquist,  K. B. Bravaya,
 D. Casanova,  Chun-Min Chang,  Yunqing Chen,  A. Chien,  K. D. Closser,
 M. P. Coons,  S. Dasgupta,  M. Diedenhofen,  Hainam Do,  R. G. Edgar,
 Po-Tung Fang,  S. Fatehi,  Qingguo Feng,  Qinghui Ge,  A. Ghysels,
 J. Gomes,  J. Gonthier,  A. Gunina,  M. W. D. Hanson-Heine,
 P. H. P. Harbach,  A. W. Hauser,  J. E. Herr,  E. G. Hohenstein,
 Z. C. Holden,  Kerwin Hui,  T.-C. Jagau,  Hyunjun Ji,  B. Kaduk,
 K. Khistyaev,  Jaehoon Kim,  P. Klunzinger,  K. Koh,  D. Kosenkov,
 T. Kowalczyk,  C. M. Krauter,  A. Kunitsa,  Ka Un Lao,  A. Laurent,
 K. V. Lawler,  Joonho Lee,  D. Lefrancois,  S. Lehtola,  D. S. Levine,
 Yi-Pei Li,  You-Sheng Lin,  Fenglai Liu,  E. Livshits,  A. Luenser,
 P. Manohar,  E. Mansoor,  S. F. Manzer,  Shan-Ping Mao,  Yuezhi Mao,
 N. Mardirossian,  A. V. Marenich,  L. A. Martinez-Martinez,  S. A. Maurer,
 N. J. Mayhall,  S. C. McKenzie,  J.-M. Mewes,  A. F. Morrison,  K. Nanda,
 T. S. Nguyen-Beck,  R. Olivares-Amaya,  J. A. Parkhill,  T. M. Perrine,
 F. Plasser,  S. Prager,  A. Prociuk,  D. R. Rehn,  F. Rob,  M. Schneider,
 N. Sergueev,  S. M. Sharada,  S. Sharma,  D. W. Small,  T. Stauch,
 T. Stein,  Yu-Chuan Su,  A. J. W. Thom,  T. Tsuchimochi,  L. Vogt,
 O. Vydrov,  M. A. Watson,  J. Wenzel,  M. de Wergifosse,  T. A. Wesolowski,
 A. White,  J. Witte,  A. Yamada,  Jun Yang,  K. Yao,  S. Yeganeh,
 S. R. Yost,  Zhi-Qiang You,  A. Zech,  Igor Ying Zhang,  Xing Zhang,
 Yan Zhao,  Ying Zhu,  B. R. Brooks,  G. K. L. Chan,  C. J. Cramer,
 M. S. Gordon,  W. J. Hehre,  A. Klamt,  M. W. Schmidt,  C. D. Sherrill,
 D. G. Truhlar,  A. Aspuru-Guzik,  R. Baer,  A. T. Bell,  N. A. Besley,
 Jeng-Da Chai,  A. Dreuw,  B. D. Dunietz,  T. R. Furlani,  Chao-Ping Hsu,
 Yousung Jung,  Jing Kong,  D. S. Lambrecht,  WanZhen Liang,  C. Ochsenfeld,
 V. A. Rassolov,  L. V. Slipchenko,  J. E. Subotnik,  T. Van Voorhis,
 J. M. Herbert,  A. I. Krylov,  P. M. W. Gill,  M. Head-Gordon

 Contributors to earlier versions of Q-Chem not listed above:
 R. D. Adamson,  B. Austin,  J. Baker,  G. J. O. Beran,  K. Brandhorst,
 S. T. Brown,  E. F. C. Byrd,  A. K. Chakraborty,  C.-L. Cheng,
 Siu Hung Chien,  D. M. Chipman,  D. L. Crittenden,  H. Dachsel,
 R. A. DiStasio Jr.,  R. J. Doerksen,  A. D. Dutoi,  L. Fusti-Molnar,
 W. A. Goddard III,  A. Golubeva-Zadorozhnaya,  S. R. Gwaltney,  G. Hawkins,
 A. Heyden,  S. Hirata,  G. Kedziora,  F. J. Keil,  C. Kelley,  Jihan Kim,
 R. A. King,  R. Z. Khaliullin,  P. P. Korambath,  W. Kurlancheek,
 A. M. Lee,  M. S. Lee,  S. V. Levchenko,  Ching Yeh Lin,  D. Liotard,
 R. C. Lochan,  I. Lotan,  P. E. Maslen,  N. Nair,  D. P. O'Neill,
 D. Neuhauser,  E. Neuscamman,  C. M. Oana,  R. Olson,  B. Peters,
 R. Peverati,  P. A. Pieniazek,  Y. M. Rhee,  J. Ritchie,  M. A. Rohrdanz,
 E. Rosta,  N. J. Russ,  H. F. Schaefer III,  N. E. Schultz,  N. Shenvi,
 A. C. Simmonett,  A. Sodt,  D. Stuck,  K. S. Thanthiriwatte,  V. Vanovschi,
 Tao Wang,  A. Warshel,  C. F. Williams,  Q. Wu,  X. Xu,  W. Zhang

 Please cite Q-Chem as follows:
 Y. Shao et al., Mol. Phys. 113, 184-215 (2015)
 DOI: 10.1080/00268976.2014.952696

 Q-Chem 5.0.0 for Intel X86 EM64T Linux

 Parts of Q-Chem use Armadillo 5.200.1 (Boston Tea Smuggler).
 http://arma.sourceforge.net/

 Q-Chem begins on Wed Oct  4 18:27:54 2017

Host: nid03054
0

     Scratch files written to /global/cscratch1/sd/junteng/scratch/18/opt_11n11-+.save//
The previous job contains 0 fragments, simply inherited here

Checking the input file for inconsistencies... 	...done.

--------------------------------------------------------------
User input:
--------------------------------------------------------------

$molecule
   read
$end

$rem
JOBTYPE                   OPT
METHOD                    B3LYP
DFT_D                     D3_OP
BASIS                     6-311++G(d,p)
GEOM_OPT_MAX_CYCLES       500
GEOM_OPT_TOL_GRADIENT     1
GEOM_OPT_TOL_DISPLACEMENT 1
GEOM_OPT_TOL_ENERGY       1
SYMMETRY                  False
THRESH                    12
SCF_CONVERGENCE           8
MAX_SUB_FILE_NUM          128
MEM_STATIC                400
MEM_TOTAL                 4000
$end

--------------------------------------------------------------

    5    -766.8749750264      7.12E-09 Convergence criterion met
 Total energy in the final basis set = -766.8749750264
    5    -766.8749750073      5.80E-09 Convergence criterion met
 Total energy in the final basis set = -766.8749750073
    5    -766.8749750223      5.43E-09 Convergence criterion met
 Total energy in the final basis set = -766.8749750223
    4    -766.8749750084      9.47E-09 Convergence criterion met
 Total energy in the final basis set = -766.8749750084
    4    -766.8749750189      9.19E-09 Convergence criterion met
 Total energy in the final basis set = -766.8749750189
    5    -766.8749750105      5.31E-09 Convergence criterion met
 Total energy in the final basis set = -766.8749750105
 Final energy is   -766.874975010512
        *  Thank you very much for using Q-Chem.  Have a nice day.  *
 Q-Chem 5.0, Q-Chem, Inc., Pleasanton, CA (2017)
 Q-Chem 5.0.0 for Intel X86 EM64T Linux

             Standard Nuclear Orientation (Angstroms)
    I     Atom           X                Y                Z
 ----------------------------------------------------------------
    1      C       0.2432472917    -0.7165781918    -0.0999747356
    2      C      -0.9799885654    -0.0231623330    -0.0481662155
    3      C       1.5015145912     0.0526548695    -0.3744509903
    4      C      -1.0034245686     1.4694885319    -0.1617654866
    5      O       2.4542546696    -0.2011691420     0.5416831765
    6      O       1.6581448078     0.7940211831    -1.3152104497
    7      O      -0.1133568002     2.0377540148     0.6787359770
    8      O      -1.7377526732     2.0977928977    -0.8839156079
    9      C       0.0536120177     3.4610735514     0.5475558212
   10      C       3.7173718762     0.4570654718     0.3342852755
   11      C       0.2810330813    -2.1183948842    -0.0063541577
   12      C      -0.9327113354    -2.7877611770     0.1610080768
   13      C      -2.1384673010    -2.1023514620     0.2280655023
   14      C      -2.1953765235    -0.7124049025     0.1136821196
   15      H       0.4429435485     3.6978587026    -0.4440082458
   16      H       4.1363845757     0.1817088812    -0.6348151541
   17      H      -3.0599827758    -2.6582207437     0.3652419727
   18      H      -0.8965469280     3.9747998220     0.6983566277
   19      H       0.7685035255     3.7405964201     1.3182423238
   20      H       4.3582239637     0.1137304377     1.1432120617
   21      H       3.5916608488     1.5399088644     0.3765761513
   22      H      -0.9313769684    -3.8703474791     0.2333319002
   23      C      -3.5316402578    -0.0118651100     0.1745705623
   24      C       1.5611850333    -2.9154432704    -0.1028364109
   25      H       2.1651905388    -2.6132179156    -0.9625785621
   26      H       1.3360647730    -3.9778818625    -0.2113905335
   27      H       2.1774044694    -2.7830386867     0.7889036825
   28      H      -3.8010003930     0.4041319957    -0.7984803334
   29      H      -3.5251334620     0.8209799688     0.8818888372
   30      H      -4.3107877856    -0.7121265961     0.4814583371
 ----------------------------------------------------------------

   15    -766.8749868929      8.75E-09 Convergence criterion met
 Total energy in the final basis set = -766.8749868929

                    Orbital Energies (a.u.)
 --------------------------------------------------------------

 Alpha MOs
 -- Occupied --
-19.178 -19.172 -19.120 -19.116 -10.312 -10.307 -10.233 -10.226
-10.205 -10.203 -10.201 -10.200 -10.187 -10.185 -10.175 -10.169
 -1.121  -1.113  -1.032  -1.027  -0.885  -0.808  -0.792  -0.748
 -0.732  -0.726  -0.674  -0.648  -0.620  -0.576  -0.568  -0.530
 -0.519  -0.513  -0.490  -0.487  -0.480  -0.476  -0.469  -0.440
 -0.436  -0.428  -0.423  -0.415  -0.412  -0.406  -0.395  -0.388
 -0.380  -0.372  -0.359  -0.358  -0.357  -0.320  -0.311  -0.298
 -0.287  -0.265  -0.253

          Ground-State Mulliken Net Atomic Charges

     Atom                 Charge (a.u.)
  ----------------------------------------
      1 C                     0.470198
      2 C                     0.499514
      3 C                    -0.828447
      4 C                    -0.498896
      5 O                     0.018193
      6 O                    -0.150112
      7 O                     0.012707
      8 O                    -0.188888
      9 C                    -0.222459
     10 C                    -0.215967
     11 C                     0.603781
     12 C                    -0.563759
     13 C                    -0.648866
     14 C                     0.533557
     15 H                     0.192486
     16 H                     0.187803
     17 H                     0.126283
     18 H                     0.171609
     19 H                     0.151988
     20 H                     0.157596
     21 H                     0.158402
     22 H                     0.129552
     23 C                    -0.566236
     24 C                    -0.567211
     25 H                     0.171329
     26 H                     0.149846
     27 H                     0.194569
     28 H                     0.204386
     29 H                     0.176356
     30 H                     0.140686
  ----------------------------------------
  Sum of atomic charges =     0.000000

                    Cartesian Multipole Moments
 -----------------------------------------------------------------
    Charge (ESU x 10^10)
                 0.0000
    Dipole Moment (Debye)
         X       1.6614      Y      -1.4495      Z       2.5008
       Tot       3.3339
    Quadrupole Moments (Debye-Ang)
        XX     -82.6693     XY       4.9600     YY     -83.9278
        XZ      -0.7146     YZ       6.2200     ZZ    -101.9874

 Frequency:        21.93                  53.65                  70.01
 Force Cnst:      0.0015                 0.0068                 0.0092
 Red. Mass:       5.3004                 3.9894                 3.1841
 IR Intens:        0.426                  0.063                  1.665
 Frequency:        79.73                 107.47                 114.16
 Force Cnst:      0.0118                 0.0078                 0.0122
 Red. Mass:       3.1548                 1.1395                 1.5927
 IR Intens:        5.531                  0.448                  0.106
 Frequency:       123.36                 130.22                 141.17
 Force Cnst:      0.0236                 0.0195                 0.0211
 Red. Mass:       2.6368                 1.9532                 1.7986
 IR Intens:        0.610                  2.981                  2.733
 Frequency:       148.73                 161.60                 220.54
 Force Cnst:      0.0211                 0.0173                 0.1436
 Red. Mass:       1.6215                 1.1273                 5.0110
 IR Intens:        0.008                  0.260                  0.351
 Frequency:       241.73                 253.52                 291.65
 Force Cnst:      0.1987                 0.1699                 0.1626
 Red. Mass:       5.7723                 4.4873                 3.2447
 IR Intens:        0.959                  3.707                  1.976
 Frequency:       303.84                 317.25                 322.39
 Force Cnst:      0.2683                 0.2488                 0.2086
 Red. Mass:       4.9326                 4.1962                 3.4058
 IR Intens:        4.281                 13.849                  4.308
 Frequency:       367.67                 402.12                 423.98
 Force Cnst:      0.4518                 0.3722                 0.5189
 Red. Mass:       5.6728                 3.9069                 4.8996
 IR Intens:        5.476                  6.477                  1.173
 Frequency:       486.67                 496.16                 558.15
 Force Cnst:      0.5995                 0.5437                 0.8015
 Red. Mass:       4.2958                 3.7488                 4.3666
 IR Intens:        1.351                  9.937                  1.371
 Frequency:       616.24                 714.04                 724.10
 Force Cnst:      1.0637                 1.8617                 1.9247
 Red. Mass:       4.7542                 6.1974                 6.2304
 IR Intens:        7.014                  1.818                  0.468
 Frequency:       737.42                 799.43                 805.28
 Force Cnst:      1.9933                 2.1248                 2.3226
 Red. Mass:       6.2212                 5.6430                 6.0789
 IR Intens:       22.730                  8.284                 10.118
 Frequency:       815.72                 832.34                 888.63
 Force Cnst:      2.9470                 0.5224                 2.6396
 Red. Mass:       7.5170                 1.2798                 5.6734
 IR Intens:        8.476                 20.126                  4.645
 Frequency:       922.76                 971.21                 988.21
 Force Cnst:      2.1848                 0.7392                 1.4438
 Red. Mass:       4.3550                 1.3301                 2.5094
 IR Intens:        9.787                  0.111                  5.783
 Frequency:       999.24                1046.21                1054.81
 Force Cnst:      2.8990                 0.9895                 1.6493
 Red. Mass:       4.9279                 1.5344                 2.5160
 IR Intens:       11.125                  1.623                 62.864
 Frequency:      1061.21                1064.84                1135.45
 Force Cnst:      1.0554                 1.0103                 3.9843
 Red. Mass:       1.5906                 1.5123                 5.2452
 IR Intens:        4.571                  3.437                 95.596
 Frequency:      1169.29                1170.28                1185.35
 Force Cnst:      1.0362                 1.0413                 1.2966
 Red. Mass:       1.2864                 1.2904                 1.5662
 IR Intens:        0.466                  2.158                100.644
 Frequency:      1203.31                1212.23                1223.37
 Force Cnst:      1.5506                 1.3843                 2.7207
 Red. Mass:       1.8176                 1.5989                 3.0854
 IR Intens:       20.339                 11.243                284.949
 Frequency:      1272.48                1289.07                1293.11
 Force Cnst:      1.9770                 5.9675                 3.5639
 Red. Mass:       2.0724                 6.0952                 3.6174
 IR Intens:       36.931                174.886                179.151
 Frequency:      1317.00                1421.93                1422.81
 Force Cnst:      6.1839                 1.4860                 1.4776
 Red. Mass:       6.0512                 1.2474                 1.2388
 IR Intens:       55.555                  1.640                  4.457
 Frequency:      1432.45                1466.56                1469.57
 Force Cnst:      3.5109                 1.5378                 1.5836
 Red. Mass:       2.9041                 1.2135                 1.2445
 IR Intens:       52.432                 17.244                 37.205
 Frequency:      1481.04                1482.31                1483.76
 Force Cnst:      1.4245                 1.3531                 1.3570
 Red. Mass:       1.1022                 1.0452                 1.0461
 IR Intens:        4.091                  2.351                 18.774
 Frequency:      1486.56                1490.07                1495.49
 Force Cnst:      1.4650                 1.4324                 1.3785
 Red. Mass:       1.1252                 1.0950                 1.0461
 IR Intens:        0.548                  9.905                 13.796
 Frequency:      1496.93                1502.74                1504.13
 Force Cnst:      1.3894                 1.5222                 3.1464
 Red. Mass:       1.0524                 1.1441                 2.3605
 IR Intens:        4.856                 13.289                 16.008
 Frequency:      1608.76                1633.28                1771.31
 Force Cnst:      8.1351                11.1062                21.8423
 Red. Mass:       5.3349                 7.0664                11.8156
 IR Intens:       12.100                  2.305                163.611
 Frequency:      1782.41                3037.48                3040.71
 Force Cnst:     21.9420                 5.6351                 5.6422
 Red. Mass:      11.7223                 1.0366                 1.0357
 IR Intens:      356.386                 25.732                 22.393
 Frequency:      3049.71                3050.50                3094.22
 Force Cnst:      5.6420                 5.6435                 6.2013
 Red. Mass:       1.0296                 1.0293                 1.0993
 IR Intens:       27.320                 41.043                 13.077
 Frequency:      3098.12                3110.63                3111.18
 Force Cnst:      6.2203                 6.2850                 6.2893
 Red. Mass:       1.0999                 1.1024                 1.1028
 IR Intens:       11.348                 15.699                 14.772
 Frequency:      3122.85                3125.68                3156.86
 Force Cnst:      6.3607                 6.3728                 6.4965
 Red. Mass:       1.1070                 1.1071                 1.1064
 IR Intens:       17.820                 13.494                 13.237
 Frequency:      3157.83                3160.68                3178.11
 Force Cnst:      6.4995                 6.3994                 6.5132
 Red. Mass:       1.1062                 1.0873                 1.0945
 IR Intens:       12.537                  8.444                 20.207

 STANDARD THERMODYNAMIC QUANTITIES AT   298.15 K  AND     1.00 ATM

   This Molecule has  0 Imaginary Frequencies
   Zero point vibrational energy:      150.501 kcal/mol

   Atom    1 Element C  Has Mass   12.00000
   Atom    2 Element C  Has Mass   12.00000
   Atom    3 Element C  Has Mass   12.00000
   Atom    4 Element C  Has Mass   12.00000
   Atom    5 Element O  Has Mass   15.99491
   Atom    6 Element O  Has Mass   15.99491
   Atom    7 Element O  Has Mass   15.99491
   Atom    8 Element O  Has Mass   15.99491
   Atom    9 Element C  Has Mass   12.00000
   Atom   10 Element C  Has Mass   12.00000
   Atom   11 Element C  Has Mass   12.00000
   Atom   12 Element C  Has Mass   12.00000
   Atom   13 Element C  Has Mass   12.00000
   Atom   14 Element C  Has Mass   12.00000
   Atom   15 Element H  Has Mass    1.00783
   Atom   16 Element H  Has Mass    1.00783
   Atom   17 Element H  Has Mass    1.00783
   Atom   18 Element H  Has Mass    1.00783
   Atom   19 Element H  Has Mass    1.00783
   Atom   20 Element H  Has Mass    1.00783
   Atom   21 Element H  Has Mass    1.00783
   Atom   22 Element H  Has Mass    1.00783
   Atom   23 Element C  Has Mass   12.00000
   Atom   24 Element C  Has Mass   12.00000
   Atom   25 Element H  Has Mass    1.00783
   Atom   26 Element H  Has Mass    1.00783
   Atom   27 Element H  Has Mass    1.00783
   Atom   28 Element H  Has Mass    1.00783
   Atom   29 Element H  Has Mass    1.00783
   Atom   30 Element H  Has Mass    1.00783
   Molecular Mass:   222.089260 amu
   Principal axes and moments of inertia in amu*Bohr^2:
                             1           2           3
    Eigenvalues --     2868.19596  3199.79832  5578.34961
          X               0.99994     0.01107    -0.00024
          Y              -0.01106     0.99990     0.00889
          Z               0.00034    -0.00888     0.99996
   Rotational Symmetry Number is   1
   The Molecule is an Asymmetric Top
   Translational Enthalpy:        0.889 kcal/mol
   Rotational Enthalpy:           0.889 kcal/mol
   Vibrational Enthalpy:        159.350 kcal/mol
   gas constant (RT):             0.592 kcal/mol
   Translational Entropy:        42.096  cal/mol.K
   Rotational Entropy:           32.304  cal/mol.K
   Vibrational Entropy:          58.971  cal/mol.K

   Total Enthalpy:              161.720 kcal/mol
   Total Entropy:               133.372  cal/mol.K

 Total job time:  8313.57s(wall), 47490.48s(cpu)
        *  Thank you very much for using Q-Chem.  Have a nice day.  *
