 Q-Chem 4.4, Q-Chem, Inc., Pleasanton, CA (2016)
 Q-Chem 4.3.0 for Intel X86 EM64T Linux

User input:
--------------------------------------------------------------
$molecule
0  1
C    0.711  -1.958   0.589
C   -0.299  -1.995   1.756
C    1.089  -0.603   0.022
C   -0.528  -0.668   2.454
O    2.255  -0.726  -0.682
O    0.458   0.435   0.138
O    0.672  -0.221   2.944
O   -1.603  -0.140   2.687
C    0.580   1.027   3.634
C    2.698   0.490  -1.286
C   -0.031  -2.720  -0.508
C   -0.144  -4.202  -0.153
C   -1.210  -4.188   0.944
C   -1.515  -2.680   1.086
O   -1.391  -2.278  -0.299
H    1.639  -2.461   0.888
H    0.068  -2.659   2.552
H   -0.050   0.928   4.523
H    1.951   0.864  -1.993
H   -0.511  -4.776  -1.011
H    0.804  -4.638   0.173
H   -2.087  -4.746   0.595
H   -0.869  -4.649   1.876
H    1.587   1.311   3.953
H    0.196   1.807   2.969
H    3.619   0.278  -1.837
H    2.918   1.240  -0.519
H    0.300  -2.531  -1.532
C   -2.908  -2.427   1.624
H   -3.642  -3.061   1.114
H   -2.968  -2.632   2.696
H   -3.235  -1.402   1.426
$end

$opt
CONSTRAINT
tors    2    1    3    5    162.3
tors    1    2    4    7    -60.0
ENDCONSTRAINT
$end

$rem
JOBTYPE                   OPT
METHOD                    B3LYP
DFT_D                     EMPIRICAL_GRIMME3
BASIS                     6-31G*
GEOM_OPT_MAX_CYCLES       500
GEOM_OPT_TOL_GRADIENT     5
GEOM_OPT_TOL_DISPLACEMENT 5
GEOM_OPT_TOL_ENERGY       5
SYMMETRY                  False
THRESH                    12
SCF_CONVERGENCE           8
MAX_SUB_FILE_NUM          128
MEM_STATIC                400
MEM_TOTAL                 4000
$end

--------------------------------------------------------------

   15    -804.9530445917      4.41E-09 Convergence criterion met
 Total energy in the final basis set = -804.9530445917
   13    -804.9592549390      3.05E-09 Convergence criterion met
 Total energy in the final basis set = -804.9592549390
   12    -804.9600691276      3.62E-09 Convergence criterion met
 Total energy in the final basis set = -804.9600691276
   12    -804.9602973827      2.80E-09 Convergence criterion met
 Total energy in the final basis set = -804.9602973827
   10    -804.9603572883      8.57E-09 Convergence criterion met
 Total energy in the final basis set = -804.9603572883
   10    -804.9603906793      5.13E-09 Convergence criterion met
 Total energy in the final basis set = -804.9603906793
   10    -804.9604136317      3.90E-09 Convergence criterion met
 Total energy in the final basis set = -804.9604136317
   10    -804.9604482604      5.89E-09 Convergence criterion met
 **  OPTIMIZATION CONVERGED  **
 Total job time:  298.88s(wall), 5063.48s(cpu)
        *  Thank you very much for using Q-Chem.  Have a nice day.  *

User input: 2 of 2

                  Welcome to Q-Chem
     A Quantum Leap Into The Future Of Chemistry

 Q-Chem 4.4, Q-Chem, Inc., Pleasanton, CA (2016)

 Y. Shao,  Z. Gan,  E. Epifanovsky,  A. T. B. Gilbert,  M. Wormit,
 J. Kussmann,  A. W. Lange,  A. Behn,  J. Deng,  X. Feng,  D. Ghosh,
 M. Goldey,  P. R. Horn,  L. D. Jacobson,  I. Kaliman,  R. Z. Khaliullin,
 T. Kus,  A. Landau,  J. Liu,  E. I. Proynov,  Y. M. Rhee,  R. M. Richard,
 M. A. Rohrdanz,  R. P. Steele,  E. J. Sundstrom,  H. L. Woodcock III,
 P. M. Zimmerman,  D. Zuev,  B. Albrecht,  E. Alguire,  B. Austin,
 S. A. Baeppler,  G. J. O. Beran,  Y. A. Bernard,  E. Berquist,
 K. Brandhorst,  K. B. Bravaya,  S. T. Brown,  D. Casanova,  C.-M. Chang,
 Y. Chen,  S. H. Chien,  K. D. Closser,  M. P. Coons,  D. L. Crittenden,
 S. Dasgupta,  M. Diedenhofen,  R. A. DiStasio Jr.,  H. Do,  A. D. Dutoi,
 R. G. Edgar,  P.-T. Fang,  S. Fatehi,  Q. Feng,  L. Fusti-Molnar,
 A. Ghysels,  A. Golubeva-Zadorozhnaya,  J. Gomes,  A. Gunina,
 M. W. D. Hanson-Heine,  P. H. P. Harbach,  A. W. Hauser,  E. G. Hohenstein,
 Z. C. Holden,  K. Hui,  T.-C. Jagau,  H. Ji,  B. Kaduk,  K. Khistyaev,
 Jaehoon Kim,  Jihan Kim,  R. A. King,  P. Klunzinger,  D. Kosenkov,
 T. Kowalczyk,  C. M. Krauter,  A. Kunitsa,  K. U. Lao,  A. Laurent,
 K. V. Lawler,  D. Lefrancois,  S. Lehtola,  S. V. Levchenko,  C. Y. Lin,
 Y.-S. Lin,  F. Liu,  E. Livshits,  R. C. Lochan,  A. Luenser,  P. Manohar,
 S. F. Manzer,  S.-P. Mao,  Y. Mao,  N. Mardirossian,  A. V. Marenich,
 L. A. Martinez-Martinez,  S. A. Maurer,  N. J. Mayhall,  J.-M. Mewes,
 A. F. Morrison,  K. Nanda,  C. M. Oana,  R. Olivares-Amaya,  D. P. O'Neill,
 J. A. Parkhill,  T. M. Perrine,  R. Peverati,  P. A. Pieniazek,  F. Plasser,
 A. Prociuk,  D. R. Rehn,  E. Rosta,  N. J. Russ,  N. Sergueev,
 S. M. Sharada,  S. Sharma,  D. W. Small,  A. Sodt,  T. Stauch,  T. Stein,
 D. Stuck,  Y.-C. Su,  A. J. W. Thom,  T. Tsuchimochi,  L. Vogt,  O. Vydrov,
 T. Wang,  M. A. Watson,  J. Wenzel,  A. White,  C. F. Williams,
 V. Vanovschi,  S. Yeganeh,  S. R. Yost,  Z.-Q. You,  I. Y. Zhang,  X. Zhang,
 Y. Zhao,  B. R. Brooks,  G. K. L. Chan,  D. M. Chipman,  C. J. Cramer,
 W. A. Goddard III,  M. S. Gordon,  W. J. Hehre,  A. Klamt,
 H. F. Schaefer III,  M. W. Schmidt,  C. D. Sherrill,  D. G. Truhlar,
 A. Warshel,  X. Xu,  A. Aspuru-Guzik,  R. Baer,  A. T. Bell,  N. A. Besley,
 J.-D. Chai,  A. Dreuw,  B. D. Dunietz,  T. R. Furlani,  S. R. Gwaltney,
 C.-P. Hsu,  Y. Jung,  J. Kong,  D. S. Lambrecht,  W. Liang,  C. Ochsenfeld,
 V. A. Rassolov,  L. V. Slipchenko,  J. E. Subotnik,  T. Van Voorhis,
 J. M. Herbert,  A. I. Krylov,  P. M. W. Gill,  M. Head-Gordon

 Contributors to earlier versions of Q-Chem not listed above:
 R. D. Adamson,  J. Baker,  E. F. C. Byrd,  A. K. Chakraborty,  C.-L. Cheng,
 H. Dachsel,  R. J. Doerksen,  G. Hawkins,  A. Heyden,  S. Hirata,
 G. Kedziora,  F. J. Keil,  C. Kelley,  P. P. Korambath,  W. Kurlancheek,
 A. M. Lee,  M. S. Lee,  D. Liotard,  I. Lotan,  P. E. Maslen,  N. Nair,
 D. Neuhauser,  R. Olson,  B. Peters,  J. Ritchie,  N. E. Schultz,
 N. Shenvi,  A. C. Simmonett,  K. S. Thanthiriwatte,  Q. Wu,  W. Zhang

 Please cite Q-Chem as follows:
 Y. Shao et al., Mol. Phys. 113, 184-215 (2015)
 DOI: 10.1080/00268976.2014.952696

 Q-Chem 4.3.0 for Intel X86 EM64T Linux

 Parts of Q-Chem use Armadillo 5.200.1 (Boston Tea Smuggler).
 http://arma.sourceforge.net/

 Q-Chem begins on Mon Oct  2 21:34:32 2017

Host: nid03798
0

     Scratch files written to /global/cscratch1/sd/junteng/scratch/14/opt_1101.save//

Checking the input file for inconsistencies... 	...done.

--------------------------------------------------------------
User input:
--------------------------------------------------------------

$molecule
   read
$end

$rem
JOBTYPE                   OPT
METHOD                    B3LYP
DFT_D                     EMPIRICAL_GRIMME3
BASIS                     6-31G*
GEOM_OPT_MAX_CYCLES       500
GEOM_OPT_TOL_GRADIENT     5
GEOM_OPT_TOL_DISPLACEMENT 5
GEOM_OPT_TOL_ENERGY       5
SYMMETRY                  False
THRESH                    12
SCF_CONVERGENCE           8
MAX_SUB_FILE_NUM          128
MEM_STATIC                400
MEM_TOTAL                 4000
$end
--------------------------------------------------------------

   10    -804.9604940542      6.95E-09 Convergence criterion met
 Total energy in the final basis set = -804.9604940542
    9    -804.9604946315      6.54E-09 Convergence criterion met
 Total energy in the final basis set = -804.9604946315
    8    -804.9604948578      5.76E-09 Convergence criterion met
 Total energy in the final basis set = -804.9604948578
    8    -804.9604951048      4.51E-09 Convergence criterion met
 Total energy in the final basis set = -804.9604951048
    8    -804.9604953072      3.62E-09 Convergence criterion met
 Total energy in the final basis set = -804.9604953072
    7    -804.9604953727      2.99E-09 Convergence criterion met
 Total energy in the final basis set = -804.9604953727

             Standard Nuclear Orientation (Angstroms)
    I     Atom           X                Y                Z
 ----------------------------------------------------------------
    1      C      -0.0378596343     0.8140095491     0.6736221926
    2      C       0.6587968613    -0.5839975130     0.6166909794
    3      C      -1.3068942559     0.9288249344    -0.1468535134
    4      C      -0.2592792041    -1.7170821142     0.1800936588
    5      O      -2.0052966069     2.0224210098     0.2367377876
    6      O      -1.6487303779     0.2073597848    -1.0577144394
    7      O      -1.3271510993    -1.7538014167     1.0176928692
    8      O      -0.0775200703    -2.5281087397    -0.6966589523
    9      C      -2.3526315374    -2.6880446333     0.6441067818
   10      C      -3.1998597632     2.2777053544    -0.5225294592
   11      C       1.0537759379     1.6952671111    -0.0039075217
   12      C       2.2818274304     1.8138666836     0.9281489990
   13      C       2.9473367669     0.4263914418     0.7083847123
   14      C       1.9358363862    -0.2696597327    -0.2444968290
   15      O       1.5053601291     0.8468519567    -1.0568345747
   16      H      -0.2538816616     1.1417377275     1.6925745693
   17      H       0.9598786919    -0.8571133714     1.6344824969
   18      H      -1.9556900723    -3.7060023574     0.6028472693
   19      H      -2.9583106087     2.4375616026    -1.5771237539
   20      H       2.9320423829     2.6291709067     0.5994178663
   21      H       1.9996430659     2.0055159700     1.9682074263
   22      H       3.9089729202     0.5280847063     0.1970683540
   23      H       3.1160426191    -0.1314540072     1.6347453154
   24      H      -3.1209271617    -2.6054756603     1.4143394277
   25      H      -2.7572580586    -2.4182972616    -0.3356147136
   26      H      -3.6388618273     3.1758148964    -0.0867037260
   27      H      -3.8902928650     1.4330984954    -0.4434864806
   28      H       0.6785076865     2.6350891299    -0.4119415116
   29      C       2.5284577949    -1.3521022326    -1.1208124770
   30      H       3.4135616504    -0.9542490756    -1.6280343967
   31      H       2.8282081004    -2.2127250292    -0.5144490655
   32      H       1.8055965064    -1.6955244400    -1.8590172728
 ----------------------------------------------------------------

    5    -804.9604953823      6.76E-09 Convergence criterion met
 Total energy in the final basis set = -804.9604953823
 Final energy is   -804.960495382288
 **  OPTIMIZATION CONVERGED  **

                    Orbital Energies (a.u.)
 --------------------------------------------------------------

 Alpha MOs
 -- Occupied --
-19.195 -19.182 -19.145 -19.138 -19.128 -10.315 -10.309 -10.245
-10.244 -10.243 -10.231 -10.212 -10.209 -10.191 -10.187 -10.165
 -1.105  -1.092  -1.050  -1.016  -1.006  -0.820  -0.783  -0.770
 -0.738  -0.713  -0.677  -0.641  -0.593  -0.584  -0.559  -0.541
 -0.521  -0.500  -0.493  -0.479  -0.478  -0.471  -0.465  -0.458
 -0.448  -0.426  -0.415  -0.410  -0.405  -0.397  -0.381  -0.368
 -0.362  -0.359  -0.355  -0.348  -0.348  -0.340  -0.323  -0.317
 -0.305  -0.292  -0.275  -0.261  -0.257

          Ground-State Mulliken Net Atomic Charges

     Atom                 Charge (a.u.)
  ----------------------------------------
      1 C                    -0.188360
      2 C                    -0.204031
      3 C                     0.638980
      4 C                     0.650029
      5 O                    -0.463645
      6 O                    -0.476776
      7 O                    -0.466882
      8 O                    -0.483633
      9 C                    -0.219432
     10 C                    -0.219312
     11 C                     0.101259
     12 C                    -0.285463
     13 C                    -0.287501
     14 C                     0.309825
     15 O                    -0.484675
     16 H                     0.162961
     17 H                     0.164811
     18 H                     0.168436
     19 H                     0.174165
     20 H                     0.153790
     21 H                     0.139483
     22 H                     0.149475
     23 H                     0.136957
     24 H                     0.156149
     25 H                     0.180544
     26 H                     0.164617
     27 H                     0.170407
     28 H                     0.149917
     29 C                    -0.474925
     30 H                     0.141264
     31 H                     0.143318
     32 H                     0.198247
  ----------------------------------------
  Sum of atomic charges =     0.000000

                    Cartesian Multipole Moments
 -----------------------------------------------------------------
    Charge (ESU x 10^10)
                 0.0000
    Dipole Moment (Debye)
         X      -0.8258      Y       2.0062      Z       3.0976
       Tot       3.7817
    Quadrupole Moments (Debye-Ang)
        XX     -81.0711     XY      -0.9561     YY     -89.9652
        XZ       2.0732     YZ      -4.2654     ZZ     -97.0053

 Total job time:  242.69s(wall), 5391.85s(cpu)
        *  Thank you very much for using Q-Chem.  Have a nice day.  *
