 Q-Chem 5.0, Q-Chem, Inc., Pleasanton, CA (2017)
 Q-Chem 5.0.1 for Intel X86 EM64T Linux

User input:
--------------------------------------------------------------
$molecule
0  1
C        +3.40576000        +2.89793000        +3.50559000
C        +3.80932000        +1.43952000        +3.91835000
C        +4.51314000        +3.25279000        +2.48473000
C        +5.81376000        +3.57005000        +3.24819000
C        +6.22642000        +2.14656000        +3.72264000
C        +5.12729000        +1.26006000        +3.07226000
O        +4.81146000        +1.98968000        +1.87588000
H        +6.55540000        +3.99087000        +2.56769000
H        +5.66542000        +4.27793000        +4.06615000
H        +7.20488000        +1.86299000        +3.33125000
H        +6.25665000        +2.04043000        +4.80892000
H        +4.21576000        +4.05248000        +1.83900000
H        +5.42645000        +0.23809000        +2.96750000
H        +3.99999000        +1.36400000        +4.96851000
H        +3.05782000        +0.69949000        +3.73807000
H        +2.43633000        +2.92116000        +3.05329000
H        +3.33858000        +3.57922000        +4.32792000
@C        +0.22270000        +1.04488000        +0.58595000
@C        +0.62626000        -0.41353000        +0.99871000
@C        +1.33008000        +1.39974000        -0.43491000
@C        +2.63070000        +1.71700000        +0.32855000
@C        +3.04336000        +0.29351000        +0.80300000
@C        +1.94423000        -0.59299000        +0.15262000
@O        +1.62840000        +0.13663000        -1.04376000
@H        +3.37234000        +2.13782000        -0.35195000
@H        +2.48236000        +2.42488000        +1.14651000
@H        +4.02182000        +0.00994000        +0.41161000
@H        +3.07359000        +0.18738000        +1.88928000
@H        +1.03270000        +2.19943000        -1.08064000
@H        +2.24339000        -1.61496000        +0.04786000
@H        +0.81693000        -0.48905000        +2.04887000
@H        -0.12524000        -1.15356000        +0.81843000
@H        -0.74673000        +1.06811000        +0.13365000
@H        +0.15552000        +1.72617000        +1.40828000
$end

$rem
JOBTYPE                   SP
METHOD                    B3LYP
DFT_D                     d3_op
BASIS                     6-311++G(d,p)
SYMMETRY                  False
THRESH                    12
SCF_CONVERGENCE           8
MAX_SUB_FILE_NUM          128
MEM_STATIC                400
MEM_TOTAL                 4000
$end
--------------------------------------------------------------

             Standard Nuclear Orientation (Angstroms)
    I     Atom           X                Y                Z
 ----------------------------------------------------------------
    1      C       3.4057600000     2.8979300000     3.5055900000
    2      C       3.8093200000     1.4395200000     3.9183500000
    3      C       4.5131400000     3.2527900000     2.4847300000
    4      C       5.8137600000     3.5700500000     3.2481900000
    5      C       6.2264200000     2.1465600000     3.7226400000
    6      C       5.1272900000     1.2600600000     3.0722600000
    7      O       4.8114600000     1.9896800000     1.8758800000
    8      H       6.5554000000     3.9908700000     2.5676900000
    9      H       5.6654200000     4.2779300000     4.0661500000
   10      H       7.2048800000     1.8629900000     3.3312500000
   11      H       6.2566500000     2.0404300000     4.8089200000
   12      H       4.2157600000     4.0524800000     1.8390000000
   13      H       5.4264500000     0.2380900000     2.9675000000
   14      H       3.9999900000     1.3640000000     4.9685100000
   15      H       3.0578200000     0.6994900000     3.7380700000
   16      H       2.4363300000     2.9211600000     3.0532900000
   17      H       3.3385800000     3.5792200000     4.3279200000
   18      GH      0.2227000000     1.0448800000     0.5859500000
   19      GH      0.6262600000    -0.4135300000     0.9987100000
   20      GH      1.3300800000     1.3997400000    -0.4349100000
   21      GH      2.6307000000     1.7170000000     0.3285500000
   22      GH      3.0433600000     0.2935100000     0.8030000000
   23      GH      1.9442300000    -0.5929900000     0.1526200000
   24      GH      1.6284000000     0.1366300000    -1.0437600000
   25      GH      3.3723400000     2.1378200000    -0.3519500000
   26      GH      2.4823600000     2.4248800000     1.1465100000
   27      GH      4.0218200000     0.0099400000     0.4116100000
   28      GH      3.0735900000     0.1873800000     1.8892800000
   29      GH      1.0327000000     2.1994300000    -1.0806400000
   30      GH      2.2433900000    -1.6149600000     0.0478600000
   31      GH      0.8169300000    -0.4890500000     2.0488700000
   32      GH     -0.1252400000    -1.1535600000     0.8184300000
   33      GH     -0.7467300000     1.0681100000     0.1336500000
   34      GH      0.1555200000     1.7261700000     1.4082800000
 ----------------------------------------------------------------

   12    -309.9603002067      6.28E-09 Convergence criterion met
 Total energy in the final basis set = -309.96030021

                    Orbital Energies (a.u.)
 --------------------------------------------------------------

 Alpha MOs
 -- Occupied --
-19.123 -10.221 -10.218 -10.168 -10.167 -10.165 -10.163  -1.050
 -0.798  -0.749  -0.747  -0.614  -0.578  -0.573  -0.527  -0.478
 -0.465  -0.431  -0.406  -0.395  -0.364  -0.360  -0.351  -0.339
 -0.317  -0.304  -0.264

          Ground-State Mulliken Net Atomic Charges

     Atom                 Charge (a.u.)
  ----------------------------------------
      1 C                    -0.358228
      2 C                    -0.366598
      3 C                     0.160975
      4 C                    -0.600310
      5 C                    -0.531525
      6 C                     0.179031
      7 O                    -0.012774
      8 H                     0.167754
      9 H                     0.125771
     10 H                     0.168822
     11 H                     0.123224
     12 H                     0.215558
     13 H                     0.220952
     14 H                     0.160637
     15 H                     0.139598
     16 H                     0.126126
     17 H                     0.171048
     18 GH                   -0.004165
     19 GH                   -0.008622
     20 GH                   -0.042880
     21 GH                   -0.008266
     22 GH                   -0.002461
     23 GH                   -0.056712
     24 GH                   -0.000314
     25 GH                    0.009877
     26 GH                    0.005992
     27 GH                    0.012558
     28 GH                    0.003326
     29 GH                   -0.000569
     30 GH                   -0.000887
     31 GH                    0.001003
     32 GH                   -0.000089
     33 GH                    0.000101
     34 GH                    0.002048
  ----------------------------------------
  Sum of atomic charges =     0.000000

                    Cartesian Multipole Moments
 -----------------------------------------------------------------
    Charge (ESU x 10^10)
                 0.0000
    Dipole Moment (Debye)
         X      -0.0176      Y       0.5117      Z       1.7062
       Tot       1.7814
    Quadrupole Moments (Debye-Ang)
        XX     -43.3674     XY       1.5387     YY     -38.7546
        XZ       8.1403     YZ       3.8096     ZZ     -36.2312

 Total job time:  146.97s(wall), 584.90s(cpu)
        *  Thank you very much for using Q-Chem.  Have a nice day.  *
