 Q-Chem 5.0, Q-Chem, Inc., Pleasanton, CA (2017)
 Q-Chem 5.0.1 for Intel X86 EM64T Linux

User input:
--------------------------------------------------------------
$molecule
0  1
--
0  1
C        +0.22270000        +1.04488000        +0.58595000
C        +0.62626000        -0.41353000        +0.99871000
C        +1.33008000        +1.39974000        -0.43491000
C        +2.63070000        +1.71700000        +0.32855000
C        +3.04336000        +0.29351000        +0.80300000
C        +1.94423000        -0.59299000        +0.15262000
O        +1.62840000        +0.13663000        -1.04376000
H        +3.37234000        +2.13782000        -0.35195000
H        +2.48236000        +2.42488000        +1.14651000
H        +4.02182000        +0.00994000        +0.41161000
H        +3.07359000        +0.18738000        +1.88928000
H        +1.03270000        +2.19943000        -1.08064000
H        +2.24339000        -1.61496000        +0.04786000
H        +0.81693000        -0.48905000        +2.04887000
H        -0.12524000        -1.15356000        +0.81843000
H        -0.74673000        +1.06811000        +0.13365000
H        +0.15552000        +1.72617000        +1.40828000
--
0  1
C        +4.28619000        +3.41048000        +4.31315000
C        +4.68975000        +1.95207000        +4.72591000
C        +5.39357000        +3.76534000        +3.29229000
C        +6.69419000        +4.08260000        +4.05575000
C        +7.10685000        +2.65911000        +4.53020000
C        +6.00772000        +1.77261000        +3.87982000
O        +5.69189000        +2.50223000        +2.68344000
H        +7.43583000        +4.50342000        +3.37525000
H        +6.54585000        +4.79048000        +4.87371000
H        +8.08531000        +2.37554000        +4.13881000
H        +7.13708000        +2.55298000        +5.61648000
H        +5.09619000        +4.56503000        +2.64656000
H        +6.30688000        +0.75064000        +3.77506000
H        +4.88042000        +1.87655000        +5.77607000
H        +3.93825000        +1.21204000        +4.54563000
H        +3.31676000        +3.43371000        +3.86085000
H        +4.21901000        +4.09177000        +5.13548000
$end

$rem
JOBTYPE                   SP
METHOD                    B3LYP
DFT_D                     d3_op
BASIS                     6-311++G(d,p)
SYMMETRY                  False
THRESH                    12
SCF_CONVERGENCE           8
MAX_SUB_FILE_NUM          128
MEM_STATIC                400
MEM_TOTAL                 4000
$end
--------------------------------------------------------------

             Standard Nuclear Orientation (Angstroms)
    I     Atom           X                Y                Z
 ----------------------------------------------------------------
    1      C       3.5681777510    -0.5020858196     1.2593339717
    2      C       3.6155118256     1.0242532678     0.9012282683
    3      C       3.2639849358    -1.1381604066    -0.1180719506
    4      C       1.7745519061    -0.9226921808    -0.4501866255
    5      C       1.7649231177     0.6012473283    -0.7651953829
    6      C       3.2707832940     0.9654395088    -0.6359191814
    7      O       3.9175704589    -0.2528792316    -1.0368990411
    8      H       1.4966284270    -1.5097524001    -1.3267243888
    9      H       1.1105215310    -1.2041720720     0.3695634239
   10      H       1.4270136044     0.7964220484    -1.7843646711
   11      H       1.1372697149     1.1829654140    -0.0870826025
   12      H       3.5415337951    -2.1711096655    -0.1478822278
   13      H       3.5277056114     1.8614631947    -1.1613014434
   14      H       2.8852699141     1.5820688022     1.4493914968
   15      H       4.5401282390     1.5098418446     1.1340065994
   16      H       4.5061490857    -0.8410669297     1.6469046491
   17      H       2.8553427633    -0.7482449395     2.0183911589
   18      C      -2.4287008912    -0.4503595838     1.4458952952
   19      C      -2.3813668166     1.0759795037     1.0877895918
   20      C      -2.7328937063    -1.0864341708     0.0684893730
   21      C      -4.2223267361    -0.8709659450    -0.2636253019
   22      C      -4.2319555245     0.6529735641    -0.5786340593
   23      C      -2.7260953481     1.0171657447    -0.4493578578
   24      O      -2.0793081833    -0.2011529957    -0.8503377175
   25      H      -4.5002502152    -1.4580261643    -1.1401630653
   26      H      -4.8863571112    -1.1524458361     0.5561247474
   27      H      -4.5698650378     0.8481482842    -1.5978033475
   28      H      -4.8596089273     1.2346916499     0.0994787211
   29      H      -2.4553448471    -2.1193834297     0.0386790958
   30      H      -2.4691730307     1.9131894306    -0.9747401198
   31      H      -3.1116087281     1.6337950380     1.6359528204
   32      H      -1.4567504032     1.5615680805     1.3205679229
   33      H      -1.4907295564    -0.7893406938     1.8334659726
   34      H      -3.1415358789    -0.6965187037     2.2049524824
 ----------------------------------------------------------------

   13    -619.9210234791      6.29E-09 Convergence criterion met
 Total energy in the final basis set = -619.92102348

                    Orbital Energies (a.u.)
 --------------------------------------------------------------

 Alpha MOs
 -- Occupied --
-19.126 -19.117 -10.224 -10.221 -10.215 -10.212 -10.171 -10.170
-10.168 -10.167 -10.160 -10.160 -10.159 -10.159  -1.053  -1.044
 -0.801  -0.791  -0.752  -0.750  -0.742  -0.741  -0.617  -0.608
 -0.581  -0.577  -0.572  -0.567  -0.530  -0.521  -0.481  -0.471
 -0.468  -0.459  -0.434  -0.425  -0.409  -0.399  -0.398  -0.389
 -0.368  -0.363  -0.358  -0.355  -0.353  -0.345  -0.342  -0.333
 -0.320  -0.311  -0.307  -0.298  -0.267  -0.258

          Ground-State Mulliken Net Atomic Charges

     Atom                 Charge (a.u.)
  ----------------------------------------
      1 C                    -0.453197
      2 C                    -0.433651
      3 C                     0.081805
      4 C                    -0.337621
      5 C                    -0.322551
      6 C                     0.070072
      7 O                    -0.144350
      8 H                     0.181253
      9 H                     0.071232
     10 H                     0.172376
     11 H                     0.061651
     12 H                     0.230090
     13 H                     0.232562
     14 H                     0.108829
     15 H                     0.175197
     16 H                     0.168945
     17 H                     0.116225
     18 C                    -0.325123
     19 C                    -0.392562
     20 C                     0.115493
     21 C                    -0.558516
     22 C                    -0.479611
     23 C                     0.161012
     24 O                    -0.081984
     25 H                     0.168738
     26 H                     0.124792
     27 H                     0.167405
     28 H                     0.125387
     29 H                     0.221187
     30 H                     0.225412
     31 H                     0.131013
     32 H                     0.143618
     33 H                     0.131605
     34 H                     0.143267
  ----------------------------------------
  Sum of atomic charges =    -0.000000

                    Cartesian Multipole Moments
 -----------------------------------------------------------------
    Charge (ESU x 10^10)
                -0.0000
    Dipole Moment (Debye)
         X      -2.7418      Y       0.5759      Z       2.4004
       Tot       3.6893
    Quadrupole Moments (Debye-Ang)
        XX     -91.9545     XY       1.0805     YY     -81.5331
        XZ       3.8489     YZ      -2.4411     ZZ     -90.1368

 Total job time:  130.59s(wall), 519.51s(cpu)
        *  Thank you very much for using Q-Chem.  Have a nice day.  *
