 Q-Chem 5.0, Q-Chem, Inc., Pleasanton, CA (2017)
 Q-Chem 5.0.1 for Intel X86 EM64T Linux

User input:
--------------------------------------------------------------
$molecule
0  1
--
0  1
C        +0.22270000        +1.04488000        +0.58595000
C        +0.62626000        -0.41353000        +0.99871000
C        +1.33008000        +1.39974000        -0.43491000
C        +2.63070000        +1.71700000        +0.32855000
C        +3.04336000        +0.29351000        +0.80300000
C        +1.94423000        -0.59299000        +0.15262000
O        +1.62840000        +0.13663000        -1.04376000
H        +3.37234000        +2.13782000        -0.35195000
H        +2.48236000        +2.42488000        +1.14651000
H        +4.02182000        +0.00994000        +0.41161000
H        +3.07359000        +0.18738000        +1.88928000
H        +1.03270000        +2.19943000        -1.08064000
H        +2.24339000        -1.61496000        +0.04786000
H        +0.81693000        -0.48905000        +2.04887000
H        -0.12524000        -1.15356000        +0.81843000
H        -0.74673000        +1.06811000        +0.13365000
H        +0.15552000        +1.72617000        +1.40828000
--
0  1
C        +3.40576000        +2.89793000        +3.50559000
C        +3.80932000        +1.43952000        +3.91835000
C        +4.51314000        +3.25279000        +2.48473000
C        +5.81376000        +3.57005000        +3.24819000
C        +6.22642000        +2.14656000        +3.72264000
C        +5.12729000        +1.26006000        +3.07226000
O        +4.81146000        +1.98968000        +1.87588000
H        +6.55540000        +3.99087000        +2.56769000
H        +5.66542000        +4.27793000        +4.06615000
H        +7.20488000        +1.86299000        +3.33125000
H        +6.25665000        +2.04043000        +4.80892000
H        +4.21576000        +4.05248000        +1.83900000
H        +5.42645000        +0.23809000        +2.96750000
H        +3.99999000        +1.36400000        +4.96851000
H        +3.05782000        +0.69949000        +3.73807000
H        +2.43633000        +2.92116000        +3.05329000
H        +3.33858000        +3.57922000        +4.32792000
$end

$rem
JOBTYPE                   SP
METHOD                    B3LYP
DFT_D                     d3_op
BASIS                     6-311++G(d,p)
SYMMETRY                  False
THRESH                    12
SCF_CONVERGENCE           8
MAX_SUB_FILE_NUM          128
MEM_STATIC                400
MEM_TOTAL                 4000
$end
--------------------------------------------------------------

             Standard Nuclear Orientation (Angstroms)
    I     Atom           X                Y                Z
 ----------------------------------------------------------------
    1      C       2.9402225590    -0.5545311531     1.2037558143
    2      C       2.9888779011     0.9830724519     0.8978162277
    3      C       2.6056833044    -1.1409605704    -0.1885642815
    4      C       1.1112390684    -0.9069808328    -0.4835683006
    5      C       1.1037729772     0.6270012785    -0.7454041231
    6      C       2.6138393573     0.9792868878    -0.6333437446
    7      O       3.2459995776    -0.2274596890    -1.0889260015
    8      H       0.8130261706    -1.4619334544    -1.3742401073
    9      H       0.4618394163    -1.2135627809     0.3388944723
   10      H       0.7470682663     0.8590399888    -1.7503428449
   11      H       0.4926861668     1.1878289718    -0.0353147789
   12      H       2.8769519454    -2.1735677404    -0.2595709739
   13      H       2.8653269245     1.8917654229    -1.1323737745
   14      H       2.2725519682     1.5250122688     1.4792564548
   15      H       3.9205072299     1.4558658800     1.1289670387
   16      H       3.8837288601    -0.9112369893     1.5607799786
   17      H       2.2410343219    -0.8234745034     1.9677591709
   18      C      -1.7532785112    -0.4966566318     1.4438833633
   19      C      -1.7046231691     1.0409469733     1.1379437767
   20      C      -2.0878177657    -1.0830860491     0.0515632675
   21      C      -3.5822620018    -0.8491063114    -0.2434407516
   22      C      -3.5897280930     0.6848757998    -0.5052765741
   23      C      -2.0796617129     1.0371614092    -0.3932161956
   24      O      -1.4475014925    -0.1695851676    -0.8487984525
   25      H      -3.8804748996    -1.4040589331    -1.1341125583
   26      H      -4.2316616538    -1.1556882595     0.5790220212
   27      H      -3.9464328039     0.9169145101    -1.5102152960
   28      H      -4.2008149034     1.2457034932     0.2048127701
   29      H      -1.8165491248    -2.1156932190    -0.0194434249
   30      H      -1.8281741457     1.9496399442    -0.8922462255
   31      H      -2.4209491020     1.5828867901     1.7193840038
   32      H      -0.7729938403     1.5137404013     1.3690945877
   33      H      -0.8097722100    -0.8533624680     1.8009075276
   34      H      -2.4524667483    -0.7655999820     2.2078867199
 ----------------------------------------------------------------

   13    -619.9121206720      6.41E-09 Convergence criterion met
 Total energy in the final basis set = -619.91212067

                    Orbital Energies (a.u.)
 --------------------------------------------------------------

 Alpha MOs
 -- Occupied --
-19.126 -19.112 -10.227 -10.224 -10.209 -10.206 -10.173 -10.172
-10.171 -10.170 -10.157 -10.156 -10.151 -10.151  -1.057  -1.039
 -0.804  -0.786  -0.756  -0.754  -0.736  -0.736  -0.621  -0.603
 -0.585  -0.580  -0.568  -0.562  -0.534  -0.515  -0.489  -0.476
 -0.462  -0.451  -0.438  -0.419  -0.413  -0.403  -0.394  -0.384
 -0.374  -0.366  -0.357  -0.351  -0.347  -0.346  -0.339  -0.326
 -0.324  -0.310  -0.306  -0.291  -0.270  -0.248

          Ground-State Mulliken Net Atomic Charges

     Atom                 Charge (a.u.)
  ----------------------------------------
      1 C                    -0.440336
      2 C                    -0.422142
      3 C                    -0.062132
      4 C                    -0.235173
      5 C                    -0.188907
      6 C                    -0.117163
      7 O                    -0.121709
      8 H                     0.209726
      9 H                     0.034659
     10 H                     0.207860
     11 H                     0.020911
     12 H                     0.223549
     13 H                     0.222988
     14 H                     0.092517
     15 H                     0.179920
     16 H                     0.172525
     17 H                     0.102738
     18 C                    -0.354313
     19 C                    -0.394054
     20 C                     0.131463
     21 C                    -0.597403
     22 C                    -0.533855
     23 C                     0.177962
     24 O                     0.026147
     25 H                     0.169545
     26 H                     0.127477
     27 H                     0.170910
     28 H                     0.124680
     29 H                     0.223172
     30 H                     0.227889
     31 H                     0.161198
     32 H                     0.152849
     33 H                     0.133608
     34 H                     0.172893
  ----------------------------------------
  Sum of atomic charges =     0.000000

                    Cartesian Multipole Moments
 -----------------------------------------------------------------
    Charge (ESU x 10^10)
                 0.0000
    Dipole Moment (Debye)
         X      -3.0980      Y       0.4862      Z       2.3514
       Tot       3.9195
    Quadrupole Moments (Debye-Ang)
        XX     -92.4840     XY       0.9322     YY     -81.7442
        XZ       3.8553     YZ      -2.0946     ZZ     -90.5028

 Total job time:  164.74s(wall), 655.54s(cpu)
        *  Thank you very much for using Q-Chem.  Have a nice day.  *
