 Q-Chem 5.0, Q-Chem, Inc., Pleasanton, CA (2017)
 Q-Chem 5.0.1 for Intel X86 EM64T Linux

User input:
--------------------------------------------------------------
$molecule
0  1
C        +0.22270000        +1.04488000        +0.58595000
C        +0.62626000        -0.41353000        +0.99871000
C        +1.33008000        +1.39974000        -0.43491000
C        +2.63070000        +1.71700000        +0.32855000
C        +3.04336000        +0.29351000        +0.80300000
C        +1.94423000        -0.59299000        +0.15262000
O        +1.62840000        +0.13663000        -1.04376000
H        +3.37234000        +2.13782000        -0.35195000
H        +2.48236000        +2.42488000        +1.14651000
H        +4.02182000        +0.00994000        +0.41161000
H        +3.07359000        +0.18738000        +1.88928000
H        +1.03270000        +2.19943000        -1.08064000
H        +2.24339000        -1.61496000        +0.04786000
H        +0.81693000        -0.48905000        +2.04887000
H        -0.12524000        -1.15356000        +0.81843000
H        -0.74673000        +1.06811000        +0.13365000
H        +0.15552000        +1.72617000        +1.40828000
@C        +4.28619000        +3.41048000        +4.31315000
@C        +4.68975000        +1.95207000        +4.72591000
@C        +5.39357000        +3.76534000        +3.29229000
@C        +6.69419000        +4.08260000        +4.05575000
@C        +7.10685000        +2.65911000        +4.53020000
@C        +6.00772000        +1.77261000        +3.87982000
@O        +5.69189000        +2.50223000        +2.68344000
@H        +7.43583000        +4.50342000        +3.37525000
@H        +6.54585000        +4.79048000        +4.87371000
@H        +8.08531000        +2.37554000        +4.13881000
@H        +7.13708000        +2.55298000        +5.61648000
@H        +5.09619000        +4.56503000        +2.64656000
@H        +6.30688000        +0.75064000        +3.77506000
@H        +4.88042000        +1.87655000        +5.77607000
@H        +3.93825000        +1.21204000        +4.54563000
@H        +3.31676000        +3.43371000        +3.86085000
@H        +4.21901000        +4.09177000        +5.13548000
$end

$rem
JOBTYPE                   SP
METHOD                    B3LYP
DFT_D                     d3_op
BASIS                     6-311++G(d,p)
SYMMETRY                  False
THRESH                    12
SCF_CONVERGENCE           8
MAX_SUB_FILE_NUM          128
MEM_STATIC                400
MEM_TOTAL                 4000
$end
--------------------------------------------------------------

             Standard Nuclear Orientation (Angstroms)
    I     Atom           X                Y                Z
 ----------------------------------------------------------------
    1      C       0.2227000000     1.0448800000     0.5859500000
    2      C       0.6262600000    -0.4135300000     0.9987100000
    3      C       1.3300800000     1.3997400000    -0.4349100000
    4      C       2.6307000000     1.7170000000     0.3285500000
    5      C       3.0433600000     0.2935100000     0.8030000000
    6      C       1.9442300000    -0.5929900000     0.1526200000
    7      O       1.6284000000     0.1366300000    -1.0437600000
    8      H       3.3723400000     2.1378200000    -0.3519500000
    9      H       2.4823600000     2.4248800000     1.1465100000
   10      H       4.0218200000     0.0099400000     0.4116100000
   11      H       3.0735900000     0.1873800000     1.8892800000
   12      H       1.0327000000     2.1994300000    -1.0806400000
   13      H       2.2433900000    -1.6149600000     0.0478600000
   14      H       0.8169300000    -0.4890500000     2.0488700000
   15      H      -0.1252400000    -1.1535600000     0.8184300000
   16      H      -0.7467300000     1.0681100000     0.1336500000
   17      H       0.1555200000     1.7261700000     1.4082800000
   18      GH      4.2861900000     3.4104800000     4.3131500000
   19      GH      4.6897500000     1.9520700000     4.7259100000
   20      GH      5.3935700000     3.7653400000     3.2922900000
   21      GH      6.6941900000     4.0826000000     4.0557500000
   22      GH      7.1068500000     2.6591100000     4.5302000000
   23      GH      6.0077200000     1.7726100000     3.8798200000
   24      GH      5.6918900000     2.5022300000     2.6834400000
   25      GH      7.4358300000     4.5034200000     3.3752500000
   26      GH      6.5458500000     4.7904800000     4.8737100000
   27      GH      8.0853100000     2.3755400000     4.1388100000
   28      GH      7.1370800000     2.5529800000     5.6164800000
   29      GH      5.0961900000     4.5650300000     2.6465600000
   30      GH      6.3068800000     0.7506400000     3.7750600000
   31      GH      4.8804200000     1.8765500000     5.7760700000
   32      GH      3.9382500000     1.2120400000     4.5456300000
   33      GH      3.3167600000     3.4337100000     3.8608500000
   34      GH      4.2190100000     4.0917700000     5.1354800000
 ----------------------------------------------------------------

   12    -309.9595668339      6.21E-09 Convergence criterion met
 Total energy in the final basis set = -309.95956683

                    Orbital Energies (a.u.)
 --------------------------------------------------------------

 Alpha MOs
 -- Occupied --
-19.123 -10.221 -10.218 -10.168 -10.167 -10.165 -10.163  -1.050
 -0.798  -0.749  -0.747  -0.614  -0.578  -0.574  -0.527  -0.478
 -0.465  -0.431  -0.406  -0.395  -0.364  -0.360  -0.351  -0.339
 -0.317  -0.304  -0.264

          Ground-State Mulliken Net Atomic Charges

     Atom                 Charge (a.u.)
  ----------------------------------------
      1 C                    -0.453037
      2 C                    -0.433228
      3 C                     0.076492
      4 C                    -0.346417
      5 C                    -0.311096
      6 C                     0.061748
      7 O                    -0.141060
      8 H                     0.178052
      9 H                     0.077913
     10 H                     0.168893
     11 H                     0.070950
     12 H                     0.232353
     13 H                     0.234940
     14 H                     0.111921
     15 H                     0.177626
     16 H                     0.170804
     17 H                     0.118706
     18 GH                    0.006045
     19 GH                    0.010869
     20 GH                   -0.015160
     21 GH                    0.000432
     22 GH                   -0.002001
     23 GH                   -0.017873
     24 GH                    0.005050
     25 GH                   -0.000232
     26 GH                    0.000165
     27 GH                   -0.000164
     28 GH                    0.000071
     29 GH                    0.001732
     30 GH                    0.001973
     31 GH                   -0.000607
     32 GH                    0.008129
     33 GH                    0.006731
     34 GH                   -0.000720
  ----------------------------------------
  Sum of atomic charges =     0.000000

                    Cartesian Multipole Moments
 -----------------------------------------------------------------
    Charge (ESU x 10^10)
                 0.0000
    Dipole Moment (Debye)
         X      -0.0137      Y       0.5166      Z       1.7205
       Tot       1.7965
    Quadrupole Moments (Debye-Ang)
        XX     -43.2270     XY      -0.0576     YY     -40.6239
        XZ       2.7745     YZ      -0.8655     ZZ     -46.2405

 Total job time:  113.63s(wall), 452.02s(cpu)
        *  Thank you very much for using Q-Chem.  Have a nice day.  *
