 Q-Chem 5.0, Q-Chem, Inc., Pleasanton, CA (2017)
 Q-Chem 5.0.1 for Intel X86 EM64T Linux

User input:
--------------------------------------------------------------
$molecule
0  1
--
0  1
C        +0.22270000        +1.04488000        +0.58595000
C        +0.62626000        -0.41353000        +0.99871000
C        +1.33008000        +1.39974000        -0.43491000
C        +2.63070000        +1.71700000        +0.32855000
C        +3.04336000        +0.29351000        +0.80300000
C        +1.94423000        -0.59299000        +0.15262000
O        +1.62840000        +0.13663000        -1.04376000
H        +3.37234000        +2.13782000        -0.35195000
H        +2.48236000        +2.42488000        +1.14651000
H        +4.02182000        +0.00994000        +0.41161000
H        +3.07359000        +0.18738000        +1.88928000
H        +1.03270000        +2.19943000        -1.08064000
C        +2.35450000        -2.01267000        -0.16812000
H        +3.25743000        -2.00195000        -0.74215000
H        +1.57951000        -2.48932000        -0.73123000
H        +2.51687000        -2.55129000        +0.74206000
H        -0.74673000        +1.06811000        +0.13365000
H        +0.15552000        +1.72617000        +1.40828000
H        +0.81693000        -0.48905000        +2.04887000
H        -0.12524000        -1.15356000        +0.81843000
--
0  1
C        +3.62162000        +2.72018000        +3.36636000
C        +4.02518000        +1.26177000        +3.77912000
C        +4.72900000        +3.07504000        +2.34550000
C        +6.02962000        +3.39230000        +3.10896000
C        +6.44228000        +1.96881000        +3.58341000
C        +5.34315000        +1.08231000        +2.93303000
O        +5.02732000        +1.81193000        +1.73665000
H        +6.77126000        +3.81312000        +2.42846000
H        +5.88128000        +4.10018000        +3.92692000
H        +7.42074000        +1.68524000        +3.19202000
H        +6.47251000        +1.86268000        +4.66969000
H        +4.43162000        +3.87473000        +1.69977000
C        +5.75342000        -0.33737000        +2.61229000
H        +6.65635000        -0.32665000        +2.03826000
H        +4.97843000        -0.81402000        +2.04918000
H        +5.91579000        -0.87599000        +3.52247000
H        +2.65219000        +2.74341000        +2.91406000
H        +3.55444000        +3.40147000        +4.18869000
H        +4.21585000        +1.18625000        +4.82928000
H        +3.27368000        +0.52174000        +3.59884000
$end

$rem
JOBTYPE                   SP
METHOD                    B3LYP
DFT_D                     d3_op
BASIS                     6-311++G(d,p)
SYMMETRY                  False
THRESH                    12
SCF_CONVERGENCE           8
MAX_SUB_FILE_NUM          128
MEM_STATIC                400
MEM_TOTAL                 4000
$end
--------------------------------------------------------------

             Standard Nuclear Orientation (Angstroms)
    I     Atom           X                Y                Z
 ----------------------------------------------------------------
    1      C       2.8823765940    -1.5268277667     0.7866133595
    2      C       2.9291980866    -0.0388672320     1.2805489974
    3      C       2.5005777063    -1.3511240941    -0.7025908080
    4      C       0.9987150697    -1.0187130732    -0.7977170273
    5      C       0.9908322295     0.4436409139    -0.2655765050
    6      C       2.5055051390     0.7113410053    -0.0395990956
    7      O       3.1165682217    -0.1045914358    -1.0516639148
    8      H       0.6693844827    -1.0635027890    -1.8368199374
    9      H       0.3742989732    -1.6994520902    -0.2156033436
   10      H       0.6034644489     1.1385474755    -1.0125926506
   11      H       0.4056091526     0.5726293770     0.6471433835
   12      H       2.7641023813    -2.2101424974    -1.2835798972
   13      C       2.9405512194     2.1539222907    -0.1675876334
   14      H       2.5947193459     2.5493855278    -1.0997448560
   15      H       4.0085079140     2.2089724052    -0.1310420737
   16      H       2.5262591748     2.7241669170     0.6374504538
   17      H       3.8349323893    -2.0027902679     0.8915257136
   18      H       2.2065281245    -2.1464952579     1.3380994355
   19      H       2.2345904054     0.1361862438     2.0753891037
   20      H       3.8701567878     0.2680716050     1.6870988739
   21      C      -1.8115471357    -1.3938947805     0.9850468881
   22      C      -1.7647256431     0.0940657542     1.4789825260
   23      C      -2.1933460234    -1.2181911078    -0.5041572793
   24      C      -3.6952086600    -0.8857800869    -0.5992834987
   25      C      -3.7030915002     0.5765739001    -0.0671429764
   26      C      -2.1884185907     0.8442739916     0.1588344330
   27      O      -1.5773555080     0.0283415504    -0.8532303862
   28      H      -4.0245392471    -0.9305698027    -1.6383864088
   29      H      -4.3196247566    -1.5665191039    -0.0171698150
   30      H      -4.0904592808     1.2714804617    -0.8141591220
   31      H      -4.2883145771     0.7055623633     0.8455769121
   32      H      -1.9298213484    -2.0772095111    -1.0851463686
   33      C      -1.7533725103     2.2868552770     0.0308458952
   34      H      -2.0992043838     2.6823185140    -0.9013113274
   35      H      -0.6854158157     2.3419053915     0.0673914549
   36      H      -2.1676645549     2.8570999033     0.8358839824
   37      H      -0.8589913404    -1.8698572816     1.0899592422
   38      H      -2.4873956052    -2.0135622716     1.5365329641
   39      H      -2.4593333244     0.2691192300     2.2738226324
   40      H      -0.8237669419     0.4010045913     1.8855324025
 ----------------------------------------------------------------

   13    -698.5814264457      6.90E-09 Convergence criterion met
 Total energy in the final basis set = -698.58142645

                    Orbital Energies (a.u.)
 --------------------------------------------------------------

 Alpha MOs
 -- Occupied --
-19.122 -19.109 -10.231 -10.221 -10.214 -10.205 -10.170 -10.170
-10.169 -10.168 -10.157 -10.156 -10.156 -10.151 -10.149 -10.148
 -1.055  -1.039  -0.804  -0.789  -0.781  -0.766  -0.755  -0.737
 -0.689  -0.676  -0.623  -0.605  -0.581  -0.567  -0.563  -0.546
 -0.509  -0.495  -0.492  -0.478  -0.465  -0.451  -0.447  -0.432
 -0.423  -0.413  -0.412  -0.399  -0.394  -0.383  -0.382  -0.371
 -0.366  -0.354  -0.351  -0.348  -0.343  -0.338  -0.332  -0.324
 -0.320  -0.307  -0.304  -0.290  -0.268  -0.248

          Ground-State Mulliken Net Atomic Charges

     Atom                 Charge (a.u.)
  ----------------------------------------
      1 C                    -0.571654
      2 C                    -0.171145
      3 C                     0.014514
      4 C                    -0.172897
      5 C                    -0.117996
      6 C                    -0.201070
      7 O                    -0.039594
      8 H                     0.215259
      9 H                     0.039028
     10 H                     0.214197
     11 H                    -0.123821
     12 H                     0.237593
     13 C                    -0.528874
     14 H                     0.147112
     15 H                     0.164119
     16 H                     0.149717
     17 H                     0.171098
     18 H                     0.112879
     19 H                     0.122810
     20 H                     0.170246
     21 C                    -0.386405
     22 C                    -0.424547
     23 C                     0.203209
     24 C                    -0.679470
     25 C                    -0.464655
     26 C                     0.295351
     27 O                     0.081880
     28 H                     0.162749
     29 H                     0.130547
     30 H                     0.159040
     31 H                     0.134568
     32 H                     0.235024
     33 C                    -0.386504
     34 H                     0.159115
     35 H                     0.123336
     36 H                     0.144696
     37 H                     0.115836
     38 H                     0.178476
     39 H                     0.171508
     40 H                     0.214725
  ----------------------------------------
  Sum of atomic charges =     0.000000

                    Cartesian Multipole Moments
 -----------------------------------------------------------------
    Charge (ESU x 10^10)
                 0.0000
    Dipole Moment (Debye)
         X      -2.7642      Y      -0.5974      Z       2.2264
       Tot       3.5992
    Quadrupole Moments (Debye-Ang)
        XX    -104.6323     XY       0.0506     YY     -95.7101
        XZ       3.3758     YZ       1.5047     ZZ    -103.2692

 Total job time:  258.05s(wall), 1024.38s(cpu)
        *  Thank you very much for using Q-Chem.  Have a nice day.  *
