 Q-Chem 5.0, Q-Chem, Inc., Pleasanton, CA (2017)
 Q-Chem 5.0.1 for Intel X86 EM64T Linux

User input:
--------------------------------------------------------------
$molecule
0  1
C        +4.56175000        +3.18357000        +4.13541000
C        +4.96531000        +1.72516000        +4.54817000
C        +5.66913000        +3.53843000        +3.11455000
C        +6.96975000        +3.85569000        +3.87801000
C        +7.38241000        +2.43220000        +4.35246000
C        +6.28328000        +1.54570000        +3.70208000
O        +5.96745000        +2.27532000        +2.50570000
H        +7.71139000        +4.27651000        +3.19751000
H        +6.82141000        +4.56357000        +4.69597000
H        +8.36087000        +2.14863000        +3.96107000
H        +7.41264000        +2.32607000        +5.43874000
H        +5.37175000        +4.33812000        +2.46882000
C        +6.69355000        +0.12602000        +3.38134000
H        +7.59648000        +0.13674000        +2.80731000
H        +5.91856000        -0.35063000        +2.81823000
H        +6.85592000        -0.41260000        +4.29152000
H        +3.59232000        +3.20680000        +3.68311000
H        +4.49457000        +3.86486000        +4.95774000
H        +5.15598000        +1.64964000        +5.59833000
H        +4.21381000        +0.98513000        +4.36789000
@C        +0.22270000        +1.04488000        +0.58595000
@C        +0.62626000        -0.41353000        +0.99871000
@C        +1.33008000        +1.39974000        -0.43491000
@C        +2.63070000        +1.71700000        +0.32855000
@C        +3.04336000        +0.29351000        +0.80300000
@C        +1.94423000        -0.59299000        +0.15262000
@O        +1.62840000        +0.13663000        -1.04376000
@H        +3.37234000        +2.13782000        -0.35195000
@H        +2.48236000        +2.42488000        +1.14651000
@H        +4.02182000        +0.00994000        +0.41161000
@H        +3.07359000        +0.18738000        +1.88928000
@H        +1.03270000        +2.19943000        -1.08064000
@C        +2.35450000        -2.01267000        -0.16812000
@H        +3.25743000        -2.00195000        -0.74215000
@H        +1.57951000        -2.48932000        -0.73123000
@H        +2.51687000        -2.55129000        +0.74206000
@H        -0.74673000        +1.06811000        +0.13365000
@H        +0.15552000        +1.72617000        +1.40828000
@H        +0.81693000        -0.48905000        +2.04887000
@H        -0.12524000        -1.15356000        +0.81843000
$end

$rem
JOBTYPE                   SP
METHOD                    B3LYP
DFT_D                     d3_op
BASIS                     6-311++G(d,p)
SYMMETRY                  False
THRESH                    12
SCF_CONVERGENCE           8
MAX_SUB_FILE_NUM          128
MEM_STATIC                400
MEM_TOTAL                 4000
$end
--------------------------------------------------------------

             Standard Nuclear Orientation (Angstroms)
    I     Atom           X                Y                Z
 ----------------------------------------------------------------
    1      C       4.5617500000     3.1835700000     4.1354100000
    2      C       4.9653100000     1.7251600000     4.5481700000
    3      C       5.6691300000     3.5384300000     3.1145500000
    4      C       6.9697500000     3.8556900000     3.8780100000
    5      C       7.3824100000     2.4322000000     4.3524600000
    6      C       6.2832800000     1.5457000000     3.7020800000
    7      O       5.9674500000     2.2753200000     2.5057000000
    8      H       7.7113900000     4.2765100000     3.1975100000
    9      H       6.8214100000     4.5635700000     4.6959700000
   10      H       8.3608700000     2.1486300000     3.9610700000
   11      H       7.4126400000     2.3260700000     5.4387400000
   12      H       5.3717500000     4.3381200000     2.4688200000
   13      C       6.6935500000     0.1260200000     3.3813400000
   14      H       7.5964800000     0.1367400000     2.8073100000
   15      H       5.9185600000    -0.3506300000     2.8182300000
   16      H       6.8559200000    -0.4126000000     4.2915200000
   17      H       3.5923200000     3.2068000000     3.6831100000
   18      H       4.4945700000     3.8648600000     4.9577400000
   19      H       5.1559800000     1.6496400000     5.5983300000
   20      H       4.2138100000     0.9851300000     4.3678900000
   21      GH      0.2227000000     1.0448800000     0.5859500000
   22      GH      0.6262600000    -0.4135300000     0.9987100000
   23      GH      1.3300800000     1.3997400000    -0.4349100000
   24      GH      2.6307000000     1.7170000000     0.3285500000
   25      GH      3.0433600000     0.2935100000     0.8030000000
   26      GH      1.9442300000    -0.5929900000     0.1526200000
   27      GH      1.6284000000     0.1366300000    -1.0437600000
   28      GH      3.3723400000     2.1378200000    -0.3519500000
   29      GH      2.4823600000     2.4248800000     1.1465100000
   30      GH      4.0218200000     0.0099400000     0.4116100000
   31      GH      3.0735900000     0.1873800000     1.8892800000
   32      GH      1.0327000000     2.1994300000    -1.0806400000
   33      GH      2.3545000000    -2.0126700000    -0.1681200000
   34      GH      3.2574300000    -2.0019500000    -0.7421500000
   35      GH      1.5795100000    -2.4893200000    -0.7312300000
   36      GH      2.5168700000    -2.5512900000     0.7420600000
   37      GH     -0.7467300000     1.0681100000     0.1336500000
   38      GH      0.1555200000     1.7261700000     1.4082800000
   39      GH      0.8169300000    -0.4890500000     2.0488700000
   40      GH     -0.1252400000    -1.1535600000     0.8184300000
 ----------------------------------------------------------------

   13    -349.2962048377      2.61E-09 Convergence criterion met
 Total energy in the final basis set = -349.29620484

                    Orbital Energies (a.u.)
 --------------------------------------------------------------

 Alpha MOs
 -- Occupied --
-19.119 -10.225 -10.216 -10.166 -10.166 -10.163 -10.162 -10.154
 -1.049  -0.798  -0.775  -0.748  -0.684  -0.615  -0.575  -0.556
 -0.503  -0.482  -0.465  -0.441  -0.418  -0.405  -0.392  -0.377
 -0.360  -0.348  -0.344  -0.336  -0.316  -0.301  -0.262

          Ground-State Mulliken Net Atomic Charges

     Atom                 Charge (a.u.)
  ----------------------------------------
      1 C                    -0.420032
      2 C                    -0.378502
      3 C                     0.205522
      4 C                    -0.658443
      5 C                    -0.417189
      6 C                     0.278120
      7 O                    -0.057669
      8 H                     0.165029
      9 H                     0.126448
     10 H                     0.152118
     11 H                     0.140892
     12 H                     0.232095
     13 C                    -0.350205
     14 H                     0.153345
     15 H                     0.142933
     16 H                     0.137719
     17 H                     0.126161
     18 H                     0.149276
     19 H                     0.146355
     20 H                     0.158021
     21 GH                   -0.000476
     22 GH                    0.001015
     23 GH                   -0.011018
     24 GH                    0.014333
     25 GH                   -0.029153
     26 GH                   -0.009508
     27 GH                    0.000088
     28 GH                    0.002858
     29 GH                   -0.002411
     30 GH                    0.007347
     31 GH                   -0.006065
     32 GH                   -0.000295
     33 GH                   -0.000396
     34 GH                   -0.000477
     35 GH                   -0.000007
     36 GH                    0.000767
     37 GH                   -0.000009
     38 GH                    0.000590
     39 GH                    0.000801
     40 GH                    0.000023
  ----------------------------------------
  Sum of atomic charges =    -0.000000

                    Cartesian Multipole Moments
 -----------------------------------------------------------------
    Charge (ESU x 10^10)
                -0.0000
    Dipole Moment (Debye)
         X      -0.0060      Y       0.4048      Z       1.6177
       Tot       1.6676
    Quadrupole Moments (Debye-Ang)
        XX     -49.8363     XY       1.6703     YY     -45.8815
        XZ       9.5402     YZ       4.2192     ZZ     -41.1769

 Total job time:  192.82s(wall), 765.20s(cpu)
        *  Thank you very much for using Q-Chem.  Have a nice day.  *
