 Q-Chem 5.0, Q-Chem, Inc., Pleasanton, CA (2017)
 Q-Chem 5.0.1 for Intel X86 EM64T Linux

User input:
--------------------------------------------------------------
$molecule
0  1
C        +3.62162000        +2.72018000        +3.36636000
C        +4.02518000        +1.26177000        +3.77912000
C        +4.72900000        +3.07504000        +2.34550000
C        +6.02962000        +3.39230000        +3.10896000
C        +6.44228000        +1.96881000        +3.58341000
C        +5.34315000        +1.08231000        +2.93303000
O        +5.02732000        +1.81193000        +1.73665000
H        +6.77126000        +3.81312000        +2.42846000
H        +5.88128000        +4.10018000        +3.92692000
H        +7.42074000        +1.68524000        +3.19202000
H        +6.47251000        +1.86268000        +4.66969000
H        +4.43162000        +3.87473000        +1.69977000
C        +5.75342000        -0.33737000        +2.61229000
H        +6.65635000        -0.32665000        +2.03826000
H        +4.97843000        -0.81402000        +2.04918000
H        +5.91579000        -0.87599000        +3.52247000
H        +2.65219000        +2.74341000        +2.91406000
H        +3.55444000        +3.40147000        +4.18869000
H        +4.21585000        +1.18625000        +4.82928000
H        +3.27368000        +0.52174000        +3.59884000
@C        +0.22270000        +1.04488000        +0.58595000
@C        +0.62626000        -0.41353000        +0.99871000
@C        +1.33008000        +1.39974000        -0.43491000
@C        +2.63070000        +1.71700000        +0.32855000
@C        +3.04336000        +0.29351000        +0.80300000
@C        +1.94423000        -0.59299000        +0.15262000
@O        +1.62840000        +0.13663000        -1.04376000
@H        +3.37234000        +2.13782000        -0.35195000
@H        +2.48236000        +2.42488000        +1.14651000
@H        +4.02182000        +0.00994000        +0.41161000
@H        +3.07359000        +0.18738000        +1.88928000
@H        +1.03270000        +2.19943000        -1.08064000
@C        +2.35450000        -2.01267000        -0.16812000
@H        +3.25743000        -2.00195000        -0.74215000
@H        +1.57951000        -2.48932000        -0.73123000
@H        +2.51687000        -2.55129000        +0.74206000
@H        -0.74673000        +1.06811000        +0.13365000
@H        +0.15552000        +1.72617000        +1.40828000
@H        +0.81693000        -0.48905000        +2.04887000
@H        -0.12524000        -1.15356000        +0.81843000
$end

$rem
JOBTYPE                   SP
METHOD                    B3LYP
DFT_D                     d3_op
BASIS                     6-311++G(d,p)
SYMMETRY                  False
THRESH                    12
SCF_CONVERGENCE           8
MAX_SUB_FILE_NUM          128
MEM_STATIC                400
MEM_TOTAL                 4000
$end
--------------------------------------------------------------

             Standard Nuclear Orientation (Angstroms)
    I     Atom           X                Y                Z
 ----------------------------------------------------------------
    1      C       3.6216200000     2.7201800000     3.3663600000
    2      C       4.0251800000     1.2617700000     3.7791200000
    3      C       4.7290000000     3.0750400000     2.3455000000
    4      C       6.0296200000     3.3923000000     3.1089600000
    5      C       6.4422800000     1.9688100000     3.5834100000
    6      C       5.3431500000     1.0823100000     2.9330300000
    7      O       5.0273200000     1.8119300000     1.7366500000
    8      H       6.7712600000     3.8131200000     2.4284600000
    9      H       5.8812800000     4.1001800000     3.9269200000
   10      H       7.4207400000     1.6852400000     3.1920200000
   11      H       6.4725100000     1.8626800000     4.6696900000
   12      H       4.4316200000     3.8747300000     1.6997700000
   13      C       5.7534200000    -0.3373700000     2.6122900000
   14      H       6.6563500000    -0.3266500000     2.0382600000
   15      H       4.9784300000    -0.8140200000     2.0491800000
   16      H       5.9157900000    -0.8759900000     3.5224700000
   17      H       2.6521900000     2.7434100000     2.9140600000
   18      H       3.5544400000     3.4014700000     4.1886900000
   19      H       4.2158500000     1.1862500000     4.8292800000
   20      H       3.2736800000     0.5217400000     3.5988400000
   21      GH      0.2227000000     1.0448800000     0.5859500000
   22      GH      0.6262600000    -0.4135300000     0.9987100000
   23      GH      1.3300800000     1.3997400000    -0.4349100000
   24      GH      2.6307000000     1.7170000000     0.3285500000
   25      GH      3.0433600000     0.2935100000     0.8030000000
   26      GH      1.9442300000    -0.5929900000     0.1526200000
   27      GH      1.6284000000     0.1366300000    -1.0437600000
   28      GH      3.3723400000     2.1378200000    -0.3519500000
   29      GH      2.4823600000     2.4248800000     1.1465100000
   30      GH      4.0218200000     0.0099400000     0.4116100000
   31      GH      3.0735900000     0.1873800000     1.8892800000
   32      GH      1.0327000000     2.1994300000    -1.0806400000
   33      GH      2.3545000000    -2.0126700000    -0.1681200000
   34      GH      3.2574300000    -2.0019500000    -0.7421500000
   35      GH      1.5795100000    -2.4893200000    -0.7312300000
   36      GH      2.5168700000    -2.5512900000     0.7420600000
   37      GH     -0.7467300000     1.0681100000     0.1336500000
   38      GH      0.1555200000     1.7261700000     1.4082800000
   39      GH      0.8169300000    -0.4890500000     2.0488700000
   40      GH     -0.1252400000    -1.1535600000     0.8184300000
 ----------------------------------------------------------------

   13    -349.2968244052      2.62E-09 Convergence criterion met
 Total energy in the final basis set = -349.29682441

                    Orbital Energies (a.u.)
 --------------------------------------------------------------

 Alpha MOs
 -- Occupied --
-19.119 -10.225 -10.216 -10.166 -10.166 -10.163 -10.162 -10.154
 -1.049  -0.798  -0.775  -0.748  -0.684  -0.615  -0.575  -0.556
 -0.503  -0.482  -0.464  -0.440  -0.418  -0.405  -0.392  -0.377
 -0.360  -0.348  -0.344  -0.336  -0.316  -0.301  -0.262

          Ground-State Mulliken Net Atomic Charges

     Atom                 Charge (a.u.)
  ----------------------------------------
      1 C                    -0.370599
      2 C                    -0.452964
      3 C                     0.249287
      4 C                    -0.687979
      5 C                    -0.443778
      6 C                     0.340552
      7 O                     0.039653
      8 H                     0.161081
      9 H                     0.128809
     10 H                     0.156802
     11 H                     0.134277
     12 H                     0.230187
     13 C                    -0.421341
     14 H                     0.153227
     15 H                     0.116657
     16 H                     0.145495
     17 H                     0.120614
     18 H                     0.177574
     19 H                     0.170337
     20 H                     0.184910
     21 GH                   -0.007284
     22 GH                    0.003019
     23 GH                   -0.070058
     24 GH                    0.054921
     25 GH                   -0.015245
     26 GH                   -0.103559
     27 GH                   -0.000943
     28 GH                    0.006828
     29 GH                   -0.004717
     30 GH                    0.034563
     31 GH                   -0.054925
     32 GH                   -0.001805
     33 GH                    0.021245
     34 GH                   -0.002119
     35 GH                   -0.000172
     36 GH                    0.004083
     37 GH                   -0.000230
     38 GH                    0.002396
     39 GH                    0.001380
     40 GH                   -0.000178
  ----------------------------------------
  Sum of atomic charges =     0.000000

                    Cartesian Multipole Moments
 -----------------------------------------------------------------
    Charge (ESU x 10^10)
                 0.0000
    Dipole Moment (Debye)
         X      -0.0090      Y       0.3986      Z       1.6063
       Tot       1.6550
    Quadrupole Moments (Debye-Ang)
        XX     -49.8622     XY       1.2625     YY     -46.3038
        XZ       7.9782     YZ       3.1396     ZZ     -43.6969

 Total job time:  246.74s(wall), 979.64s(cpu)
        *  Thank you very much for using Q-Chem.  Have a nice day.  *
