 Q-Chem 5.0, Q-Chem, Inc., Pleasanton, CA (2017)
 Q-Chem 5.0.1 for Intel X86 EM64T Linux

User input:
--------------------------------------------------------------
$molecule
0  1
--
0  1
C        +0.22270000        +1.04488000        +0.58595000
C        +0.62626000        -0.41353000        +0.99871000
C        +1.33008000        +1.39974000        -0.43491000
C        +2.63070000        +1.71700000        +0.32855000
C        +3.04336000        +0.29351000        +0.80300000
C        +1.94423000        -0.59299000        +0.15262000
O        +1.62840000        +0.13663000        -1.04376000
H        +3.37234000        +2.13782000        -0.35195000
H        +2.48236000        +2.42488000        +1.14651000
H        +4.02182000        +0.00994000        +0.41161000
H        +3.07359000        +0.18738000        +1.88928000
H        +1.03270000        +2.19943000        -1.08064000
C        +2.35450000        -2.01267000        -0.16812000
H        +3.25743000        -2.00195000        -0.74215000
H        +1.57951000        -2.48932000        -0.73123000
H        +2.51687000        -2.55129000        +0.74206000
H        -0.74673000        +1.06811000        +0.13365000
H        +0.15552000        +1.72617000        +1.40828000
H        +0.81693000        -0.48905000        +2.04887000
H        -0.12524000        -1.15356000        +0.81843000
--
0  1
C        +4.56175000        +3.18357000        +4.13541000
C        +4.96531000        +1.72516000        +4.54817000
C        +5.66913000        +3.53843000        +3.11455000
C        +6.96975000        +3.85569000        +3.87801000
C        +7.38241000        +2.43220000        +4.35246000
C        +6.28328000        +1.54570000        +3.70208000
O        +5.96745000        +2.27532000        +2.50570000
H        +7.71139000        +4.27651000        +3.19751000
H        +6.82141000        +4.56357000        +4.69597000
H        +8.36087000        +2.14863000        +3.96107000
H        +7.41264000        +2.32607000        +5.43874000
H        +5.37175000        +4.33812000        +2.46882000
C        +6.69355000        +0.12602000        +3.38134000
H        +7.59648000        +0.13674000        +2.80731000
H        +5.91856000        -0.35063000        +2.81823000
H        +6.85592000        -0.41260000        +4.29152000
H        +3.59232000        +3.20680000        +3.68311000
H        +4.49457000        +3.86486000        +4.95774000
H        +5.15598000        +1.64964000        +5.59833000
H        +4.21381000        +0.98513000        +4.36789000
$end

$rem
JOBTYPE                   SP
METHOD                    B3LYP
DFT_D                     d3_op
BASIS                     6-311++G(d,p)
SYMMETRY                  False
THRESH                    12
SCF_CONVERGENCE           8
MAX_SUB_FILE_NUM          128
MEM_STATIC                400
MEM_TOTAL                 4000
$end
--------------------------------------------------------------

             Standard Nuclear Orientation (Angstroms)
    I     Atom           X                Y                Z
 ----------------------------------------------------------------
    1      C       3.5370466743    -1.5005663187     0.8205999307
    2      C       3.5580742388    -0.0107856608     1.3108066752
    3      C       3.1772858417    -1.3335948257    -0.6750818160
    4      C       1.6732866329    -1.0195122901    -0.7953980842
    5      C       1.6393099724     0.4441127285    -0.2677976201
    6      C       3.1468222671     0.7306127187    -0.0182228050
    7      O       3.7838776945    -0.0807268578    -1.0178765009
    8      H       1.3613487563    -1.0711380664    -1.8395384734
    9      H       1.0477356924    -1.7060840605    -0.2214097250
   10      H       1.2557766102     1.1322405439    -1.0230223008
   11      H       1.0379137783     0.5685951878     0.6349805383
   12      H       3.4604231416    -2.1909951016    -1.2491935036
   13      C       3.5665881939     2.1779546210    -0.1434622055
   14      H       3.2311567259     2.5666469462    -1.0822443692
   15      H       4.6330798199     2.2459294544    -0.0898652991
   16      H       3.1325488707     2.7454139589     0.6530947098
   17      H       4.4934095290    -1.9647601204     0.9422701918
   18      H       2.8598379377    -2.1267739705     1.3629541962
   19      H       2.8486691380     0.1581173177     2.0938204246
   20      H       4.4886010518     0.3085602158     1.7315626503
   21      C      -2.4601147945    -1.4021554568     0.9767592377
   22      C      -2.4390872301     0.0876252011     1.4669659822
   23      C      -2.8198756271    -1.2351839638    -0.5189225090
   24      C      -4.3238748359    -0.9211014281    -0.6392387772
   25      C      -4.3578514965     0.5425235904    -0.1116383131
   26      C      -2.8503392018     0.8290235806     0.1379365020
   27      O      -2.2132837743     0.0176840041    -0.8617171939
   28      H      -4.6358127126    -0.9727272045    -1.6833791664
   29      H      -4.9494257764    -1.6076731986    -0.0652504180
   30      H      -4.7413848586     1.2306514058    -0.8668629938
   31      H      -4.9592476906     0.6670060498     0.7911398453
   32      H      -2.5367383273    -2.0925842397    -1.0930341966
   33      C      -2.4305732750     2.2763654829     0.0126971015
   34      H      -2.7660047429     2.6650578081    -0.9260850622
   35      H      -1.3640816490     2.3443403163     0.0662940079
   36      H      -2.8646125982     2.8438248208     0.8092540168
   37      H      -1.5037519398    -1.8663492585     1.0984294988
   38      H      -3.1373235311    -2.0283631085     1.5191135032
   39      H      -3.1484923308     0.2565281796     2.2499797316
   40      H      -1.5085604170     0.4069710777     1.8877219573
 ----------------------------------------------------------------

   13    -698.5949237068      5.74E-09 Convergence criterion met
 Total energy in the final basis set = -698.59492371

                    Orbital Energies (a.u.)
 --------------------------------------------------------------

 Alpha MOs
 -- Occupied --
-19.121 -19.114 -10.228 -10.220 -10.219 -10.211 -10.168 -10.168
-10.166 -10.165 -10.160 -10.159 -10.159 -10.159 -10.157 -10.151
 -1.052  -1.045  -0.801  -0.793  -0.778  -0.771  -0.751  -0.743
 -0.686  -0.679  -0.617  -0.610  -0.578  -0.570  -0.559  -0.551
 -0.505  -0.498  -0.485  -0.477  -0.467  -0.460  -0.443  -0.436
 -0.420  -0.413  -0.408  -0.400  -0.395  -0.388  -0.380  -0.373
 -0.363  -0.355  -0.351  -0.346  -0.344  -0.339  -0.339  -0.331
 -0.319  -0.311  -0.304  -0.296  -0.265  -0.257

          Ground-State Mulliken Net Atomic Charges

     Atom                 Charge (a.u.)
  ----------------------------------------
      1 C                    -0.650463
      2 C                    -0.242611
      3 C                     0.385036
      4 C                    -0.592912
      5 C                    -0.139941
      6 C                    -0.025889
      7 O                    -0.074301
      8 H                     0.182745
      9 H                     0.074891
     10 H                     0.166083
     11 H                     0.032518
     12 H                     0.251302
     13 C                    -0.438974
     14 H                     0.147813
     15 H                     0.156981
     16 H                     0.138346
     17 H                     0.170670
     18 H                     0.117135
     19 H                     0.135238
     20 H                     0.167638
     21 C                    -0.414510
     22 C                    -0.362737
     23 C                     0.187592
     24 C                    -0.656886
     25 C                    -0.418653
     26 C                     0.248413
     27 O                    -0.051096
     28 H                     0.165783
     29 H                     0.126557
     30 H                     0.153078
     31 H                     0.141615
     32 H                     0.234014
     33 C                    -0.339312
     34 H                     0.155089
     35 H                     0.148352
     36 H                     0.137499
     37 H                     0.129403
     38 H                     0.149464
     39 H                     0.147364
     40 H                     0.157665
  ----------------------------------------
  Sum of atomic charges =    -0.000000

                    Cartesian Multipole Moments
 -----------------------------------------------------------------
    Charge (ESU x 10^10)
                -0.0000
    Dipole Moment (Debye)
         X      -2.3972      Y      -0.6433      Z       2.2948
       Tot       3.3803
    Quadrupole Moments (Debye-Ang)
        XX    -103.9297     XY      -0.1891     YY     -95.2655
        XZ       3.3602     YZ       1.5888     ZZ    -103.1152

 Total job time:  211.46s(wall), 840.03s(cpu)
        *  Thank you very much for using Q-Chem.  Have a nice day.  *
