 Q-Chem 5.0, Q-Chem, Inc., Pleasanton, CA (2017)
 Q-Chem 5.0.1 for Intel X86 EM64T Linux

User input:
--------------------------------------------------------------
$molecule
0  1
C        +3.75039000        +2.93042000        +3.05378000
C        +4.15395000        +1.47201000        +3.46654000
C        +4.85777000        +3.28528000        +2.03292000
C        +6.15839000        +3.60254000        +2.79638000
C        +6.57105000        +2.17905000        +3.27083000
C        +5.47192000        +1.29255000        +2.62045000
O        +5.15609000        +2.02217000        +1.42407000
H        +6.90003000        +4.02336000        +2.11588000
H        +6.01005000        +4.31042000        +3.61434000
H        +7.54951000        +1.89548000        +2.87944000
H        +6.60128000        +2.07292000        +4.35711000
C        +4.42797000        +4.27631000        +0.97353000
C        +5.88219000        -0.12713000        +2.29971000
H        +6.79080000        -0.12124000        +1.69417000
H        +6.07759000        -0.68505000        +3.21862000
H        +5.10104000        -0.64342000        +1.73911000
H        +5.24614000        +4.46740000        +0.31097000
H        +4.12688000        +5.19032000        +1.44133000
H        +3.60694000        +3.87207000        +0.41909000
H        +4.34462000        +1.39649000        +4.51670000
H        +3.40245000        +0.73198000        +3.28626000
H        +2.78096000        +2.95365000        +2.60148000
H        +3.68321000        +3.61171000        +3.87611000
@C        +0.22270000        +1.04488000        +0.58595000
@C        +0.62626000        -0.41353000        +0.99871000
@C        +1.33008000        +1.39974000        -0.43491000
@C        +2.63070000        +1.71700000        +0.32855000
@C        +3.04336000        +0.29351000        +0.80300000
@C        +1.94423000        -0.59299000        +0.15262000
@O        +1.62840000        +0.13663000        -1.04376000
@H        +3.37234000        +2.13782000        -0.35195000
@H        +2.48236000        +2.42488000        +1.14651000
@H        +4.02182000        +0.00994000        +0.41161000
@H        +3.07359000        +0.18738000        +1.88928000
@C        +0.90028000        +2.39077000        -1.49430000
@C        +2.35450000        -2.01267000        -0.16812000
@H        +3.26311000        -2.00678000        -0.77366000
@H        +2.54990000        -2.57059000        +0.75079000
@H        +1.57335000        -2.52896000        -0.72872000
@H        +1.71845000        +2.58186000        -2.15686000
@H        +0.59919000        +3.30478000        -1.02650000
@H        +0.07925000        +1.98653000        -2.04874000
@H        +0.81693000        -0.48905000        +2.04887000
@H        -0.12524000        -1.15356000        +0.81843000
@H        -0.74673000        +1.06811000        +0.13365000
@H        +0.15552000        +1.72617000        +1.40828000
$end

$rem
JOBTYPE                   SP
METHOD                    B3LYP
DFT_D                     d3_op
BASIS                     6-311++G(d,p)
SYMMETRY                  False
THRESH                    12
SCF_CONVERGENCE           8
MAX_SUB_FILE_NUM          128
MEM_STATIC                400
MEM_TOTAL                 4000
$end
--------------------------------------------------------------

             Standard Nuclear Orientation (Angstroms)
    I     Atom           X                Y                Z
 ----------------------------------------------------------------
    1      C       3.7503900000     2.9304200000     3.0537800000
    2      C       4.1539500000     1.4720100000     3.4665400000
    3      C       4.8577700000     3.2852800000     2.0329200000
    4      C       6.1583900000     3.6025400000     2.7963800000
    5      C       6.5710500000     2.1790500000     3.2708300000
    6      C       5.4719200000     1.2925500000     2.6204500000
    7      O       5.1560900000     2.0221700000     1.4240700000
    8      H       6.9000300000     4.0233600000     2.1158800000
    9      H       6.0100500000     4.3104200000     3.6143400000
   10      H       7.5495100000     1.8954800000     2.8794400000
   11      H       6.6012800000     2.0729200000     4.3571100000
   12      C       4.4279700000     4.2763100000     0.9735300000
   13      C       5.8821900000    -0.1271300000     2.2997100000
   14      H       6.7908000000    -0.1212400000     1.6941700000
   15      H       6.0775900000    -0.6850500000     3.2186200000
   16      H       5.1010400000    -0.6434200000     1.7391100000
   17      H       5.2461400000     4.4674000000     0.3109700000
   18      H       4.1268800000     5.1903200000     1.4413300000
   19      H       3.6069400000     3.8720700000     0.4190900000
   20      H       4.3446200000     1.3964900000     4.5167000000
   21      H       3.4024500000     0.7319800000     3.2862600000
   22      H       2.7809600000     2.9536500000     2.6014800000
   23      H       3.6832100000     3.6117100000     3.8761100000
   24      GH      0.2227000000     1.0448800000     0.5859500000
   25      GH      0.6262600000    -0.4135300000     0.9987100000
   26      GH      1.3300800000     1.3997400000    -0.4349100000
   27      GH      2.6307000000     1.7170000000     0.3285500000
   28      GH      3.0433600000     0.2935100000     0.8030000000
   29      GH      1.9442300000    -0.5929900000     0.1526200000
   30      GH      1.6284000000     0.1366300000    -1.0437600000
   31      GH      3.3723400000     2.1378200000    -0.3519500000
   32      GH      2.4823600000     2.4248800000     1.1465100000
   33      GH      4.0218200000     0.0099400000     0.4116100000
   34      GH      3.0735900000     0.1873800000     1.8892800000
   35      GH      0.9002800000     2.3907700000    -1.4943000000
   36      GH      2.3545000000    -2.0126700000    -0.1681200000
   37      GH      3.2631100000    -2.0067800000    -0.7736600000
   38      GH      2.5499000000    -2.5705900000     0.7507900000
   39      GH      1.5733500000    -2.5289600000    -0.7287200000
   40      GH      1.7184500000     2.5818600000    -2.1568600000
   41      GH      0.5991900000     3.3047800000    -1.0265000000
   42      GH      0.0792500000     1.9865300000    -2.0487400000
   43      GH      0.8169300000    -0.4890500000     2.0488700000
   44      GH     -0.1252400000    -1.1535600000     0.8184300000
   45      GH     -0.7467300000     1.0681100000     0.1336500000
   46      GH      0.1555200000     1.7261700000     1.4082800000
 ----------------------------------------------------------------

   12    -388.6336805946      6.97E-09 Convergence criterion met
 Total energy in the final basis set = -388.63368059

                    Orbital Energies (a.u.)
 --------------------------------------------------------------

 Alpha MOs
 -- Occupied --
-19.115 -10.224 -10.221 -10.166 -10.165 -10.162 -10.161 -10.160
-10.151  -1.049  -0.799  -0.789  -0.748  -0.717  -0.652  -0.616
 -0.562  -0.555  -0.486  -0.474  -0.464  -0.444  -0.420  -0.410
 -0.406  -0.402  -0.384  -0.360  -0.346  -0.343  -0.340  -0.333
 -0.316  -0.299  -0.261

          Ground-State Mulliken Net Atomic Charges

     Atom                 Charge (a.u.)
  ----------------------------------------
      1 C                    -0.382177
      2 C                    -0.371587
      3 C                     0.175321
      4 C                    -0.508298
      5 C                    -0.504670
      6 C                     0.217489
      7 O                     0.099096
      8 H                     0.155167
      9 H                     0.138028
     10 H                     0.158542
     11 H                     0.134346
     12 C                    -0.294141
     13 C                    -0.352207
     14 H                     0.153720
     15 H                     0.152609
     16 H                     0.117681
     17 H                     0.151944
     18 H                     0.150476
     19 H                     0.100260
     20 H                     0.177433
     21 H                     0.166174
     22 H                     0.160489
     23 H                     0.186787
     24 GH                   -0.006846
     25 GH                    0.002319
     26 GH                   -0.086826
     27 GH                   -0.000163
     28 GH                   -0.017229
     29 GH                   -0.098372
     30 GH                   -0.000133
     31 GH                    0.022352
     32 GH                   -0.049309
     33 GH                    0.037784
     34 GH                   -0.024839
     35 GH                    0.023742
     36 GH                    0.008492
     37 GH                   -0.001499
     38 GH                    0.002654
     39 GH                    0.000064
     40 GH                   -0.001085
     41 GH                    0.003000
     42 GH                    0.000034
     43 GH                    0.001624
     44 GH                   -0.000214
     45 GH                   -0.000669
     46 GH                    0.002634
  ----------------------------------------
  Sum of atomic charges =     0.000000

                    Cartesian Multipole Moments
 -----------------------------------------------------------------
    Charge (ESU x 10^10)
                 0.0000
    Dipole Moment (Debye)
         X      -0.0354      Y       0.4282      Z       1.4991
       Tot       1.5595
    Quadrupole Moments (Debye-Ang)
        XX     -56.7288     XY       1.5904     YY     -53.2061
        XZ       7.5798     YZ       3.4010     ZZ     -51.6836

 Total job time:  324.85s(wall), 1283.61s(cpu)
        *  Thank you very much for using Q-Chem.  Have a nice day.  *
