 Q-Chem 5.0, Q-Chem, Inc., Pleasanton, CA (2017)
 Q-Chem 5.0.1 for Intel X86 EM64T Linux

User input:
--------------------------------------------------------------
$molecule
0  1
--
0  1
C        +0.22270000        +1.04488000        +0.58595000
C        +0.62626000        -0.41353000        +0.99871000
C        +1.33008000        +1.39974000        -0.43491000
C        +2.63070000        +1.71700000        +0.32855000
C        +3.04336000        +0.29351000        +0.80300000
C        +1.94423000        -0.59299000        +0.15262000
O        +1.62840000        +0.13663000        -1.04376000
H        +3.37234000        +2.13782000        -0.35195000
H        +2.48236000        +2.42488000        +1.14651000
H        +4.02182000        +0.00994000        +0.41161000
H        +3.07359000        +0.18738000        +1.88928000
C        +0.90028000        +2.39077000        -1.49430000
C        +2.35450000        -2.01267000        -0.16812000
H        +3.26311000        -2.00678000        -0.77366000
H        +2.54990000        -2.57059000        +0.75079000
H        +1.57335000        -2.52896000        -0.72872000
H        +1.71845000        +2.58186000        -2.15686000
H        +0.59919000        +3.30478000        -1.02650000
H        +0.07925000        +1.98653000        -2.04874000
H        +0.81693000        -0.48905000        +2.04887000
H        -0.12524000        -1.15356000        +0.81843000
H        -0.74673000        +1.06811000        +0.13365000
H        +0.15552000        +1.72617000        +1.40828000
--
0  1
C        +3.75039000        +2.93042000        +3.05378000
C        +4.15395000        +1.47201000        +3.46654000
C        +4.85777000        +3.28528000        +2.03292000
C        +6.15839000        +3.60254000        +2.79638000
C        +6.57105000        +2.17905000        +3.27083000
C        +5.47192000        +1.29255000        +2.62045000
O        +5.15609000        +2.02217000        +1.42407000
H        +6.90003000        +4.02336000        +2.11588000
H        +6.01005000        +4.31042000        +3.61434000
H        +7.54951000        +1.89548000        +2.87944000
H        +6.60128000        +2.07292000        +4.35711000
C        +4.42797000        +4.27631000        +0.97353000
C        +5.88219000        -0.12713000        +2.29971000
H        +6.79080000        -0.12124000        +1.69417000
H        +6.07759000        -0.68505000        +3.21862000
H        +5.10104000        -0.64342000        +1.73911000
H        +5.24614000        +4.46740000        +0.31097000
H        +4.12688000        +5.19032000        +1.44133000
H        +3.60694000        +3.87207000        +0.41909000
H        +4.34462000        +1.39649000        +4.51670000
H        +3.40245000        +0.73198000        +3.28626000
H        +2.78096000        +2.95365000        +2.60148000
H        +3.68321000        +3.61171000        +3.87611000
$end

$rem
JOBTYPE                   SP
METHOD                    B3LYP
DFT_D                     d3_op
BASIS                     6-311++G(d,p)
SYMMETRY                  False
THRESH                    12
SCF_CONVERGENCE           8
MAX_SUB_FILE_NUM          128
MEM_STATIC                400
MEM_TOTAL                 4000
$end
--------------------------------------------------------------

             Standard Nuclear Orientation (Angstroms)
    I     Atom           X                Y                Z
 ----------------------------------------------------------------
    1      C       2.8631484400    -0.8061649936     1.3072667395
    2      C       2.9289302616     0.7607685324     1.3314182720
    3      C       2.4002666254    -1.0783584292    -0.1439473670
    4      C       0.8937450265    -0.7726258925    -0.2537551624
    5      C       0.9071082580     0.7818768669    -0.1826393887
    6      C       2.4303901125     1.0877855939    -0.1279091970
    7      O       2.9899275776     0.0003315573    -0.8814213608
    8      H       0.5088032602    -1.1216034173    -1.2130435110
    9      H       0.3053587150    -1.2417106007     0.5373949476
   10      H       0.4761987021     1.2266481455    -1.0812369142
   11      H       0.3715636629     1.1837782875     0.6798273660
   12      C       2.8718923080    -2.4016483885    -0.7057734719
   13      C       2.8503400536     2.4215583928    -0.7035645546
   14      H       2.4661385197     2.5223821510    -1.7206728413
   15      H       2.4554731016     3.2404560708    -0.0974802719
   16      H       3.9376750247     2.5081281024    -0.7386557590
   17      H       2.5115065062    -2.5127535655    -1.7071130766
   18      H       2.4961248267    -3.2002223296    -0.1008067217
   19      H       3.9415740598    -2.4278016821    -0.7067259751
   20      H       2.2775328903     1.1727032924     2.0736349271
   21      H       3.8889345212     1.1644201521     1.5770902500
   22      H       3.8224565139    -1.2398256088     1.4985151066
   23      H       2.2214276580    -1.2255200141     2.0537462436
   24      C      -1.8361405628    -0.8064758946     1.3892759365
   25      C      -1.7703587412     0.7604576313     1.4134274690
   26      C      -2.2990223774    -1.0786693302    -0.0619381700
   27      C      -3.8055439762    -0.7729367935    -0.1717459653
   28      C      -3.7921807448     0.7815659659    -0.1006301916
   29      C      -2.2688988903     1.0874746929    -0.0458999999
   30      O      -1.7093614252     0.0000206562    -0.7994121637
   31      H      -4.1904857425    -1.1219143183    -1.1310343139
   32      H      -4.3939302878    -1.2420215017     0.6194041446
   33      H      -4.2230903007     1.2263372445    -0.9992277172
   34      H      -4.3277253399     1.1834673865     0.7618365631
   35      C      -1.8273966948    -2.4019592895    -0.6237642748
   36      C      -1.8489489491     2.4212474918    -0.6215553576
   37      H      -2.2331504831     2.5220712500    -1.6386636443
   38      H      -2.2438159012     3.2401451698    -0.0154710749
   39      H      -0.7616139780     2.5078172013    -0.6566465620
   40      H      -2.1877824966    -2.5130644665    -1.6251038796
   41      H      -2.2031641760    -3.2005332306    -0.0187975246
   42      H      -0.7577149430    -2.4281125831    -0.6247167780
   43      H      -2.4217561125     1.1723923913     2.1556441241
   44      H      -0.8103544816     1.1641092511     1.6590994471
   45      H      -0.8768324888    -1.2401365098     1.5805243037
   46      H      -2.4778613447    -1.2258309151     2.1357554407
 ----------------------------------------------------------------

   13    -777.2408692027      6.17E-09 Convergence criterion met
 Total energy in the final basis set = -777.24086920

                    Orbital Energies (a.u.)
 --------------------------------------------------------------

 Alpha MOs
 -- Occupied --
-19.118 -19.106 -10.229 -10.225 -10.215 -10.211 -10.170 -10.169
-10.167 -10.166 -10.161 -10.157 -10.156 -10.154 -10.152 -10.151
-10.150 -10.146  -1.055  -1.040  -0.805  -0.794  -0.792  -0.781
 -0.756  -0.740  -0.721  -0.712  -0.657  -0.647  -0.626  -0.607
 -0.567  -0.566  -0.556  -0.545  -0.498  -0.488  -0.475  -0.468
 -0.467  -0.454  -0.451  -0.438  -0.424  -0.420  -0.415  -0.411
 -0.408  -0.402  -0.397  -0.396  -0.386  -0.374  -0.364  -0.356
 -0.352  -0.351  -0.347  -0.341  -0.338  -0.332  -0.329  -0.322
 -0.316  -0.308  -0.297  -0.289  -0.267  -0.248

          Ground-State Mulliken Net Atomic Charges

     Atom                 Charge (a.u.)
  ----------------------------------------
      1 C                    -0.415845
      2 C                    -0.436190
      3 C                    -0.196047
      4 C                    -0.121276
      5 C                    -0.142359
      6 C                    -0.272469
      7 O                     0.065694
      8 H                     0.218058
      9 H                    -0.079935
     10 H                     0.197169
     11 H                    -0.030452
     12 C                    -0.255842
     13 C                    -0.281534
     14 H                     0.151510
     15 H                     0.153615
     16 H                     0.163444
     17 H                     0.141033
     18 H                     0.149575
     19 H                     0.161995
     20 H                     0.122332
     21 H                     0.172895
     22 H                     0.158854
     23 H                     0.135820
     24 C                    -0.350080
     25 C                    -0.372292
     26 C                     0.077457
     27 C                    -0.531695
     28 C                    -0.509090
     29 C                     0.155870
     30 O                     0.138847
     31 H                     0.157105
     32 H                     0.138215
     33 H                     0.160876
     34 H                     0.134728
     35 C                    -0.242049
     36 C                    -0.318667
     37 H                     0.158514
     38 H                     0.151175
     39 H                     0.132319
     40 H                     0.156930
     41 H                     0.148198
     42 H                     0.126405
     43 H                     0.177300
     44 H                     0.189518
     45 H                     0.171579
     46 H                     0.188791
  ----------------------------------------
  Sum of atomic charges =     0.000000

                    Cartesian Multipole Moments
 -----------------------------------------------------------------
    Charge (ESU x 10^10)
                 0.0000
    Dipole Moment (Debye)
         X      -2.3688      Y       0.0289      Z       2.2907
       Tot       3.2953
    Quadrupole Moments (Debye-Ang)
        XX    -116.9926     XY       0.1719     YY    -110.2315
        XZ       2.5954     YZ      -0.2203     ZZ    -116.3185

 Total job time:  367.12s(wall), 1454.43s(cpu)
        *  Thank you very much for using Q-Chem.  Have a nice day.  *
