 Q-Chem 5.0, Q-Chem, Inc., Pleasanton, CA (2017)
 Q-Chem 5.0.1 for Intel X86 EM64T Linux

User input:
--------------------------------------------------------------
$molecule
0  1
--
0  1
C        +0.22270000        +1.04488000        +0.58595000
C        +0.62626000        -0.41353000        +0.99871000
C        +1.33008000        +1.39974000        -0.43491000
C        +2.63070000        +1.71700000        +0.32855000
C        +3.04336000        +0.29351000        +0.80300000
C        +1.94423000        -0.59299000        +0.15262000
O        +1.62840000        +0.13663000        -1.04376000
H        +3.37234000        +2.13782000        -0.35195000
H        +2.48236000        +2.42488000        +1.14651000
H        +4.02182000        +0.00994000        +0.41161000
H        +3.07359000        +0.18738000        +1.88928000
C        +0.90028000        +2.39077000        -1.49430000
C        +2.35450000        -2.01267000        -0.16812000
H        +3.26311000        -2.00678000        -0.77366000
H        +2.54990000        -2.57059000        +0.75079000
H        +1.57335000        -2.52896000        -0.72872000
H        +1.71845000        +2.58186000        -2.15686000
H        +0.59919000        +3.30478000        -1.02650000
H        +0.07925000        +1.98653000        -2.04874000
H        +0.81693000        -0.48905000        +2.04887000
H        -0.12524000        -1.15356000        +0.81843000
H        -0.74673000        +1.06811000        +0.13365000
H        +0.15552000        +1.72617000        +1.40828000
--
0  1
C        +4.72613000        +3.45195000        +3.73637000
C        +5.12969000        +1.99354000        +4.14913000
C        +5.83351000        +3.80681000        +2.71551000
C        +7.13413000        +4.12407000        +3.47897000
C        +7.54679000        +2.70058000        +3.95342000
C        +6.44766000        +1.81408000        +3.30304000
O        +6.13183000        +2.54370000        +2.10666000
H        +7.87577000        +4.54489000        +2.79847000
H        +6.98579000        +4.83195000        +4.29693000
H        +8.52525000        +2.41701000        +3.56203000
H        +7.57702000        +2.59445000        +5.03970000
C        +5.40371000        +4.79784000        +1.65612000
C        +6.85793000        +0.39440000        +2.98230000
H        +7.76654000        +0.40029000        +2.37676000
H        +7.05333000        -0.16352000        +3.90121000
H        +6.07678000        -0.12189000        +2.42170000
H        +6.22188000        +4.98893000        +0.99356000
H        +5.10262000        +5.71185000        +2.12392000
H        +4.58268000        +4.39360000        +1.10168000
H        +5.32036000        +1.91802000        +5.19929000
H        +4.37819000        +1.25351000        +3.96885000
H        +3.75670000        +3.47518000        +3.28407000
H        +4.65895000        +4.13324000        +4.55870000
$end

$rem
JOBTYPE                   SP
METHOD                    B3LYP
DFT_D                     d3_op
BASIS                     6-311++G(d,p)
SYMMETRY                  False
THRESH                    12
SCF_CONVERGENCE           8
MAX_SUB_FILE_NUM          128
MEM_STATIC                400
MEM_TOTAL                 4000
$end
--------------------------------------------------------------

             Standard Nuclear Orientation (Angstroms)
    I     Atom           X                Y                Z
 ----------------------------------------------------------------
    1      C       3.5042397179    -0.8062298204     1.3194906314
    2      C       3.5699048784     0.7607016915     1.3440862204
    3      C       3.0511078450    -1.0784070979    -0.1348003501
    4      C       1.5453669804    -0.7726291413    -0.2547242990
    5      C       1.5582989056     0.7818731055    -0.1835176409
    6      C       3.0811879632     1.0877359945    -0.1185564024
    7      O       3.6457414274     0.0002663231    -0.8682951152
    8      H       1.1668668720    -1.1215936134    -1.2165772384
    9      H       0.9516657755    -1.2416974060     0.5324550033
   10      H       1.1334482218     1.2266587229    -1.0849884944
   11      H       1.0169853487     1.1837892713     0.6753331594
   12      C       3.5264568913    -2.4017103493    -0.6934482375
   13      C       3.5050351009     2.4214970738    -0.6913756673
   14      H       3.1276770844     2.5223339521    -1.7110414788
   15      H       3.1061306312     3.2404056697    -0.0879559045
   16      H       4.5925838462     2.5080341789    -0.7191623989
   17      H       3.1728017899    -2.5128031459    -1.6971861268
   18      H       3.1466104040    -3.2002739436    -0.0910205322
   19      H       4.5961201247    -2.4278957700    -0.6872158110
   20      H       2.9135491690     1.1726548632     2.0819114789
   21      H       4.5282494444     1.1643240950     1.5962016256
   22      H       4.4622285324    -1.2399195460     1.5171775073
   23      H       2.8575067872    -1.2255667261     2.0616421802
   24      C      -2.4954158577    -0.8064461040     1.3838867007
   25      C      -2.4297506972     0.7604854079     1.4084822897
   26      C      -2.9485477306    -1.0786233815    -0.0704042808
   27      C      -4.4542885952    -0.7728454249    -0.1903282297
   28      C      -4.4413566700     0.7816568219    -0.1191215716
   29      C      -2.9184676124     1.0875197109    -0.0541603331
   30      O      -2.3539141482     0.0000500395    -0.8038990460
   31      H      -4.8327887036    -1.1218098970    -1.1521811692
   32      H      -5.0479898001    -1.2419136896     0.5968510726
   33      H      -4.8662073538     1.2264424393    -1.0205924251
   34      H      -4.9826702269     1.1835729877     0.7397292286
   35      C      -2.4731986842    -2.4019266328    -0.6290521683
   36      C      -2.4946204747     2.4212807902    -0.6269795980
   37      H      -2.8719784912     2.5221176685    -1.6466454095
   38      H      -2.8935249444     3.2401893862    -0.0235598353
   39      H      -1.4070717293     2.5078178953    -0.6547663296
   40      H      -2.8268537857    -2.5130194294    -1.6327900575
   41      H      -2.8530451716    -3.2004902271    -0.0266244630
   42      H      -1.4035354509    -2.4281120536    -0.6228197418
   43      H      -3.0861064066     1.1724385796     2.1463075481
   44      H      -1.4714061312     1.1641078114     1.6605976948
   45      H      -1.5374270432    -1.2401358296     1.5815735765
   46      H      -3.1421487884    -1.2257830097     2.1260382495
 ----------------------------------------------------------------

   13    -777.2692150252      4.18E-09 Convergence criterion met
 Total energy in the final basis set = -777.26921503

                    Orbital Energies (a.u.)
 --------------------------------------------------------------

 Alpha MOs
 -- Occupied --
-19.117 -19.111 -10.226 -10.223 -10.221 -10.217 -10.168 -10.167
-10.165 -10.164 -10.161 -10.161 -10.160 -10.160 -10.158 -10.157
-10.153 -10.148  -1.051  -1.045  -0.801  -0.796  -0.791  -0.785
 -0.751  -0.745  -0.719  -0.715  -0.654  -0.649  -0.618  -0.612
 -0.564  -0.559  -0.558  -0.551  -0.488  -0.482  -0.476  -0.471
 -0.467  -0.460  -0.446  -0.440  -0.422  -0.417  -0.413  -0.409
 -0.406  -0.404  -0.403  -0.398  -0.386  -0.380  -0.362  -0.357
 -0.349  -0.346  -0.344  -0.342  -0.340  -0.337  -0.335  -0.330
 -0.318  -0.313  -0.302  -0.295  -0.264  -0.257

          Ground-State Mulliken Net Atomic Charges

     Atom                 Charge (a.u.)
  ----------------------------------------
      1 C                    -0.424586
      2 C                    -0.469853
      3 C                     0.033372
      4 C                    -0.304740
      5 C                    -0.263277
      6 C                     0.058056
      7 O                     0.023932
      8 H                     0.175582
      9 H                     0.043709
     10 H                     0.153767
     11 H                     0.050729
     12 C                    -0.314722
     13 C                    -0.329168
     14 H                     0.153903
     15 H                     0.147312
     16 H                     0.153280
     17 H                     0.144018
     18 H                     0.144081
     19 H                     0.151405
     20 H                     0.135271
     21 H                     0.173752
     22 H                     0.163344
     23 H                     0.144024
     24 C                    -0.294297
     25 C                    -0.355918
     26 C                     0.162434
     27 C                    -0.623216
     28 C                    -0.513898
     29 C                     0.153013
     30 O                     0.010588
     31 H                     0.156597
     32 H                     0.138592
     33 H                     0.159029
     34 H                     0.138413
     35 C                    -0.243737
     36 C                    -0.341929
     37 H                     0.155447
     38 H                     0.146308
     39 H                     0.154372
     40 H                     0.151448
     41 H                     0.142908
     42 H                     0.148209
     43 H                     0.152913
     44 H                     0.158852
     45 H                     0.130812
     46 H                     0.169869
  ----------------------------------------
  Sum of atomic charges =    -0.000000

                    Cartesian Multipole Moments
 -----------------------------------------------------------------
    Charge (ESU x 10^10)
                -0.0000
    Dipole Moment (Debye)
         X      -2.0542      Y       0.0170      Z       2.3583
       Tot       3.1275
    Quadrupole Moments (Debye-Ang)
        XX    -115.9106     XY       0.2044     YY    -109.6568
        XZ       2.6445     YZ      -0.2235     ZZ    -116.2504

 Total job time:  298.03s(wall), 1179.10s(cpu)
        *  Thank you very much for using Q-Chem.  Have a nice day.  *
