 Q-Chem 5.0, Q-Chem, Inc., Pleasanton, CA (2017)
 Q-Chem 5.0.1 for Intel X86 EM64T Linux

User input:
--------------------------------------------------------------
$molecule
0  1
C        +4.72613000        +3.45195000        +3.73637000
C        +5.12969000        +1.99354000        +4.14913000
C        +5.83351000        +3.80681000        +2.71551000
C        +7.13413000        +4.12407000        +3.47897000
C        +7.54679000        +2.70058000        +3.95342000
C        +6.44766000        +1.81408000        +3.30304000
O        +6.13183000        +2.54370000        +2.10666000
H        +7.87577000        +4.54489000        +2.79847000
H        +6.98579000        +4.83195000        +4.29693000
H        +8.52525000        +2.41701000        +3.56203000
H        +7.57702000        +2.59445000        +5.03970000
C        +5.40371000        +4.79784000        +1.65612000
C        +6.85793000        +0.39440000        +2.98230000
H        +7.76654000        +0.40029000        +2.37676000
H        +7.05333000        -0.16352000        +3.90121000
H        +6.07678000        -0.12189000        +2.42170000
H        +6.22188000        +4.98893000        +0.99356000
H        +5.10262000        +5.71185000        +2.12392000
H        +4.58268000        +4.39360000        +1.10168000
H        +5.32036000        +1.91802000        +5.19929000
H        +4.37819000        +1.25351000        +3.96885000
H        +3.75670000        +3.47518000        +3.28407000
H        +4.65895000        +4.13324000        +4.55870000
@C        +0.22270000        +1.04488000        +0.58595000
@C        +0.62626000        -0.41353000        +0.99871000
@C        +1.33008000        +1.39974000        -0.43491000
@C        +2.63070000        +1.71700000        +0.32855000
@C        +3.04336000        +0.29351000        +0.80300000
@C        +1.94423000        -0.59299000        +0.15262000
@O        +1.62840000        +0.13663000        -1.04376000
@H        +3.37234000        +2.13782000        -0.35195000
@H        +2.48236000        +2.42488000        +1.14651000
@H        +4.02182000        +0.00994000        +0.41161000
@H        +3.07359000        +0.18738000        +1.88928000
@C        +0.90028000        +2.39077000        -1.49430000
@C        +2.35450000        -2.01267000        -0.16812000
@H        +3.26311000        -2.00678000        -0.77366000
@H        +2.54990000        -2.57059000        +0.75079000
@H        +1.57335000        -2.52896000        -0.72872000
@H        +1.71845000        +2.58186000        -2.15686000
@H        +0.59919000        +3.30478000        -1.02650000
@H        +0.07925000        +1.98653000        -2.04874000
@H        +0.81693000        -0.48905000        +2.04887000
@H        -0.12524000        -1.15356000        +0.81843000
@H        -0.74673000        +1.06811000        +0.13365000
@H        +0.15552000        +1.72617000        +1.40828000
$end

$rem
JOBTYPE                   SP
METHOD                    B3LYP
DFT_D                     d3_op
BASIS                     6-311++G(d,p)
SYMMETRY                  False
THRESH                    12
SCF_CONVERGENCE           8
MAX_SUB_FILE_NUM          128
MEM_STATIC                400
MEM_TOTAL                 4000
$end
--------------------------------------------------------------

             Standard Nuclear Orientation (Angstroms)
    I     Atom           X                Y                Z
 ----------------------------------------------------------------
    1      C       4.7261300000     3.4519500000     3.7363700000
    2      C       5.1296900000     1.9935400000     4.1491300000
    3      C       5.8335100000     3.8068100000     2.7155100000
    4      C       7.1341300000     4.1240700000     3.4789700000
    5      C       7.5467900000     2.7005800000     3.9534200000
    6      C       6.4476600000     1.8140800000     3.3030400000
    7      O       6.1318300000     2.5437000000     2.1066600000
    8      H       7.8757700000     4.5448900000     2.7984700000
    9      H       6.9857900000     4.8319500000     4.2969300000
   10      H       8.5252500000     2.4170100000     3.5620300000
   11      H       7.5770200000     2.5944500000     5.0397000000
   12      C       5.4037100000     4.7978400000     1.6561200000
   13      C       6.8579300000     0.3944000000     2.9823000000
   14      H       7.7665400000     0.4002900000     2.3767600000
   15      H       7.0533300000    -0.1635200000     3.9012100000
   16      H       6.0767800000    -0.1218900000     2.4217000000
   17      H       6.2218800000     4.9889300000     0.9935600000
   18      H       5.1026200000     5.7118500000     2.1239200000
   19      H       4.5826800000     4.3936000000     1.1016800000
   20      H       5.3203600000     1.9180200000     5.1992900000
   21      H       4.3781900000     1.2535100000     3.9688500000
   22      H       3.7567000000     3.4751800000     3.2840700000
   23      H       4.6589500000     4.1332400000     4.5587000000
   24      GH      0.2227000000     1.0448800000     0.5859500000
   25      GH      0.6262600000    -0.4135300000     0.9987100000
   26      GH      1.3300800000     1.3997400000    -0.4349100000
   27      GH      2.6307000000     1.7170000000     0.3285500000
   28      GH      3.0433600000     0.2935100000     0.8030000000
   29      GH      1.9442300000    -0.5929900000     0.1526200000
   30      GH      1.6284000000     0.1366300000    -1.0437600000
   31      GH      3.3723400000     2.1378200000    -0.3519500000
   32      GH      2.4823600000     2.4248800000     1.1465100000
   33      GH      4.0218200000     0.0099400000     0.4116100000
   34      GH      3.0735900000     0.1873800000     1.8892800000
   35      GH      0.9002800000     2.3907700000    -1.4943000000
   36      GH      2.3545000000    -2.0126700000    -0.1681200000
   37      GH      3.2631100000    -2.0067800000    -0.7736600000
   38      GH      2.5499000000    -2.5705900000     0.7507900000
   39      GH      1.5733500000    -2.5289600000    -0.7287200000
   40      GH      1.7184500000     2.5818600000    -2.1568600000
   41      GH      0.5991900000     3.3047800000    -1.0265000000
   42      GH      0.0792500000     1.9865300000    -2.0487400000
   43      GH      0.8169300000    -0.4890500000     2.0488700000
   44      GH     -0.1252400000    -1.1535600000     0.8184300000
   45      GH     -0.7467300000     1.0681100000     0.1336500000
   46      GH      0.1555200000     1.7261700000     1.4082800000
 ----------------------------------------------------------------

   12    -388.6331261629      6.95E-09 Convergence criterion met
 Total energy in the final basis set = -388.63312616

                    Orbital Energies (a.u.)
 --------------------------------------------------------------

 Alpha MOs
 -- Occupied --
-19.115 -10.224 -10.221 -10.166 -10.166 -10.162 -10.161 -10.160
-10.151  -1.049  -0.799  -0.789  -0.749  -0.717  -0.652  -0.616
 -0.562  -0.556  -0.486  -0.474  -0.464  -0.444  -0.420  -0.410
 -0.406  -0.402  -0.384  -0.360  -0.346  -0.343  -0.340  -0.333
 -0.316  -0.299  -0.261

          Ground-State Mulliken Net Atomic Charges

     Atom                 Charge (a.u.)
  ----------------------------------------
      1 C                    -0.298830
      2 C                    -0.365416
      3 C                     0.184082
      4 C                    -0.623643
      5 C                    -0.511946
      6 C                     0.172555
      7 O                     0.008063
      8 H                     0.155615
      9 H                     0.138290
     10 H                     0.158263
     11 H                     0.138059
     12 C                    -0.249591
     13 C                    -0.354054
     14 H                     0.154504
     15 H                     0.146714
     16 H                     0.144923
     17 H                     0.150149
     18 H                     0.143346
     19 H                     0.138392
     20 H                     0.152859
     21 H                     0.156442
     22 H                     0.131324
     23 H                     0.169187
     24 GH                   -0.000476
     25 GH                   -0.000958
     26 GH                   -0.007958
     27 GH                   -0.017386
     28 GH                   -0.018596
     29 GH                   -0.011997
     30 GH                    0.000223
     31 GH                    0.005106
     32 GH                   -0.000995
     33 GH                    0.007471
     34 GH                   -0.000436
     35 GH                    0.002987
     36 GH                    0.002077
     37 GH                   -0.000514
     38 GH                    0.000422
     39 GH                    0.000071
     40 GH                   -0.000339
     41 GH                    0.000379
     42 GH                    0.000087
     43 GH                    0.000463
     44 GH                    0.000036
     45 GH                   -0.000022
     46 GH                    0.001067
  ----------------------------------------
  Sum of atomic charges =    -0.000000

                    Cartesian Multipole Moments
 -----------------------------------------------------------------
    Charge (ESU x 10^10)
                -0.0000
    Dipole Moment (Debye)
         X      -0.0319      Y       0.4307      Z       1.5077
       Tot       1.5684
    Quadrupole Moments (Debye-Ang)
        XX     -56.7473     XY       2.0051     YY     -52.7241
        XZ       9.0714     YZ       4.4883     ZZ     -49.6095

 Total job time:  259.78s(wall), 1026.04s(cpu)
        *  Thank you very much for using Q-Chem.  Have a nice day.  *
