 Q-Chem 5.0, Q-Chem, Inc., Pleasanton, CA (2017)
 Q-Chem 5.0.1 for Intel X86 EM64T Linux

User input:
--------------------------------------------------------------
$molecule
0  1
--
0  1
C        -0.54444000        -0.68370000        -0.06689000
C        -0.55709000        +0.71878000        +0.05493000
C        -1.74320000        -1.41616000        -0.12552000
C        -2.93952000        -0.70056000        -0.05285000
C        -2.95313000        +0.68255000        +0.06934000
C        -1.77161000        +1.42404000        +0.12810000
H        -3.90354000        +1.20325000        +0.11710000
H        -3.87892000        -1.24211000        -0.08988000
C        -1.83960000        +2.92746000        +0.24839000
H        -1.24214000        +3.42352000        -0.52065000
H        -1.45503000        +3.26427000        +1.21284000
H        -2.87211000        +3.26623000        +0.14638000
H        -1.73878000        -2.44393000        -0.21875000
H        +0.35825000        -1.18166000        -0.11386000
H        +0.33551000        +1.23549000        +0.09097000
--
0  1
C        -0.70507000        -1.01974000        +4.61833000
C        -0.71772000        +0.38274000        +4.74015000
C        -1.90383000        -1.75220000        +4.55970000
C        -3.10015000        -1.03660000        +4.63237000
C        -3.11376000        +0.34651000        +4.75456000
C        -1.93224000        +1.08800000        +4.81332000
H        -4.06417000        +0.86721000        +4.80232000
H        -4.03955000        -1.57815000        +4.59534000
C        -2.00023000        +2.59142000        +4.93361000
H        -1.40277000        +3.08748000        +4.16457000
H        -1.61566000        +2.92823000        +5.89806000
H        -3.03274000        +2.93019000        +4.83160000
H        -1.89941000        -2.77997000        +4.46647000
H        +0.19762000        -1.51770000        +4.57136000
H        +0.17488000        +0.89945000        +4.77619000
$end

$rem
JOBTYPE                   SP
METHOD                    B3LYP
DFT_D                     d3_op
BASIS                     6-311++G(d,p)
SYMMETRY                  False
THRESH                    12
SCF_CONVERGENCE           8
MAX_SUB_FILE_NUM          128
MEM_STATIC                400
MEM_TOTAL                 4000
$end
--------------------------------------------------------------

             Standard Nuclear Orientation (Angstroms)
    I     Atom           X                Y                Z
 ----------------------------------------------------------------
    1      C       2.4416740263    -1.1990017281     1.1671069999
    2      C       2.4041574329     0.2080459119     1.1946701864
    3      C       2.4033354487    -1.9005466384    -0.0508115353
    4      C       2.3214364718    -1.1494136413    -1.2245396169
    5      C       2.2823414088     0.2383532831    -1.1983969380
    6      C       2.3203371505     0.9493887705     0.0025337542
    7      H       2.2243408029     0.7867944474    -2.1324937717
    8      H       2.2844573582    -1.6662792628    -2.1777460258
    9      C       2.2879982101     2.4585869799    -0.0227442666
   10      H       3.1110390456     2.8917849316     0.5511893659
   11      H       1.3634266489     2.8411487258     0.4135042893
   12      H       2.3647797705     2.8188813952    -1.0501393120
   13      H       2.4345618491    -2.9317649813    -0.0760342123
   14      H       2.4981608154    -1.7233978136     2.0541456499
   15      H       2.4385708004     0.7013472593     2.1004805234
   16      C      -2.2578066931    -1.2530414212     1.2115142795
   17      C      -2.2953232865     0.1540062188     1.2390774661
   18      C      -2.2961452707    -1.9545863315    -0.0064042557
   19      C      -2.3780442476    -1.2034533344    -1.1801323373
   20      C      -2.4171393106     0.1843135900    -1.1539896583
   21      C      -2.3791435689     0.8953490774     0.0469410338
   22      H      -2.4751399165     0.7327547543    -2.0880864921
   23      H      -2.4150233612    -1.7203189559    -2.1333387461
   24      C      -2.4114825093     2.4045472868     0.0216630131
   25      H      -1.5884416738     2.8377452385     0.5955966456
   26      H      -3.3360540705     2.7871090327     0.4579115689
   27      H      -2.3347009489     2.7648417021    -1.0057320323
   28      H      -2.2649188703    -2.9858046744    -0.0316269326
   29      H      -2.2013199040    -1.7774375067     2.0985529296
   30      H      -2.2609099190     0.6473075662     2.1448878031
 ----------------------------------------------------------------

   13    -543.2885663292      7.44E-09 Convergence criterion met
 Total energy in the final basis set = -543.28856633

                    Orbital Energies (a.u.)
 --------------------------------------------------------------

 Alpha MOs
 -- Occupied --
-10.182 -10.182 -10.170 -10.170 -10.168 -10.168 -10.168 -10.168
-10.167 -10.167 -10.166 -10.166 -10.166 -10.165  -0.854  -0.854
 -0.773  -0.772  -0.744  -0.744  -0.689  -0.688  -0.608  -0.607
 -0.587  -0.587  -0.518  -0.518  -0.462  -0.462  -0.459  -0.459
 -0.425  -0.420  -0.419  -0.419  -0.415  -0.415  -0.388  -0.387
 -0.356  -0.351  -0.347  -0.347  -0.339  -0.339  -0.253  -0.248
 -0.246  -0.241

          Ground-State Mulliken Net Atomic Charges

     Atom                 Charge (a.u.)
  ----------------------------------------
      1 C                    -0.097865
      2 C                    -0.436542
      3 C                    -0.309535
      4 C                    -0.150530
      5 C                    -0.508670
      6 C                     0.940806
      7 H                     0.149585
      8 H                     0.164158
      9 C                    -0.667995
     10 H                     0.145922
     11 H                     0.154026
     12 H                     0.143328
     13 H                     0.150657
     14 H                     0.155986
     15 H                     0.164747
     16 C                    -0.156312
     17 C                    -0.352826
     18 C                    -0.285369
     19 C                    -0.214052
     20 C                    -0.414154
     21 C                     0.842082
     22 H                     0.149959
     23 H                     0.167695
     24 C                    -0.655783
     25 H                     0.147086
     26 H                     0.157201
     27 H                     0.141462
     28 H                     0.150348
     29 H                     0.156997
     30 H                     0.167589
  ----------------------------------------
  Sum of atomic charges =    -0.000000

                    Cartesian Multipole Moments
 -----------------------------------------------------------------
    Charge (ESU x 10^10)
                -0.0000
    Dipole Moment (Debye)
         X      -0.0215      Y       0.6313      Z       0.1246
       Tot       0.6438
    Quadrupole Moments (Debye-Ang)
        XX     -94.0262     XY      -0.4188     YY     -77.3040
        XZ       0.6687     YZ       0.0601     ZZ     -78.5174

 Total job time:  93.42s(wall), 371.83s(cpu)
        *  Thank you very much for using Q-Chem.  Have a nice day.  *
