 Q-Chem 5.0, Q-Chem, Inc., Pleasanton, CA (2017)
 Q-Chem 5.0.1 for Intel X86 EM64T Linux

User input:
--------------------------------------------------------------
$molecule
0  1
C        -0.70507000        -1.01974000        +4.61833000
C        -0.71772000        +0.38274000        +4.74015000
C        -1.90383000        -1.75220000        +4.55970000
C        -3.10015000        -1.03660000        +4.63237000
C        -3.11376000        +0.34651000        +4.75456000
C        -1.93224000        +1.08800000        +4.81332000
H        -4.06417000        +0.86721000        +4.80232000
H        -4.03955000        -1.57815000        +4.59534000
C        -2.00023000        +2.59142000        +4.93361000
H        -1.40277000        +3.08748000        +4.16457000
H        -1.61566000        +2.92823000        +5.89806000
H        -3.03274000        +2.93019000        +4.83160000
H        -1.89941000        -2.77997000        +4.46647000
H        +0.19762000        -1.51770000        +4.57136000
H        +0.17488000        +0.89945000        +4.77619000
@C        -0.54444000        -0.68370000        -0.06689000
@C        -0.55709000        +0.71878000        +0.05493000
@C        -1.74320000        -1.41616000        -0.12552000
@C        -2.93952000        -0.70056000        -0.05285000
@C        -2.95313000        +0.68255000        +0.06934000
@C        -1.77161000        +1.42404000        +0.12810000
@H        -3.90354000        +1.20325000        +0.11710000
@H        -3.87892000        -1.24211000        -0.08988000
@C        -1.83960000        +2.92746000        +0.24839000
@H        -1.24214000        +3.42352000        -0.52065000
@H        -1.45503000        +3.26427000        +1.21284000
@H        -2.87211000        +3.26623000        +0.14638000
@H        -1.73878000        -2.44393000        -0.21875000
@H        +0.35825000        -1.18166000        -0.11386000
@H        +0.33551000        +1.23549000        +0.09097000
$end

$rem
JOBTYPE                   SP
METHOD                    B3LYP
DFT_D                     d3_op
BASIS                     6-311++G(d,p)
SYMMETRY                  False
THRESH                    12
SCF_CONVERGENCE           8
MAX_SUB_FILE_NUM          128
MEM_STATIC                400
MEM_TOTAL                 4000
$end
--------------------------------------------------------------

             Standard Nuclear Orientation (Angstroms)
    I     Atom           X                Y                Z
 ----------------------------------------------------------------
    1      C      -0.7050700000    -1.0197400000     4.6183300000
    2      C      -0.7177200000     0.3827400000     4.7401500000
    3      C      -1.9038300000    -1.7522000000     4.5597000000
    4      C      -3.1001500000    -1.0366000000     4.6323700000
    5      C      -3.1137600000     0.3465100000     4.7545600000
    6      C      -1.9322400000     1.0880000000     4.8133200000
    7      H      -4.0641700000     0.8672100000     4.8023200000
    8      H      -4.0395500000    -1.5781500000     4.5953400000
    9      C      -2.0002300000     2.5914200000     4.9336100000
   10      H      -1.4027700000     3.0874800000     4.1645700000
   11      H      -1.6156600000     2.9282300000     5.8980600000
   12      H      -3.0327400000     2.9301900000     4.8316000000
   13      H      -1.8994100000    -2.7799700000     4.4664700000
   14      H       0.1976200000    -1.5177000000     4.5713600000
   15      H       0.1748800000     0.8994500000     4.7761900000
   16      GH     -0.5444400000    -0.6837000000    -0.0668900000
   17      GH     -0.5570900000     0.7187800000     0.0549300000
   18      GH     -1.7432000000    -1.4161600000    -0.1255200000
   19      GH     -2.9395200000    -0.7005600000    -0.0528500000
   20      GH     -2.9531300000     0.6825500000     0.0693400000
   21      GH     -1.7716100000     1.4240400000     0.1281000000
   22      GH     -3.9035400000     1.2032500000     0.1171000000
   23      GH     -3.8789200000    -1.2421100000    -0.0898800000
   24      GH     -1.8396000000     2.9274600000     0.2483900000
   25      GH     -1.2421400000     3.4235200000    -0.5206500000
   26      GH     -1.4550300000     3.2642700000     1.2128400000
   27      GH     -2.8721100000     3.2662300000     0.1463800000
   28      GH     -1.7387800000    -2.4439300000    -0.2187500000
   29      GH      0.3582500000    -1.1816600000    -0.1138600000
   30      GH      0.3355100000     1.2354900000     0.0909700000
 ----------------------------------------------------------------

   12    -271.6437049903      9.77E-09 Convergence criterion met
 Total energy in the final basis set = -271.64370499

                    Orbital Energies (a.u.)
 --------------------------------------------------------------

 Alpha MOs
 -- Occupied --
-10.185 -10.174 -10.172 -10.171 -10.170 -10.169 -10.169  -0.858
 -0.776  -0.747  -0.691  -0.611  -0.591  -0.521  -0.465  -0.462
 -0.424  -0.423  -0.418  -0.390  -0.358  -0.350  -0.342  -0.255
 -0.247

          Ground-State Mulliken Net Atomic Charges

     Atom                 Charge (a.u.)
  ----------------------------------------
      1 C                    -0.138042
      2 C                    -0.376729
      3 C                    -0.324015
      4 C                    -0.180204
      5 C                    -0.412717
      6 C                     0.848494
      7 H                     0.153487
      8 H                     0.171516
      9 C                    -0.665091
     10 H                     0.155690
     11 H                     0.158505
     12 H                     0.142036
     13 H                     0.151136
     14 H                     0.160439
     15 H                     0.169617
     16 GH                   -0.034070
     17 GH                    0.011014
     18 GH                    0.030435
     19 GH                   -0.029044
     20 GH                    0.012267
     21 GH                   -0.019224
     22 GH                    0.000913
     23 GH                   -0.000426
     24 GH                    0.014495
     25 GH                   -0.000415
     26 GH                   -0.003511
     27 GH                    0.001465
     28 GH                    0.003079
     29 GH                   -0.001006
     30 GH                   -0.000093
  ----------------------------------------
  Sum of atomic charges =    -0.000000

                    Cartesian Multipole Moments
 -----------------------------------------------------------------
    Charge (ESU x 10^10)
                -0.0000
    Dipole Moment (Debye)
         X       0.0630      Y       0.3879      Z       0.0274
       Tot       0.3939
    Quadrupole Moments (Debye-Ang)
        XX     -39.3915     XY      -0.7145     YY     -38.3470
        XZ       0.2155     YZ       2.5308     ZZ     -46.1399

 Total job time:  82.66s(wall), 328.83s(cpu)
        *  Thank you very much for using Q-Chem.  Have a nice day.  *
