 Q-Chem 5.0, Q-Chem, Inc., Pleasanton, CA (2017)
 Q-Chem 5.0.1 for Intel X86 EM64T Linux

User input:
--------------------------------------------------------------
$molecule
0  1
C        -0.54444000        -0.68370000        -0.06689000
C        -0.55709000        +0.71878000        +0.05493000
C        -1.74320000        -1.41616000        -0.12552000
C        -2.93952000        -0.70056000        -0.05285000
C        -2.95313000        +0.68255000        +0.06934000
C        -1.77161000        +1.42404000        +0.12810000
H        -3.90354000        +1.20325000        +0.11710000
H        -3.87892000        -1.24211000        -0.08988000
C        -1.83960000        +2.92746000        +0.24839000
H        -1.24214000        +3.42352000        -0.52065000
H        -1.45503000        +3.26427000        +1.21284000
H        -2.87211000        +3.26623000        +0.14638000
H        -1.73878000        -2.44393000        -0.21875000
H        +0.35825000        -1.18166000        -0.11386000
H        +0.33551000        +1.23549000        +0.09097000
@C        -0.51210000        -1.09350000        +4.61510000
@C        -0.52475000        +0.30898000        +4.73692000
@C        -1.71086000        -1.82596000        +4.55647000
@C        -2.90718000        -1.11036000        +4.62914000
@C        -2.92079000        +0.27275000        +4.75133000
@C        -1.73927000        +1.01424000        +4.81009000
@H        -3.87120000        +0.79345000        +4.79909000
@H        -3.84658000        -1.65191000        +4.59211000
@C        -1.80726000        +2.51766000        +4.93038000
@H        -1.20980000        +3.01372000        +4.16134000
@H        -1.42269000        +2.85447000        +5.89483000
@H        -2.83977000        +2.85643000        +4.82837000
@H        -1.70644000        -2.85373000        +4.46324000
@H        +0.39059000        -1.59146000        +4.56813000
@H        +0.36785000        +0.82569000        +4.77296000
$end

$rem
JOBTYPE                   SP
METHOD                    B3LYP
DFT_D                     d3_op
BASIS                     6-311++G(d,p)
SYMMETRY                  False
THRESH                    12
SCF_CONVERGENCE           8
MAX_SUB_FILE_NUM          128
MEM_STATIC                400
MEM_TOTAL                 4000
$end
--------------------------------------------------------------

             Standard Nuclear Orientation (Angstroms)
    I     Atom           X                Y                Z
 ----------------------------------------------------------------
    1      C      -0.5444400000    -0.6837000000    -0.0668900000
    2      C      -0.5570900000     0.7187800000     0.0549300000
    3      C      -1.7432000000    -1.4161600000    -0.1255200000
    4      C      -2.9395200000    -0.7005600000    -0.0528500000
    5      C      -2.9531300000     0.6825500000     0.0693400000
    6      C      -1.7716100000     1.4240400000     0.1281000000
    7      H      -3.9035400000     1.2032500000     0.1171000000
    8      H      -3.8789200000    -1.2421100000    -0.0898800000
    9      C      -1.8396000000     2.9274600000     0.2483900000
   10      H      -1.2421400000     3.4235200000    -0.5206500000
   11      H      -1.4550300000     3.2642700000     1.2128400000
   12      H      -2.8721100000     3.2662300000     0.1463800000
   13      H      -1.7387800000    -2.4439300000    -0.2187500000
   14      H       0.3582500000    -1.1816600000    -0.1138600000
   15      H       0.3355100000     1.2354900000     0.0909700000
   16      GH     -0.5121000000    -1.0935000000     4.6151000000
   17      GH     -0.5247500000     0.3089800000     4.7369200000
   18      GH     -1.7108600000    -1.8259600000     4.5564700000
   19      GH     -2.9071800000    -1.1103600000     4.6291400000
   20      GH     -2.9207900000     0.2727500000     4.7513300000
   21      GH     -1.7392700000     1.0142400000     4.8100900000
   22      GH     -3.8712000000     0.7934500000     4.7990900000
   23      GH     -3.8465800000    -1.6519100000     4.5921100000
   24      GH     -1.8072600000     2.5176600000     4.9303800000
   25      GH     -1.2098000000     3.0137200000     4.1613400000
   26      GH     -1.4226900000     2.8544700000     5.8948300000
   27      GH     -2.8397700000     2.8564300000     4.8283700000
   28      GH     -1.7064400000    -2.8537300000     4.4632400000
   29      GH      0.3905900000    -1.5914600000     4.5681300000
   30      GH      0.3678500000     0.8256900000     4.7729600000
 ----------------------------------------------------------------

   12    -271.6437196199      9.85E-09 Convergence criterion met
 Total energy in the final basis set = -271.64371962

                    Orbital Energies (a.u.)
 --------------------------------------------------------------

 Alpha MOs
 -- Occupied --
-10.185 -10.174 -10.172 -10.171 -10.170 -10.169 -10.169  -0.858
 -0.776  -0.747  -0.691  -0.611  -0.591  -0.521  -0.465  -0.462
 -0.424  -0.423  -0.418  -0.390  -0.358  -0.350  -0.342  -0.255
 -0.247

          Ground-State Mulliken Net Atomic Charges

     Atom                 Charge (a.u.)
  ----------------------------------------
      1 C                    -0.076514
      2 C                    -0.428266
      3 C                    -0.333472
      4 C                    -0.133822
      5 C                    -0.517889
      6 C                     0.915200
      7 H                     0.153058
      8 H                     0.168547
      9 C                    -0.668060
     10 H                     0.147404
     11 H                     0.163538
     12 H                     0.142705
     13 H                     0.151046
     14 H                     0.159861
     15 H                     0.169254
     16 GH                   -0.032123
     17 GH                    0.037345
     18 GH                    0.032510
     19 GH                   -0.030391
     20 GH                   -0.000596
     21 GH                   -0.026913
     22 GH                    0.000102
     23 GH                    0.000209
     24 GH                    0.004615
     25 GH                   -0.002315
     26 GH                   -0.000645
     27 GH                    0.001588
     28 GH                    0.002693
     29 GH                   -0.000353
     30 GH                    0.001684
  ----------------------------------------
  Sum of atomic charges =    -0.000000

                    Cartesian Multipole Moments
 -----------------------------------------------------------------
    Charge (ESU x 10^10)
                -0.0000
    Dipole Moment (Debye)
         X       0.0617      Y       0.3868      Z       0.0413
       Tot       0.3938
    Quadrupole Moments (Debye-Ang)
        XX     -39.3668     XY      -0.6295     YY     -38.0854
        XZ      -0.1050     YZ       0.7254     ZZ     -46.3960

 Total job time:  82.14s(wall), 327.54s(cpu)
        *  Thank you very much for using Q-Chem.  Have a nice day.  *
