 Q-Chem 5.0, Q-Chem, Inc., Pleasanton, CA (2017)
 Q-Chem 5.0.1 for Intel X86 EM64T Linux

User input:
--------------------------------------------------------------
$molecule
0  1
C        -0.54444000        -0.68370000        -0.06689000
C        -0.55709000        +0.71878000        +0.05493000
C        -1.74320000        -1.41616000        -0.12552000
C        -2.93952000        -0.70056000        -0.05285000
C        -2.95313000        +0.68255000        +0.06934000
C        -1.77161000        +1.42404000        +0.12810000
H        -3.90354000        +1.20325000        +0.11710000
H        -3.87892000        -1.24211000        -0.08988000
C        -1.83960000        +2.92746000        +0.24839000
H        -1.24214000        +3.42352000        -0.52065000
H        -1.45503000        +3.26427000        +1.21284000
H        -2.87211000        +3.26623000        +0.14638000
H        -1.73878000        -2.44393000        -0.21875000
H        +0.35825000        -1.18166000        -0.11386000
H        +0.33551000        +1.23549000        +0.09097000
@C        -0.50315000        -1.20685000        +5.91012000
@C        -0.51580000        +0.19563000        +6.03194000
@C        -1.70191000        -1.93931000        +5.85149000
@C        -2.89823000        -1.22371000        +5.92416000
@C        -2.91184000        +0.15940000        +6.04635000
@C        -1.73032000        +0.90089000        +6.10511000
@H        -3.86225000        +0.68010000        +6.09411000
@H        -3.83763000        -1.76526000        +5.88713000
@C        -1.79831000        +2.40431000        +6.22540000
@H        -1.20085000        +2.90037000        +5.45636000
@H        -1.41374000        +2.74112000        +7.18985000
@H        -2.83082000        +2.74308000        +6.12339000
@H        -1.69749000        -2.96708000        +5.75826000
@H        +0.39954000        -1.70481000        +5.86315000
@H        +0.37680000        +0.71234000        +6.06798000
$end

$rem
JOBTYPE                   SP
METHOD                    B3LYP
DFT_D                     d3_op
BASIS                     6-311++G(d,p)
SYMMETRY                  False
THRESH                    12
SCF_CONVERGENCE           8
MAX_SUB_FILE_NUM          128
MEM_STATIC                400
MEM_TOTAL                 4000
$end
--------------------------------------------------------------

             Standard Nuclear Orientation (Angstroms)
    I     Atom           X                Y                Z
 ----------------------------------------------------------------
    1      C      -0.5444400000    -0.6837000000    -0.0668900000
    2      C      -0.5570900000     0.7187800000     0.0549300000
    3      C      -1.7432000000    -1.4161600000    -0.1255200000
    4      C      -2.9395200000    -0.7005600000    -0.0528500000
    5      C      -2.9531300000     0.6825500000     0.0693400000
    6      C      -1.7716100000     1.4240400000     0.1281000000
    7      H      -3.9035400000     1.2032500000     0.1171000000
    8      H      -3.8789200000    -1.2421100000    -0.0898800000
    9      C      -1.8396000000     2.9274600000     0.2483900000
   10      H      -1.2421400000     3.4235200000    -0.5206500000
   11      H      -1.4550300000     3.2642700000     1.2128400000
   12      H      -2.8721100000     3.2662300000     0.1463800000
   13      H      -1.7387800000    -2.4439300000    -0.2187500000
   14      H       0.3582500000    -1.1816600000    -0.1138600000
   15      H       0.3355100000     1.2354900000     0.0909700000
   16      GH     -0.5031500000    -1.2068500000     5.9101200000
   17      GH     -0.5158000000     0.1956300000     6.0319400000
   18      GH     -1.7019100000    -1.9393100000     5.8514900000
   19      GH     -2.8982300000    -1.2237100000     5.9241600000
   20      GH     -2.9118400000     0.1594000000     6.0463500000
   21      GH     -1.7303200000     0.9008900000     6.1051100000
   22      GH     -3.8622500000     0.6801000000     6.0941100000
   23      GH     -3.8376300000    -1.7652600000     5.8871300000
   24      GH     -1.7983100000     2.4043100000     6.2254000000
   25      GH     -1.2008500000     2.9003700000     5.4563600000
   26      GH     -1.4137400000     2.7411200000     7.1898500000
   27      GH     -2.8308200000     2.7430800000     6.1233900000
   28      GH     -1.6974900000    -2.9670800000     5.7582600000
   29      GH      0.3995400000    -1.7048100000     5.8631500000
   30      GH      0.3768000000     0.7123400000     6.0679800000
 ----------------------------------------------------------------

   12    -271.6435870487      9.58E-09 Convergence criterion met
 Total energy in the final basis set = -271.64358705

                    Orbital Energies (a.u.)
 --------------------------------------------------------------

 Alpha MOs
 -- Occupied --
-10.185 -10.174 -10.172 -10.171 -10.170 -10.169 -10.169  -0.858
 -0.776  -0.747  -0.691  -0.611  -0.591  -0.521  -0.465  -0.462
 -0.424  -0.423  -0.418  -0.390  -0.358  -0.350  -0.342  -0.255
 -0.247

          Ground-State Mulliken Net Atomic Charges

     Atom                 Charge (a.u.)
  ----------------------------------------
      1 C                    -0.016215
      2 C                    -0.426641
      3 C                    -0.346781
      4 C                    -0.044273
      5 C                    -0.762903
      6 C                     0.980139
      7 H                     0.134765
      8 H                     0.171715
      9 C                    -0.606994
     10 H                     0.147290
     11 H                     0.156767
     12 H                     0.147758
     13 H                     0.147591
     14 H                     0.160720
     15 H                     0.159369
     16 GH                    0.000033
     17 GH                    0.002768
     18 GH                    0.002988
     19 GH                   -0.001662
     20 GH                   -0.007854
     21 GH                    0.002516
     22 GH                   -0.000783
     23 GH                   -0.000256
     24 GH                    0.000069
     25 GH                    0.000173
     26 GH                   -0.000007
     27 GH                    0.000321
     28 GH                    0.000184
     29 GH                   -0.000347
     30 GH                   -0.000450
  ----------------------------------------
  Sum of atomic charges =     0.000000

                    Cartesian Multipole Moments
 -----------------------------------------------------------------
    Charge (ESU x 10^10)
                -0.0000
    Dipole Moment (Debye)
         X       0.0623      Y       0.3875      Z       0.0382
       Tot       0.3944
    Quadrupole Moments (Debye-Ang)
        XX     -39.3523     XY      -0.6308     YY     -38.0697
        XZ      -0.0973     YZ       0.7292     ZZ     -46.4155

 Total job time:  69.89s(wall), 278.60s(cpu)
        *  Thank you very much for using Q-Chem.  Have a nice day.  *
