 Q-Chem 5.0, Q-Chem, Inc., Pleasanton, CA (2017)
 Q-Chem 5.0.1 for Intel X86 EM64T Linux

User input:
--------------------------------------------------------------
$molecule
0  1
C        -0.54444000        -0.68370000        -0.06689000
C        -0.55709000        +0.71878000        +0.05493000
C        -1.74320000        -1.41616000        -0.12552000
C        -2.93952000        -0.70056000        -0.05285000
C        -2.95313000        +0.68255000        +0.06934000
C        -1.77161000        +1.42404000        +0.12810000
H        -3.90354000        +1.20325000        +0.11710000
H        -3.87892000        -1.24211000        -0.08988000
C        -1.83960000        +2.92746000        +0.24839000
H        -1.24214000        +3.42352000        -0.52065000
H        -1.45503000        +3.26427000        +1.21284000
H        -2.87211000        +3.26623000        +0.14638000
H        -1.73878000        -2.44393000        -0.21875000
H        +0.35825000        -1.18166000        -0.11386000
H        +0.33551000        +1.23549000        +0.09097000
@C        -0.74951000        -1.11269000        +5.91424000
@C        -0.76216000        +0.28979000        +6.03606000
@C        -1.94827000        -1.84515000        +5.85561000
@C        -3.14459000        -1.12955000        +5.92828000
@C        -3.15820000        +0.25356000        +6.05047000
@C        -1.97668000        +0.99505000        +6.10923000
@H        -4.10861000        +0.77426000        +6.09823000
@H        -4.08399000        -1.67110000        +5.89125000
@C        -2.04467000        +2.49847000        +6.22952000
@H        -1.44721000        +2.99453000        +5.46048000
@H        -1.66010000        +2.83528000        +7.19397000
@H        -3.07718000        +2.83724000        +6.12751000
@H        -1.94385000        -2.87292000        +5.76238000
@H        +0.15318000        -1.61065000        +5.86727000
@H        +0.13044000        +0.80650000        +6.07210000
$end

$rem
JOBTYPE                   SP
METHOD                    B3LYP
DFT_D                     d3_op
BASIS                     6-311++G(d,p)
SYMMETRY                  False
THRESH                    12
SCF_CONVERGENCE           8
MAX_SUB_FILE_NUM          128
MEM_STATIC                400
MEM_TOTAL                 4000
$end
--------------------------------------------------------------

             Standard Nuclear Orientation (Angstroms)
    I     Atom           X                Y                Z
 ----------------------------------------------------------------
    1      C      -0.5444400000    -0.6837000000    -0.0668900000
    2      C      -0.5570900000     0.7187800000     0.0549300000
    3      C      -1.7432000000    -1.4161600000    -0.1255200000
    4      C      -2.9395200000    -0.7005600000    -0.0528500000
    5      C      -2.9531300000     0.6825500000     0.0693400000
    6      C      -1.7716100000     1.4240400000     0.1281000000
    7      H      -3.9035400000     1.2032500000     0.1171000000
    8      H      -3.8789200000    -1.2421100000    -0.0898800000
    9      C      -1.8396000000     2.9274600000     0.2483900000
   10      H      -1.2421400000     3.4235200000    -0.5206500000
   11      H      -1.4550300000     3.2642700000     1.2128400000
   12      H      -2.8721100000     3.2662300000     0.1463800000
   13      H      -1.7387800000    -2.4439300000    -0.2187500000
   14      H       0.3582500000    -1.1816600000    -0.1138600000
   15      H       0.3355100000     1.2354900000     0.0909700000
   16      GH     -0.7495100000    -1.1126900000     5.9142400000
   17      GH     -0.7621600000     0.2897900000     6.0360600000
   18      GH     -1.9482700000    -1.8451500000     5.8556100000
   19      GH     -3.1445900000    -1.1295500000     5.9282800000
   20      GH     -3.1582000000     0.2535600000     6.0504700000
   21      GH     -1.9766800000     0.9950500000     6.1092300000
   22      GH     -4.1086100000     0.7742600000     6.0982300000
   23      GH     -4.0839900000    -1.6711000000     5.8912500000
   24      GH     -2.0446700000     2.4984700000     6.2295200000
   25      GH     -1.4472100000     2.9945300000     5.4604800000
   26      GH     -1.6601000000     2.8352800000     7.1939700000
   27      GH     -3.0771800000     2.8372400000     6.1275100000
   28      GH     -1.9438500000    -2.8729200000     5.7623800000
   29      GH      0.1531800000    -1.6106500000     5.8672700000
   30      GH      0.1304400000     0.8065000000     6.0721000000
 ----------------------------------------------------------------

   12    -271.6435867942      9.58E-09 Convergence criterion met
 Total energy in the final basis set = -271.64358679

                    Orbital Energies (a.u.)
 --------------------------------------------------------------

 Alpha MOs
 -- Occupied --
-10.185 -10.174 -10.172 -10.171 -10.170 -10.169 -10.169  -0.858
 -0.776  -0.747  -0.691  -0.611  -0.591  -0.521  -0.465  -0.462
 -0.424  -0.423  -0.418  -0.390  -0.358  -0.350  -0.342  -0.255
 -0.247

          Ground-State Mulliken Net Atomic Charges

     Atom                 Charge (a.u.)
  ----------------------------------------
      1 C                    -0.014757
      2 C                    -0.427535
      3 C                    -0.347916
      4 C                    -0.043425
      5 C                    -0.764508
      6 C                     0.984829
      7 H                     0.134396
      8 H                     0.171701
      9 C                    -0.610140
     10 H                     0.147111
     11 H                     0.156477
     12 H                     0.147827
     13 H                     0.147687
     14 H                     0.160867
     15 H                     0.159626
     16 GH                    0.000159
     17 GH                    0.002129
     18 GH                    0.003092
     19 GH                   -0.001869
     20 GH                   -0.007182
     21 GH                    0.002107
     22 GH                   -0.000698
     23 GH                   -0.000288
     24 GH                    0.000422
     25 GH                    0.000246
     26 GH                   -0.000006
     27 GH                    0.000260
     28 GH                    0.000202
     29 GH                   -0.000324
     30 GH                   -0.000490
  ----------------------------------------
  Sum of atomic charges =     0.000000

                    Cartesian Multipole Moments
 -----------------------------------------------------------------
    Charge (ESU x 10^10)
                 0.0000
    Dipole Moment (Debye)
         X       0.0621      Y       0.3877      Z       0.0382
       Tot       0.3945
    Quadrupole Moments (Debye-Ang)
        XX     -39.3514     XY      -0.6311     YY     -38.0693
        XZ      -0.0976     YZ       0.7297     ZZ     -46.4155

 Total job time:  70.86s(wall), 281.48s(cpu)
        *  Thank you very much for using Q-Chem.  Have a nice day.  *
