 Q-Chem 5.0, Q-Chem, Inc., Pleasanton, CA (2017)
 Q-Chem 5.0.1 for Intel X86 EM64T Linux

User input:
--------------------------------------------------------------
$molecule
0  1
--
0  1
C        -0.54444000        -0.68370000        -0.06689000
C        -0.55709000        +0.71878000        +0.05493000
C        -1.74320000        -1.41616000        -0.12552000
C        -2.93952000        -0.70056000        -0.05285000
C        -2.95313000        +0.68255000        +0.06934000
C        -1.77161000        +1.42404000        +0.12810000
H        -3.90354000        +1.20325000        +0.11710000
H        -3.87892000        -1.24211000        -0.08988000
C        -1.83960000        +2.92746000        +0.24839000
H        -1.24214000        +3.42352000        -0.52065000
H        -1.45503000        +3.26427000        +1.21284000
H        -2.87211000        +3.26623000        +0.14638000
H        -1.73878000        -2.44393000        -0.21875000
H        +0.35825000        -1.18166000        -0.11386000
H        +0.33551000        +1.23549000        +0.09097000
--
0  1
C        -0.74951000        -1.11269000        +5.91424000
C        -0.76216000        +0.28979000        +6.03606000
C        -1.94827000        -1.84515000        +5.85561000
C        -3.14459000        -1.12955000        +5.92828000
C        -3.15820000        +0.25356000        +6.05047000
C        -1.97668000        +0.99505000        +6.10923000
H        -4.10861000        +0.77426000        +6.09823000
H        -4.08399000        -1.67110000        +5.89125000
C        -2.04467000        +2.49847000        +6.22952000
H        -1.44721000        +2.99453000        +5.46048000
H        -1.66010000        +2.83528000        +7.19397000
H        -3.07718000        +2.83724000        +6.12751000
H        -1.94385000        -2.87292000        +5.76238000
H        +0.15318000        -1.61065000        +5.86727000
H        +0.13044000        +0.80650000        +6.07210000
$end

$rem
JOBTYPE                   SP
METHOD                    B3LYP
DFT_D                     d3_op
BASIS                     6-311++G(d,p)
SYMMETRY                  False
THRESH                    12
SCF_CONVERGENCE           8
MAX_SUB_FILE_NUM          128
MEM_STATIC                400
MEM_TOTAL                 4000
$end
--------------------------------------------------------------

             Standard Nuclear Orientation (Angstroms)
    I     Atom           X                Y                Z
 ----------------------------------------------------------------
    1      C       3.0795371246    -1.2103186295     1.1735287579
    2      C       3.0503979377     0.1969260548     1.2011619169
    3      C       3.0419935942    -1.9114549495    -0.0446498046
    4      C       2.9694739353    -1.1596829220    -1.2185857266
    5      C       2.9386458438     0.2282911153    -1.1923826607
    6      C       2.9759739342     0.9389222022     0.0088083067
    7      H       2.8878117479     0.7771984281    -2.1266231717
    8      H       2.9333115488    -1.6761872644    -2.1720192741
    9      C       2.9528467534     2.4482914846    -0.0163615868
   10      H       3.7761105155     2.8764372899     0.5610329440
   11      H       2.0288076003     2.8363668170     0.4161289257
   12      H       3.0360410423     2.8082547113    -1.0433733875
   13      H       3.0671008628    -2.9428395405    -0.0699083256
   14      H       3.1291967738    -1.7351658123     2.0607090849
   15      H       3.0840480945     0.6898884354     2.1071854398
   16      C      -2.9202885924    -1.2431105975     1.2054388598
   17      C      -2.9494277793     0.1641340868     1.2330720189
   18      C      -2.9578321228    -1.9442469175    -0.0127397027
   19      C      -3.0303517817    -1.1924748900    -1.1866756247
   20      C      -3.0611798732     0.1954991473    -1.1604725588
   21      C      -3.0238517828     0.9061302342     0.0407184086
   22      H      -3.1120139690     0.7444064601    -2.0947130697
   23      H      -3.0665141682    -1.7089792324    -2.1401091722
   24      C      -3.0469789636     2.4154995166     0.0155485151
   25      H      -2.2237152015     2.8436453219     0.5929430459
   26      H      -3.9710181167     2.8035748490     0.4480390276
   27      H      -2.9637846747     2.7754627433    -1.0114632856
   28      H      -2.9327248542    -2.9756315085    -0.0379982237
   29      H      -2.8706289432    -1.7679577803     2.0926191868
   30      H      -2.9157776225     0.6570964674     2.1390955417
 ----------------------------------------------------------------

   13    -543.2872675269      4.91E-09 Convergence criterion met
 Total energy in the final basis set = -543.28726753

                    Orbital Energies (a.u.)
 --------------------------------------------------------------

 Alpha MOs
 -- Occupied --
-10.183 -10.183 -10.171 -10.171 -10.170 -10.170 -10.168 -10.168
-10.168 -10.168 -10.167 -10.167 -10.167 -10.167  -0.856  -0.856
 -0.774  -0.774  -0.745  -0.745  -0.689  -0.689  -0.609  -0.609
 -0.588  -0.588  -0.519  -0.519  -0.463  -0.463  -0.460  -0.460
 -0.423  -0.422  -0.421  -0.421  -0.416  -0.416  -0.388  -0.388
 -0.355  -0.355  -0.348  -0.348  -0.340  -0.340  -0.252  -0.252
 -0.245  -0.245

          Ground-State Mulliken Net Atomic Charges

     Atom                 Charge (a.u.)
  ----------------------------------------
      1 C                    -0.012299
      2 C                    -0.430262
      3 C                    -0.343754
      4 C                    -0.042657
      5 C                    -0.771770
      6 C                     1.000811
      7 H                     0.132005
      8 H                     0.169961
      9 C                    -0.613508
     10 H                     0.146555
     11 H                     0.153845
     12 H                     0.147538
     13 H                     0.146549
     14 H                     0.158861
     15 H                     0.157530
     16 C                    -0.067630
     17 C                    -0.379062
     18 C                    -0.312896
     19 C                    -0.114800
     20 C                    -0.672945
     21 C                     0.941533
     22 H                     0.133979
     23 H                     0.170310
     24 C                    -0.613635
     25 H                     0.147247
     26 H                     0.158057
     27 H                     0.147741
     28 H                     0.146891
     29 H                     0.159172
     30 H                     0.156634
  ----------------------------------------
  Sum of atomic charges =     0.000000

                    Cartesian Multipole Moments
 -----------------------------------------------------------------
    Charge (ESU x 10^10)
                 0.0000
    Dipole Moment (Debye)
         X      -0.0155      Y       0.6967      Z       0.1358
       Tot       0.7100
    Quadrupole Moments (Debye-Ang)
        XX     -93.7226     XY      -0.3242     YY     -77.0204
        XZ       0.6177     YZ       0.0812     ZZ     -78.3701

 Total job time:  81.20s(wall), 323.13s(cpu)
        *  Thank you very much for using Q-Chem.  Have a nice day.  *
