 Q-Chem 5.0, Q-Chem, Inc., Pleasanton, CA (2017)
 Q-Chem 5.0.1 for Intel X86 EM64T Linux

User input:
--------------------------------------------------------------
$molecule
0  1
--
0  1
C        -0.54444000        -0.68370000        -0.06689000
C        -0.55709000        +0.71878000        +0.05493000
C        -1.74320000        -1.41616000        -0.12552000
C        -2.93952000        -0.70056000        -0.05285000
C        -2.95313000        +0.68255000        +0.06934000
C        -1.77161000        +1.42404000        +0.12810000
H        -3.90354000        +1.20325000        +0.11710000
H        -3.87892000        -1.24211000        -0.08988000
C        -1.83960000        +2.92746000        +0.24839000
H        -1.24214000        +3.42352000        -0.52065000
H        -1.45503000        +3.26427000        +1.21284000
H        -2.87211000        +3.26623000        +0.14638000
H        -1.73878000        -2.44393000        -0.21875000
H        +0.35825000        -1.18166000        -0.11386000
H        +0.33551000        +1.23549000        +0.09097000
--
0  1
C        -0.51210000        -1.09350000        +4.61510000
C        -0.52475000        +0.30898000        +4.73692000
C        -1.71086000        -1.82596000        +4.55647000
C        -2.90718000        -1.11036000        +4.62914000
C        -2.92079000        +0.27275000        +4.75133000
C        -1.73927000        +1.01424000        +4.81009000
H        -3.87120000        +0.79345000        +4.79909000
H        -3.84658000        -1.65191000        +4.59211000
C        -1.80726000        +2.51766000        +4.93038000
H        -1.20980000        +3.01372000        +4.16134000
H        -1.42269000        +2.85447000        +5.89483000
H        -2.83977000        +2.85643000        +4.82837000
H        -1.70644000        -2.85373000        +4.46324000
H        +0.39059000        -1.59146000        +4.56813000
H        +0.36785000        +0.82569000        +4.77296000
$end

$rem
JOBTYPE                   SP
METHOD                    B3LYP
DFT_D                     d3_op
BASIS                     6-311++G(d,p)
SYMMETRY                  False
THRESH                    12
SCF_CONVERGENCE           8
MAX_SUB_FILE_NUM          128
MEM_STATIC                400
MEM_TOTAL                 4000
$end
--------------------------------------------------------------

             Standard Nuclear Orientation (Angstroms)
    I     Atom           X                Y                Z
 ----------------------------------------------------------------
    1      C       2.3459825883    -1.2316304170     1.1901675409
    2      C       2.3487258261     0.1758984401     1.2185449294
    3      C       2.3479784449    -1.9311776894    -0.0295005682
    4      C       2.3471995123    -1.1774144717    -1.2043989622
    5      C       2.3478683719     0.2108895094    -1.1775566612
    6      C       2.3466615336     0.9199410864     0.0251461586
    7      H       2.3529560860     0.7612330156    -2.1123212390
    8      H       2.3427515015    -1.6925242853    -2.1592612971
    9      C       2.3602386635     2.4294464818     0.0012057438
   10      H       3.1659417741     2.8378236219     0.6164513092
   11      H       1.4266865049     2.8390173302     0.3913735933
   12      H       2.4989937548     2.7877774914    -1.0203587256
   13      H       2.3499438131    -2.9628568877    -0.0551269480
   14      H       2.3424510385    -1.7578731299     2.0779038272
   15      H       2.3522899664     0.6675518736     2.1258966054
   16      C      -2.3540151750    -1.2258650837     1.1899192924
   17      C      -2.3512719372     0.1816637734     1.2182966809
   18      C      -2.3520193184    -1.9254123561    -0.0297488167
   19      C      -2.3527982510    -1.1716491384    -1.2046472107
   20      C      -2.3521293914     0.2166548427    -1.1778049097
   21      C      -2.3533362297     0.9257064197     0.0248979101
   22      H      -2.3470416773     0.7669983489    -2.1125694875
   23      H      -2.3572462618    -1.6867589520    -2.1595095456
   24      C      -2.3397590998     2.4352118151     0.0009574953
   25      H      -1.5340559892     2.8435889552     0.6162030608
   26      H      -3.2733112584     2.8447826635     0.3911253448
   27      H      -2.2010040085     2.7935428247    -1.0206069741
   28      H      -2.3500539502    -2.9570915544    -0.0553751965
   29      H      -2.3575467248    -1.7521077966     2.0776555787
   30      H      -2.3477077969     0.6733172069     2.1256483569
 ----------------------------------------------------------------

   13    -543.2885725014      5.55E-09 Convergence criterion met
 Total energy in the final basis set = -543.28857250

                    Orbital Energies (a.u.)
 --------------------------------------------------------------

 Alpha MOs
 -- Occupied --
-10.182 -10.182 -10.170 -10.170 -10.168 -10.168 -10.168 -10.168
-10.167 -10.167 -10.166 -10.166 -10.166 -10.165  -0.854  -0.854
 -0.773  -0.772  -0.744  -0.744  -0.689  -0.688  -0.608  -0.607
 -0.587  -0.587  -0.518  -0.518  -0.462  -0.462  -0.459  -0.459
 -0.425  -0.420  -0.419  -0.419  -0.415  -0.415  -0.388  -0.387
 -0.356  -0.351  -0.347  -0.347  -0.339  -0.339  -0.253  -0.248
 -0.246  -0.241

          Ground-State Mulliken Net Atomic Charges

     Atom                 Charge (a.u.)
  ----------------------------------------
      1 C                    -0.096630
      2 C                    -0.439401
      3 C                    -0.294782
      4 C                    -0.168949
      5 C                    -0.503044
      6 C                     0.928874
      7 H                     0.150556
      8 H                     0.163581
      9 C                    -0.657397
     10 H                     0.146323
     11 H                     0.155435
     12 H                     0.142899
     13 H                     0.150960
     14 H                     0.155585
     15 H                     0.165101
     16 C                    -0.165621
     17 C                    -0.355651
     18 C                    -0.291577
     19 C                    -0.200138
     20 C                    -0.404789
     21 C                     0.841947
     22 H                     0.150411
     23 H                     0.167438
     24 C                    -0.659110
     25 H                     0.145167
     26 H                     0.157030
     27 H                     0.140688
     28 H                     0.150352
     29 H                     0.157195
     30 H                     0.167549
  ----------------------------------------
  Sum of atomic charges =    -0.000000

                    Cartesian Multipole Moments
 -----------------------------------------------------------------
    Charge (ESU x 10^10)
                -0.0000
    Dipole Moment (Debye)
         X      -0.0085      Y       0.6307      Z       0.1256
       Tot       0.6432
    Quadrupole Moments (Debye-Ang)
        XX     -94.0714     XY       0.0456     YY     -77.2937
        XZ      -0.0309     YZ       0.0438     ZZ     -78.4815

 Total job time:  93.43s(wall), 372.39s(cpu)
        *  Thank you very much for using Q-Chem.  Have a nice day.  *
