 Q-Chem 5.0, Q-Chem, Inc., Pleasanton, CA (2017)
 Q-Chem 5.0.1 for Intel X86 EM64T Linux

User input:
--------------------------------------------------------------
$molecule
0  1
--
0  1
C        -0.54444000        -0.68370000        -0.06689000
C        -0.55709000        +0.71878000        +0.05493000
C        -1.74320000        -1.41616000        -0.12552000
C        -2.93952000        -0.70056000        -0.05285000
C        -2.95313000        +0.68255000        +0.06934000
C        -1.77161000        +1.42404000        +0.12810000
H        -3.90354000        +1.20325000        +0.11710000
H        -3.87892000        -1.24211000        -0.08988000
C        -1.83960000        +2.92746000        +0.24839000
H        -1.24214000        +3.42352000        -0.52065000
H        -1.45503000        +3.26427000        +1.21284000
H        -2.87211000        +3.26623000        +0.14638000
H        -1.73878000        -2.44393000        -0.21875000
H        +0.35825000        -1.18166000        -0.11386000
H        +0.33551000        +1.23549000        +0.09097000
--
0  1
C        -0.50315000        -1.20685000        +5.91012000
C        -0.51580000        +0.19563000        +6.03194000
C        -1.70191000        -1.93931000        +5.85149000
C        -2.89823000        -1.22371000        +5.92416000
C        -2.91184000        +0.15940000        +6.04635000
C        -1.73032000        +0.90089000        +6.10511000
H        -3.86225000        +0.68010000        +6.09411000
H        -3.83763000        -1.76526000        +5.88713000
C        -1.79831000        +2.40431000        +6.22540000
H        -1.20085000        +2.90037000        +5.45636000
H        -1.41374000        +2.74112000        +7.18985000
H        -2.83082000        +2.74308000        +6.12339000
H        -1.69749000        -2.96708000        +5.75826000
H        +0.39954000        -1.70481000        +5.86315000
H        +0.37680000        +0.71234000        +6.06798000
$end

$rem
JOBTYPE                   SP
METHOD                    B3LYP
DFT_D                     d3_op
BASIS                     6-311++G(d,p)
SYMMETRY                  False
THRESH                    12
SCF_CONVERGENCE           8
MAX_SUB_FILE_NUM          128
MEM_STATIC                400
MEM_TOTAL                 4000
$end
--------------------------------------------------------------

             Standard Nuclear Orientation (Angstroms)
    I     Atom           X                Y                Z
 ----------------------------------------------------------------
    1      C       2.9968023291    -1.2304981777     1.1901328678
    2      C       2.9986400004     0.1770321518     1.2185103244
    3      C       2.9992215098    -1.9300439257    -0.0295353494
    4      C       2.9979312243    -1.1762812749    -1.2044336567
    5      C       2.9977068612     0.2120228470    -1.1775912434
    6      C       2.9960702032     0.9210734071     0.0251116679
    7      H       3.0024195143     0.7623695871    -2.1123558834
    8      H       2.9937936690    -1.6913937715    -2.1592959399
    9      C       3.0086749491     2.4305872327     0.0011710902
   10      H       3.8141286202     2.8394829686     0.6163988185
   11      H       2.0748679500     2.8395569263     0.3913596878
   12      H       3.1471766476     2.7890075804    -1.0203964244
   13      H       3.0018505250    -2.9617216428    -0.0551618673
   14      H       2.9936292801    -1.7567431238     2.0778691840
   15      H       3.0019077331     0.6686877078     2.1258619662
   16      C      -3.0031999270    -1.2270021694     1.1899539180
   17      C      -3.0013622557     0.1805281600     1.2183313745
   18      C      -3.0007807463    -1.9265479175    -0.0297142993
   19      C      -3.0020710317    -1.1727852666    -1.2046126066
   20      C      -3.0022953949     0.2155188552    -1.1777701932
   21      C      -3.0039320529     0.9245694153     0.0249327180
   22      H      -2.9975827418     0.7658655953    -2.1125348333
   23      H      -3.0062085870    -1.6878977633    -2.1594748898
   24      C      -2.9913273069     2.4340832409     0.0009921404
   25      H      -2.1858736358     2.8429789768     0.6162198687
   26      H      -3.9251343060     2.8430529346     0.3911807380
   27      H      -2.8528256085     2.7925035887    -1.0205753743
   28      H      -2.9981517311    -2.9582256346    -0.0553408172
   29      H      -3.0063729760    -1.7532471156     2.0776902341
   30      H      -2.9980945230     0.6721837160     2.1256830163
 ----------------------------------------------------------------

   13    -543.2872768068      4.69E-09 Convergence criterion met
 Total energy in the final basis set = -543.28727681

                    Orbital Energies (a.u.)
 --------------------------------------------------------------

 Alpha MOs
 -- Occupied --
-10.183 -10.183 -10.171 -10.171 -10.170 -10.170 -10.168 -10.168
-10.168 -10.168 -10.167 -10.167 -10.167 -10.167  -0.856  -0.856
 -0.774  -0.774  -0.745  -0.745  -0.689  -0.689  -0.609  -0.609
 -0.588  -0.588  -0.519  -0.519  -0.463  -0.463  -0.460  -0.460
 -0.423  -0.422  -0.421  -0.421  -0.416  -0.416  -0.388  -0.388
 -0.355  -0.355  -0.348  -0.348  -0.340  -0.340  -0.252  -0.252
 -0.245  -0.245

          Ground-State Mulliken Net Atomic Charges

     Atom                 Charge (a.u.)
  ----------------------------------------
      1 C                    -0.012512
      2 C                    -0.427893
      3 C                    -0.342364
      4 C                    -0.044148
      5 C                    -0.770816
      6 C                     0.994090
      7 H                     0.132477
      8 H                     0.169928
      9 C                    -0.609994
     10 H                     0.146815
     11 H                     0.154115
     12 H                     0.147488
     13 H                     0.146479
     14 H                     0.158764
     15 H                     0.157102
     16 C                    -0.065965
     17 C                    -0.391111
     18 C                    -0.312692
     19 C                    -0.115724
     20 C                    -0.663707
     21 C                     0.942602
     22 H                     0.134203
     23 H                     0.169810
     24 C                    -0.612393
     25 H                     0.147335
     26 H                     0.157927
     27 H                     0.147191
     28 H                     0.146887
     29 H                     0.159505
     30 H                     0.156600
  ----------------------------------------
  Sum of atomic charges =     0.000000

                    Cartesian Multipole Moments
 -----------------------------------------------------------------
    Charge (ESU x 10^10)
                 0.0000
    Dipole Moment (Debye)
         X      -0.0044      Y       0.6966      Z       0.1364
       Tot       0.7099
    Quadrupole Moments (Debye-Ang)
        XX     -93.7570     XY       0.0366     YY     -77.0143
        XZ      -0.0304     YZ       0.0689     ZZ     -78.3409

 Total job time:  81.33s(wall), 323.25s(cpu)
        *  Thank you very much for using Q-Chem.  Have a nice day.  *
