 Q-Chem 5.0, Q-Chem, Inc., Pleasanton, CA (2017)
 Q-Chem 5.0.1 for Intel X86 EM64T Linux

User input:
--------------------------------------------------------------
$molecule
0  1
C        -0.54444000        -0.68370000        -0.06689000
C        -0.55709000        +0.71878000        +0.05493000
C        -1.74320000        -1.41616000        -0.12552000
C        -2.93952000        -0.70056000        -0.05285000
C        -2.95313000        +0.68255000        +0.06934000
C        -1.77161000        +1.42404000        +0.12810000
H        -3.90354000        +1.20325000        +0.11710000
H        -3.87892000        -1.24211000        -0.08988000
C        -1.83960000        +2.92746000        +0.24839000
C        -1.78103000        -2.92226000        -0.24590000
H        -1.39752000        -3.25223000        -1.21323000
H        -2.80572000        -3.28175000        -0.13627000
H        -1.16958000        -3.40777000        +0.51926000
H        -1.24214000        +3.42352000        -0.52065000
H        -1.45503000        +3.26427000        +1.21284000
H        -2.87211000        +3.26623000        +0.14638000
H        +0.35825000        -1.18166000        -0.11386000
H        +0.33551000        +1.23549000        +0.09097000
@C        -2.37299000        +0.30745000        +5.56108000
@C        -2.38564000        +1.70993000        +5.68290000
@C        -3.57175000        -0.42501000        +5.50245000
@C        -4.76807000        +0.29059000        +5.57512000
@C        -4.78168000        +1.67370000        +5.69731000
@C        -3.60016000        +2.41519000        +5.75607000
@H        -5.73209000        +2.19440000        +5.74507000
@H        -5.70747000        -0.25096000        +5.53809000
@C        -3.66815000        +3.91861000        +5.87636000
@C        -3.60958000        -1.93111000        +5.38207000
@H        -3.22607000        -2.26108000        +4.41474000
@H        -4.63427000        -2.29060000        +5.49170000
@H        -2.99813000        -2.41662000        +6.14723000
@H        -3.07069000        +4.41467000        +5.10732000
@H        -3.28358000        +4.25542000        +6.84081000
@H        -4.70066000        +4.25738000        +5.77435000
@H        -1.47030000        -0.19051000        +5.51411000
@H        -1.49304000        +2.22664000        +5.71894000
$end

$rem
JOBTYPE                   SP
METHOD                    B3LYP
DFT_D                     d3_op
BASIS                     6-311++G(d,p)
SYMMETRY                  False
THRESH                    12
SCF_CONVERGENCE           8
MAX_SUB_FILE_NUM          128
MEM_STATIC                400
MEM_TOTAL                 4000
$end
--------------------------------------------------------------

             Standard Nuclear Orientation (Angstroms)
    I     Atom           X                Y                Z
 ----------------------------------------------------------------
    1      C      -0.5444400000    -0.6837000000    -0.0668900000
    2      C      -0.5570900000     0.7187800000     0.0549300000
    3      C      -1.7432000000    -1.4161600000    -0.1255200000
    4      C      -2.9395200000    -0.7005600000    -0.0528500000
    5      C      -2.9531300000     0.6825500000     0.0693400000
    6      C      -1.7716100000     1.4240400000     0.1281000000
    7      H      -3.9035400000     1.2032500000     0.1171000000
    8      H      -3.8789200000    -1.2421100000    -0.0898800000
    9      C      -1.8396000000     2.9274600000     0.2483900000
   10      C      -1.7810300000    -2.9222600000    -0.2459000000
   11      H      -1.3975200000    -3.2522300000    -1.2132300000
   12      H      -2.8057200000    -3.2817500000    -0.1362700000
   13      H      -1.1695800000    -3.4077700000     0.5192600000
   14      H      -1.2421400000     3.4235200000    -0.5206500000
   15      H      -1.4550300000     3.2642700000     1.2128400000
   16      H      -2.8721100000     3.2662300000     0.1463800000
   17      H       0.3582500000    -1.1816600000    -0.1138600000
   18      H       0.3355100000     1.2354900000     0.0909700000
   19      GH     -2.3729900000     0.3074500000     5.5610800000
   20      GH     -2.3856400000     1.7099300000     5.6829000000
   21      GH     -3.5717500000    -0.4250100000     5.5024500000
   22      GH     -4.7680700000     0.2905900000     5.5751200000
   23      GH     -4.7816800000     1.6737000000     5.6973100000
   24      GH     -3.6001600000     2.4151900000     5.7560700000
   25      GH     -5.7320900000     2.1944000000     5.7450700000
   26      GH     -5.7074700000    -0.2509600000     5.5380900000
   27      GH     -3.6681500000     3.9186100000     5.8763600000
   28      GH     -3.6095800000    -1.9311100000     5.3820700000
   29      GH     -3.2260700000    -2.2610800000     4.4147400000
   30      GH     -4.6342700000    -2.2906000000     5.4917000000
   31      GH     -2.9981300000    -2.4166200000     6.1472300000
   32      GH     -3.0706900000     4.4146700000     5.1073200000
   33      GH     -3.2835800000     4.2554200000     6.8408100000
   34      GH     -4.7006600000     4.2573800000     5.7743500000
   35      GH     -1.4703000000    -0.1905100000     5.5141100000
   36      GH     -1.4930400000     2.2266400000     5.7189400000
 ----------------------------------------------------------------

   12    -310.9758893818      7.07E-09 Convergence criterion met
 Total energy in the final basis set = -310.97588938

                    Orbital Energies (a.u.)
 --------------------------------------------------------------

 Alpha MOs
 -- Occupied --
-10.180 -10.180 -10.168 -10.168 -10.168 -10.167 -10.167 -10.167
 -0.859  -0.787  -0.745  -0.721  -0.658  -0.612  -0.577  -0.496
 -0.472  -0.460  -0.425  -0.421  -0.417  -0.404  -0.397  -0.376
 -0.345  -0.342  -0.339  -0.252  -0.236

          Ground-State Mulliken Net Atomic Charges

     Atom                 Charge (a.u.)
  ----------------------------------------
      1 C                    -0.147320
      2 C                    -0.279772
      3 C                     0.610736
      4 C                    -0.526666
      5 C                    -0.501574
      6 C                     0.592380
      7 H                     0.149610
      8 H                     0.140474
      9 C                    -0.640882
     10 C                    -0.616787
     11 H                     0.155831
     12 H                     0.147967
     13 H                     0.149545
     14 H                     0.143971
     15 H                     0.162482
     16 H                     0.141840
     17 H                     0.159594
     18 H                     0.167087
     19 GH                   -0.004696
     20 GH                   -0.003390
     21 GH                    0.000824
     22 GH                   -0.004534
     23 GH                   -0.001475
     24 GH                    0.005099
     25 GH                   -0.000172
     26 GH                   -0.000764
     27 GH                    0.001840
     28 GH                    0.004176
     29 GH                   -0.006406
     30 GH                    0.000504
     31 GH                   -0.000135
     32 GH                    0.000189
     33 GH                   -0.000012
     34 GH                    0.000079
     35 GH                    0.000290
     36 GH                    0.000069
  ----------------------------------------
  Sum of atomic charges =     0.000000

                    Cartesian Multipole Moments
 -----------------------------------------------------------------
    Charge (ESU x 10^10)
                 0.0000
    Dipole Moment (Debye)
         X       0.0915      Y       0.0013      Z       0.0057
       Tot       0.0917
    Quadrupole Moments (Debye-Ang)
        XX     -46.2662     XY       0.0021     YY     -44.6890
        XZ      -0.0604     YZ       0.6787     ZZ     -52.7193

 Total job time:  119.47s(wall), 474.87s(cpu)
        *  Thank you very much for using Q-Chem.  Have a nice day.  *
