 Q-Chem 5.0, Q-Chem, Inc., Pleasanton, CA (2017)
 Q-Chem 5.0.1 for Intel X86 EM64T Linux

User input:
--------------------------------------------------------------
$molecule
0  1
--
0  1
C        -0.54444000        -0.68370000        -0.06689000
C        -0.55709000        +0.71878000        +0.05493000
C        -1.74320000        -1.41616000        -0.12552000
C        -2.93952000        -0.70056000        -0.05285000
C        -2.95313000        +0.68255000        +0.06934000
C        -1.77161000        +1.42404000        +0.12810000
H        -3.90354000        +1.20325000        +0.11710000
H        -3.87892000        -1.24211000        -0.08988000
C        -1.83960000        +2.92746000        +0.24839000
C        -1.78103000        -2.92226000        -0.24590000
H        -1.39752000        -3.25223000        -1.21323000
H        -2.80572000        -3.28175000        -0.13627000
H        -1.16958000        -3.40777000        +0.51926000
H        -1.24214000        +3.42352000        -0.52065000
H        -1.45503000        +3.26427000        +1.21284000
H        -2.87211000        +3.26623000        +0.14638000
H        +0.35825000        -1.18166000        -0.11386000
H        +0.33551000        +1.23549000        +0.09097000
--
0  1
C        -2.37299000        +0.30745000        +5.56108000
C        -2.38564000        +1.70993000        +5.68290000
C        -3.57175000        -0.42501000        +5.50245000
C        -4.76807000        +0.29059000        +5.57512000
C        -4.78168000        +1.67370000        +5.69731000
C        -3.60016000        +2.41519000        +5.75607000
H        -5.73209000        +2.19440000        +5.74507000
H        -5.70747000        -0.25096000        +5.53809000
C        -3.66815000        +3.91861000        +5.87636000
C        -3.60958000        -1.93111000        +5.38207000
H        -3.22607000        -2.26108000        +4.41474000
H        -4.63427000        -2.29060000        +5.49170000
H        -2.99813000        -2.41662000        +6.14723000
H        -3.07069000        +4.41467000        +5.10732000
H        -3.28358000        +4.25542000        +6.84081000
H        -4.70066000        +4.25738000        +5.77435000
H        -1.47030000        -0.19051000        +5.51411000
H        -1.49304000        +2.22664000        +5.71894000
$end

$rem
JOBTYPE                   SP
METHOD                    B3LYP
DFT_D                     d3_op
BASIS                     6-311++G(d,p)
SYMMETRY                  False
THRESH                    12
SCF_CONVERGENCE           8
MAX_SUB_FILE_NUM          128
MEM_STATIC                400
MEM_TOTAL                 4000
$end
--------------------------------------------------------------

             Standard Nuclear Orientation (Angstroms)
    I     Atom           X                Y                Z
 ----------------------------------------------------------------
    1      C       3.6307152517    -0.0469150850     1.0541125507
    2      C       3.0972251431     1.2553764670     1.0170274728
    3      C       3.5187195100    -0.9069593963    -0.0525678017
    4      C       2.8558993208    -0.4215528077    -1.1811047626
    5      C       2.3275692461     0.8620411188    -1.2180217541
    6      C       2.4312215302     1.7281013267    -0.1278632388
    7      H       1.8242721735     1.2047566888    -2.1157559968
    8      H       2.7504095423    -1.0669710576    -2.0467993811
    9      C       1.8511535544     3.1187832608    -0.2221443194
   10      C       4.0657722045    -2.3158495874    -0.0571983659
   11      H       5.1568018532    -2.3174292490    -0.0206024621
   12      H       3.7466369675    -2.8392380826    -0.9602258166
   13      H       3.7193520275    -2.8904097724     0.8058975401
   14      H       2.5851671697     3.8835359492     0.0440019466
   15      H       1.0067128780     3.2414419831     0.4585712198
   16      H       1.5106359136     3.3156155076    -1.2402567180
   17      H       4.1112063798    -0.3752412600     1.9063741169
   18      H       3.1960506438     1.8704530672     1.8397893837
   19      C      -2.3098675108    -0.8629380352     1.2629252225
   20      C      -2.8433576194     0.4393535168     1.2258401446
   21      C      -2.4218632526    -1.7229823465     0.1562448700
   22      C      -3.0846834417    -1.2375757579    -0.9722920908
   23      C      -3.6130135164     0.0460181686    -1.0092090823
   24      C      -3.5093612324     0.9120783764     0.0809494330
   25      H      -4.1163105890     0.3887337386    -1.9069433251
   26      H      -3.1901732203    -1.8829940078    -1.8379867094
   27      C      -4.0894292081     2.3027603106    -0.0133316477
   28      C      -1.8748105581    -3.1318725376     0.1516143059
   29      H      -0.7837809094    -3.1334521992     0.1882102096
   30      H      -2.1939457951    -3.6552610328    -0.7514131448
   31      H      -2.2212307350    -3.7064327226     1.0147102119
   32      H      -3.3554155928     3.0675129990     0.2528146184
   33      H      -4.9338698846     2.4254190329     0.6673838915
   34      H      -4.4299468489     2.4995925574    -1.0314440462
   35      H      -1.8293763827    -1.1912642102     2.1151867887
   36      H      -2.7445321188     1.0544301170     2.0486020555
 ----------------------------------------------------------------

   13    -621.9523736203      6.01E-09 Convergence criterion met
 Total energy in the final basis set = -621.95237362

                    Orbital Energies (a.u.)
 --------------------------------------------------------------

 Alpha MOs
 -- Occupied --
-10.178 -10.178 -10.178 -10.178 -10.166 -10.166 -10.166 -10.166
-10.166 -10.166 -10.166 -10.165 -10.165 -10.165 -10.165 -10.165
 -0.857  -0.856  -0.786  -0.785  -0.743  -0.743  -0.719  -0.719
 -0.656  -0.656  -0.610  -0.610  -0.575  -0.575  -0.494  -0.494
 -0.470  -0.470  -0.458  -0.458  -0.423  -0.423  -0.419  -0.419
 -0.415  -0.415  -0.403  -0.402  -0.396  -0.395  -0.374  -0.374
 -0.344  -0.343  -0.341  -0.341  -0.337  -0.337  -0.250  -0.250
 -0.235  -0.234

          Ground-State Mulliken Net Atomic Charges

     Atom                 Charge (a.u.)
  ----------------------------------------
      1 C                    -0.147974
      2 C                    -0.285484
      3 C                     0.605473
      4 C                    -0.523714
      5 C                    -0.498253
      6 C                     0.611626
      7 H                     0.148780
      8 H                     0.138238
      9 C                    -0.652342
     10 C                    -0.616571
     11 H                     0.155838
     12 H                     0.147369
     13 H                     0.148435
     14 H                     0.142779
     15 H                     0.160595
     16 H                     0.142397
     17 H                     0.158420
     18 H                     0.165704
     19 C                    -0.182837
     20 C                    -0.157100
     21 C                     0.650494
     22 C                    -0.632311
     23 C                    -0.578627
     24 C                     0.661119
     25 H                     0.140526
     26 H                     0.146934
     27 C                    -0.619715
     28 C                    -0.645762
     29 H                     0.151807
     30 H                     0.144809
     31 H                     0.146160
     32 H                     0.147431
     33 H                     0.158043
     34 H                     0.147545
     35 H                     0.161968
     36 H                     0.158200
  ----------------------------------------
  Sum of atomic charges =    -0.000000

                    Cartesian Multipole Moments
 -----------------------------------------------------------------
    Charge (ESU x 10^10)
                -0.0000
    Dipole Moment (Debye)
         X       0.0675      Y       0.0327      Z       0.1574
       Tot       0.1744
    Quadrupole Moments (Debye-Ang)
        XX    -102.7928     XY      -4.8964     YY     -91.5800
        XZ       4.1421     YZ       1.5797     ZZ     -93.7097

 Total job time:  135.97s(wall), 541.07s(cpu)
        *  Thank you very much for using Q-Chem.  Have a nice day.  *
