 Q-Chem 5.0, Q-Chem, Inc., Pleasanton, CA (2017)
 Q-Chem 5.0.1 for Intel X86 EM64T Linux

User input:
--------------------------------------------------------------
$molecule
0  1
--
0  1
C        -0.54444000        -0.68370000        -0.06689000
C        -0.55709000        +0.71878000        +0.05493000
C        -1.74320000        -1.41616000        -0.12552000
C        -2.93952000        -0.70056000        -0.05285000
C        -2.95313000        +0.68255000        +0.06934000
C        -1.77161000        +1.42404000        +0.12810000
H        -3.90354000        +1.20325000        +0.11710000
H        -3.87892000        -1.24211000        -0.08988000
C        -1.83960000        +2.92746000        +0.24839000
C        -1.78103000        -2.92226000        -0.24590000
H        -1.39752000        -3.25223000        -1.21323000
H        -2.80572000        -3.28175000        -0.13627000
H        -1.16958000        -3.40777000        +0.51926000
H        -1.24214000        +3.42352000        -0.52065000
H        -1.45503000        +3.26427000        +1.21284000
H        -2.87211000        +3.26623000        +0.14638000
H        +0.35825000        -1.18166000        -0.11386000
H        +0.33551000        +1.23549000        +0.09097000
--
0  1
C        -1.97681000        +0.09270000        +4.34168000
C        -1.98946000        +1.49518000        +4.46350000
C        -3.17557000        -0.63976000        +4.28305000
C        -4.37189000        +0.07584000        +4.35572000
C        -4.38550000        +1.45895000        +4.47791000
C        -3.20398000        +2.20044000        +4.53667000
H        -5.33591000        +1.97965000        +4.52567000
H        -5.31129000        -0.46571000        +4.31869000
C        -3.27197000        +3.70386000        +4.65696000
C        -3.21340000        -2.14586000        +4.16267000
H        -2.82989000        -2.47583000        +3.19534000
H        -4.23809000        -2.50535000        +4.27230000
H        -2.60195000        -2.63137000        +4.92783000
H        -2.67451000        +4.19992000        +3.88792000
H        -2.88740000        +4.04067000        +5.62141000
H        -4.30448000        +4.04263000        +4.55495000
H        -1.07412000        -0.40526000        +4.29471000
H        -1.09686000        +2.01189000        +4.49954000
$end

$rem
JOBTYPE                   SP
METHOD                    B3LYP
DFT_D                     d3_op
BASIS                     6-311++G(d,p)
SYMMETRY                  False
THRESH                    12
SCF_CONVERGENCE           8
MAX_SUB_FILE_NUM          128
MEM_STATIC                400
MEM_TOTAL                 4000
$end
--------------------------------------------------------------

             Standard Nuclear Orientation (Angstroms)
    I     Atom           X                Y                Z
 ----------------------------------------------------------------
    1      C       2.9931533860     0.3591223787     1.0063817218
    2      C       2.2577454855     1.5589505668     0.9671666197
    3      C       2.9959142859    -0.5244207100    -0.0873754057
    4      C       2.2395955595    -0.1680677949    -1.2052038430
    5      C       1.5122714959     1.0141297357    -1.2441602976
    6      C       1.4999547565     1.9020303917    -0.1667883140
    7      H       0.9412217705     1.2585680483    -2.1334525995
    8      H       2.2197378928    -0.8350728605    -2.0606744147
    9      C       0.7032074734     3.1808135559    -0.2630764569
   10      C       3.7608308016    -1.8279389725    -0.0889649418
   11      H       4.8386296173    -1.6549435883    -0.0784883180
   12      H       3.5098110189    -2.4091280812    -0.9780373133
   13      H       3.5295767805    -2.4372672995     0.7887032505
   14      H       1.3112179874     4.0567791032    -0.0233598083
   15      H      -0.1349336798     3.1775138375     0.4362141713
   16      H       0.3134917371     3.3053918308    -1.2749311656
   17      H       3.5384047202     0.1245624088     1.8505986262
   18      H       2.2749380734     2.1942934032     1.7802267410
   19      C      -1.4936788686    -1.0115125079     1.2886343541
   20      C      -2.2290867691     0.1883156802     1.2494192520
   21      C      -1.4909179687    -1.8950555966     0.1948772265
   22      C      -2.2472366951    -1.5387026815    -0.9229512108
   23      C      -2.9745607588    -0.3565051508    -0.9619076654
   24      C      -2.9868774981     0.5313955051     0.1154643183
   25      H      -3.5456104841    -0.1120668382    -1.8511999673
   26      H      -2.2670943618    -2.2057077471    -1.7784217824
   27      C      -3.7836247812     1.8101786693     0.0191761754
   28      C      -0.7260014530    -3.1985738591     0.1932876904
   29      H       0.3517973627    -3.0255784748     0.2037643143
   30      H      -0.9770212357    -3.7797629678    -0.6957846811
   31      H      -0.9572554741    -3.8079021860     1.0709558828
   32      H      -3.1756142672     2.6861442166     0.2588928239
   33      H      -4.6217659344     1.8068789510     0.7184668036
   34      H      -4.1733405175     1.9347569442    -0.9926785333
   35      H      -0.9484275344    -1.2460724778     2.1328512584
   36      H      -2.2118941812     0.8236585166     2.0624793733
 ----------------------------------------------------------------

   13    -621.9555042988      7.79E-09 Convergence criterion met
 Total energy in the final basis set = -621.95550430

                    Orbital Energies (a.u.)
 --------------------------------------------------------------

 Alpha MOs
 -- Occupied --
-10.178 -10.177 -10.177 -10.177 -10.166 -10.166 -10.165 -10.165
-10.165 -10.165 -10.165 -10.164 -10.164 -10.164 -10.164 -10.164
 -0.856  -0.855  -0.785  -0.784  -0.742  -0.742  -0.719  -0.718
 -0.656  -0.655  -0.609  -0.609  -0.574  -0.574  -0.493  -0.493
 -0.469  -0.469  -0.457  -0.457  -0.425  -0.420  -0.418  -0.418
 -0.416  -0.412  -0.402  -0.402  -0.395  -0.395  -0.374  -0.373
 -0.344  -0.340  -0.340  -0.340  -0.336  -0.336  -0.250  -0.248
 -0.234  -0.233

          Ground-State Mulliken Net Atomic Charges

     Atom                 Charge (a.u.)
  ----------------------------------------
      1 C                    -0.224990
      2 C                    -0.384422
      3 C                     0.482996
      4 C                    -0.403742
      5 C                    -0.348594
      6 C                     0.689683
      7 H                     0.146666
      8 H                     0.147261
      9 C                    -0.681358
     10 C                    -0.653979
     11 H                     0.156071
     12 H                     0.138385
     13 H                     0.151471
     14 H                     0.144042
     15 H                     0.165636
     16 H                     0.137178
     17 H                     0.163294
     18 H                     0.166546
     19 C                    -0.407890
     20 C                    -0.236215
     21 C                     0.679203
     22 C                    -0.411411
     23 C                    -0.489357
     24 C                     0.603706
     25 H                     0.147979
     26 H                     0.157853
     27 C                    -0.620259
     28 C                    -0.665981
     29 H                     0.197821
     30 H                     0.133894
     31 H                     0.146752
     32 H                     0.152146
     33 H                     0.160318
     34 H                     0.140256
     35 H                     0.153003
     36 H                     0.166040
  ----------------------------------------
  Sum of atomic charges =    -0.000000

                    Cartesian Multipole Moments
 -----------------------------------------------------------------
    Charge (ESU x 10^10)
                -0.0000
    Dipole Moment (Debye)
         X       0.0755      Y       0.0463      Z       0.1389
       Tot       0.1648
    Quadrupole Moments (Debye-Ang)
        XX    -101.0771     XY      -6.1766     YY     -93.8080
        XZ       3.9976     YZ       2.2869     ZZ     -94.1121

 Total job time:  158.86s(wall), 632.02s(cpu)
        *  Thank you very much for using Q-Chem.  Have a nice day.  *
