 Q-Chem 5.0, Q-Chem, Inc., Pleasanton, CA (2017)
 Q-Chem 5.0.1 for Intel X86 EM64T Linux

User input:
--------------------------------------------------------------
$molecule
0  1
C        -0.54444000        -0.68370000        -0.06689000
C        -0.55709000        +0.71878000        +0.05493000
C        -1.74320000        -1.41616000        -0.12552000
C        -2.93952000        -0.70056000        -0.05285000
C        -2.95313000        +0.68255000        +0.06934000
C        -1.77161000        +1.42404000        +0.12810000
H        -3.90354000        +1.20325000        +0.11710000
H        -3.87892000        -1.24211000        -0.08988000
C        -1.83960000        +2.92746000        +0.24839000
C        -1.78103000        -2.92226000        -0.24590000
H        -1.39752000        -3.25223000        -1.21323000
H        -2.80572000        -3.28175000        -0.13627000
H        -1.16958000        -3.40777000        +0.51926000
H        -1.24214000        +3.42352000        -0.52065000
H        -1.45503000        +3.26427000        +1.21284000
H        -2.87211000        +3.26623000        +0.14638000
H        +0.35825000        -1.18166000        -0.11386000
H        +0.33551000        +1.23549000        +0.09097000
@C        -1.97681000        +0.09270000        +4.34168000
@C        -1.98946000        +1.49518000        +4.46350000
@C        -3.17557000        -0.63976000        +4.28305000
@C        -4.37189000        +0.07584000        +4.35572000
@C        -4.38550000        +1.45895000        +4.47791000
@C        -3.20398000        +2.20044000        +4.53667000
@H        -5.33591000        +1.97965000        +4.52567000
@H        -5.31129000        -0.46571000        +4.31869000
@C        -3.27197000        +3.70386000        +4.65696000
@C        -3.21340000        -2.14586000        +4.16267000
@H        -2.82989000        -2.47583000        +3.19534000
@H        -4.23809000        -2.50535000        +4.27230000
@H        -2.60195000        -2.63137000        +4.92783000
@H        -2.67451000        +4.19992000        +3.88792000
@H        -2.88740000        +4.04067000        +5.62141000
@H        -4.30448000        +4.04263000        +4.55495000
@H        -1.07412000        -0.40526000        +4.29471000
@H        -1.09686000        +2.01189000        +4.49954000
$end

$rem
JOBTYPE                   SP
METHOD                    B3LYP
DFT_D                     d3_op
BASIS                     6-311++G(d,p)
SYMMETRY                  False
THRESH                    12
SCF_CONVERGENCE           8
MAX_SUB_FILE_NUM          128
MEM_STATIC                400
MEM_TOTAL                 4000
$end
--------------------------------------------------------------

             Standard Nuclear Orientation (Angstroms)
    I     Atom           X                Y                Z
 ----------------------------------------------------------------
    1      C      -0.5444400000    -0.6837000000    -0.0668900000
    2      C      -0.5570900000     0.7187800000     0.0549300000
    3      C      -1.7432000000    -1.4161600000    -0.1255200000
    4      C      -2.9395200000    -0.7005600000    -0.0528500000
    5      C      -2.9531300000     0.6825500000     0.0693400000
    6      C      -1.7716100000     1.4240400000     0.1281000000
    7      H      -3.9035400000     1.2032500000     0.1171000000
    8      H      -3.8789200000    -1.2421100000    -0.0898800000
    9      C      -1.8396000000     2.9274600000     0.2483900000
   10      C      -1.7810300000    -2.9222600000    -0.2459000000
   11      H      -1.3975200000    -3.2522300000    -1.2132300000
   12      H      -2.8057200000    -3.2817500000    -0.1362700000
   13      H      -1.1695800000    -3.4077700000     0.5192600000
   14      H      -1.2421400000     3.4235200000    -0.5206500000
   15      H      -1.4550300000     3.2642700000     1.2128400000
   16      H      -2.8721100000     3.2662300000     0.1463800000
   17      H       0.3582500000    -1.1816600000    -0.1138600000
   18      H       0.3355100000     1.2354900000     0.0909700000
   19      GH     -1.9768100000     0.0927000000     4.3416800000
   20      GH     -1.9894600000     1.4951800000     4.4635000000
   21      GH     -3.1755700000    -0.6397600000     4.2830500000
   22      GH     -4.3718900000     0.0758400000     4.3557200000
   23      GH     -4.3855000000     1.4589500000     4.4779100000
   24      GH     -3.2039800000     2.2004400000     4.5366700000
   25      GH     -5.3359100000     1.9796500000     4.5256700000
   26      GH     -5.3112900000    -0.4657100000     4.3186900000
   27      GH     -3.2719700000     3.7038600000     4.6569600000
   28      GH     -3.2134000000    -2.1458600000     4.1626700000
   29      GH     -2.8298900000    -2.4758300000     3.1953400000
   30      GH     -4.2380900000    -2.5053500000     4.2723000000
   31      GH     -2.6019500000    -2.6313700000     4.9278300000
   32      GH     -2.6745100000     4.1999200000     3.8879200000
   33      GH     -2.8874000000     4.0406700000     5.6214100000
   34      GH     -4.3044800000     4.0426300000     4.5549500000
   35      GH     -1.0741200000    -0.4052600000     4.2947100000
   36      GH     -1.0968600000     2.0118900000     4.4995400000
 ----------------------------------------------------------------

   13    -310.9762971693      1.35E-09 Convergence criterion met
 Total energy in the final basis set = -310.97629717

                    Orbital Energies (a.u.)
 --------------------------------------------------------------

 Alpha MOs
 -- Occupied --
-10.180 -10.180 -10.168 -10.168 -10.168 -10.167 -10.167 -10.167
 -0.859  -0.787  -0.745  -0.721  -0.658  -0.612  -0.577  -0.496
 -0.472  -0.460  -0.425  -0.421  -0.417  -0.404  -0.397  -0.376
 -0.345  -0.343  -0.339  -0.252  -0.237

          Ground-State Mulliken Net Atomic Charges

     Atom                 Charge (a.u.)
  ----------------------------------------
      1 C                    -0.187287
      2 C                    -0.358131
      3 C                     0.537498
      4 C                    -0.419452
      5 C                    -0.382746
      6 C                     0.606901
      7 H                     0.158253
      8 H                     0.148891
      9 C                    -0.662709
     10 C                    -0.666917
     11 H                     0.156143
     12 H                     0.142016
     13 H                     0.151458
     14 H                     0.147678
     15 H                     0.175614
     16 H                     0.134389
     17 H                     0.167853
     18 H                     0.169063
     19 GH                   -0.090446
     20 GH                   -0.042706
     21 GH                    0.046258
     22 GH                    0.035641
     23 GH                   -0.016888
     24 GH                    0.044992
     25 GH                   -0.003028
     26 GH                    0.000861
     27 GH                    0.012388
     28 GH                   -0.003574
     29 GH                   -0.001524
     30 GH                   -0.000979
     31 GH                    0.000197
     32 GH                    0.000578
     33 GH                   -0.000428
     34 GH                    0.000595
     35 GH                   -0.006021
     36 GH                    0.005568
  ----------------------------------------
  Sum of atomic charges =     0.000000

                    Cartesian Multipole Moments
 -----------------------------------------------------------------
    Charge (ESU x 10^10)
                 0.0000
    Dipole Moment (Debye)
         X       0.0908      Y       0.0004      Z      -0.0019
       Tot       0.0908
    Quadrupole Moments (Debye-Ang)
        XX     -46.3059     XY       0.0009     YY     -44.7188
        XZ      -0.0434     YZ       0.6718     ZZ     -52.7010

 Total job time:  147.83s(wall), 588.36s(cpu)
        *  Thank you very much for using Q-Chem.  Have a nice day.  *
