 Q-Chem 5.0, Q-Chem, Inc., Pleasanton, CA (2017)
 Q-Chem 5.0.1 for Intel X86 EM64T Linux

User input:
--------------------------------------------------------------
$molecule
0  1
C        -2.37299000        +0.30745000        +5.56108000
C        -2.38564000        +1.70993000        +5.68290000
C        -3.57175000        -0.42501000        +5.50245000
C        -4.76807000        +0.29059000        +5.57512000
C        -4.78168000        +1.67370000        +5.69731000
C        -3.60016000        +2.41519000        +5.75607000
H        -5.73209000        +2.19440000        +5.74507000
H        -5.70747000        -0.25096000        +5.53809000
C        -3.66815000        +3.91861000        +5.87636000
C        -3.60958000        -1.93111000        +5.38207000
H        -3.22607000        -2.26108000        +4.41474000
H        -4.63427000        -2.29060000        +5.49170000
H        -2.99813000        -2.41662000        +6.14723000
H        -3.07069000        +4.41467000        +5.10732000
H        -3.28358000        +4.25542000        +6.84081000
H        -4.70066000        +4.25738000        +5.77435000
H        -1.47030000        -0.19051000        +5.51411000
H        -1.49304000        +2.22664000        +5.71894000
@C        -0.54444000        -0.68370000        -0.06689000
@C        -0.55709000        +0.71878000        +0.05493000
@C        -1.74320000        -1.41616000        -0.12552000
@C        -2.93952000        -0.70056000        -0.05285000
@C        -2.95313000        +0.68255000        +0.06934000
@C        -1.77161000        +1.42404000        +0.12810000
@H        -3.90354000        +1.20325000        +0.11710000
@H        -3.87892000        -1.24211000        -0.08988000
@C        -1.83960000        +2.92746000        +0.24839000
@C        -1.78103000        -2.92226000        -0.24590000
@H        -1.39752000        -3.25223000        -1.21323000
@H        -2.80572000        -3.28175000        -0.13627000
@H        -1.16958000        -3.40777000        +0.51926000
@H        -1.24214000        +3.42352000        -0.52065000
@H        -1.45503000        +3.26427000        +1.21284000
@H        -2.87211000        +3.26623000        +0.14638000
@H        +0.35825000        -1.18166000        -0.11386000
@H        +0.33551000        +1.23549000        +0.09097000
$end

$rem
JOBTYPE                   SP
METHOD                    B3LYP
DFT_D                     d3_op
BASIS                     6-311++G(d,p)
SYMMETRY                  False
THRESH                    12
SCF_CONVERGENCE           8
MAX_SUB_FILE_NUM          128
MEM_STATIC                400
MEM_TOTAL                 4000
$end
--------------------------------------------------------------

             Standard Nuclear Orientation (Angstroms)
    I     Atom           X                Y                Z
 ----------------------------------------------------------------
    1      C      -2.3729900000     0.3074500000     5.5610800000
    2      C      -2.3856400000     1.7099300000     5.6829000000
    3      C      -3.5717500000    -0.4250100000     5.5024500000
    4      C      -4.7680700000     0.2905900000     5.5751200000
    5      C      -4.7816800000     1.6737000000     5.6973100000
    6      C      -3.6001600000     2.4151900000     5.7560700000
    7      H      -5.7320900000     2.1944000000     5.7450700000
    8      H      -5.7074700000    -0.2509600000     5.5380900000
    9      C      -3.6681500000     3.9186100000     5.8763600000
   10      C      -3.6095800000    -1.9311100000     5.3820700000
   11      H      -3.2260700000    -2.2610800000     4.4147400000
   12      H      -4.6342700000    -2.2906000000     5.4917000000
   13      H      -2.9981300000    -2.4166200000     6.1472300000
   14      H      -3.0706900000     4.4146700000     5.1073200000
   15      H      -3.2835800000     4.2554200000     6.8408100000
   16      H      -4.7006600000     4.2573800000     5.7743500000
   17      H      -1.4703000000    -0.1905100000     5.5141100000
   18      H      -1.4930400000     2.2266400000     5.7189400000
   19      GH     -0.5444400000    -0.6837000000    -0.0668900000
   20      GH     -0.5570900000     0.7187800000     0.0549300000
   21      GH     -1.7432000000    -1.4161600000    -0.1255200000
   22      GH     -2.9395200000    -0.7005600000    -0.0528500000
   23      GH     -2.9531300000     0.6825500000     0.0693400000
   24      GH     -1.7716100000     1.4240400000     0.1281000000
   25      GH     -3.9035400000     1.2032500000     0.1171000000
   26      GH     -3.8789200000    -1.2421100000    -0.0898800000
   27      GH     -1.8396000000     2.9274600000     0.2483900000
   28      GH     -1.7810300000    -2.9222600000    -0.2459000000
   29      GH     -1.3975200000    -3.2522300000    -1.2132300000
   30      GH     -2.8057200000    -3.2817500000    -0.1362700000
   31      GH     -1.1695800000    -3.4077700000     0.5192600000
   32      GH     -1.2421400000     3.4235200000    -0.5206500000
   33      GH     -1.4550300000     3.2642700000     1.2128400000
   34      GH     -2.8721100000     3.2662300000     0.1463800000
   35      GH      0.3582500000    -1.1816600000    -0.1138600000
   36      GH      0.3355100000     1.2354900000     0.0909700000
 ----------------------------------------------------------------

   11    -310.9759033167      9.17E-09 Convergence criterion met
 Total energy in the final basis set = -310.97590332

                    Orbital Energies (a.u.)
 --------------------------------------------------------------

 Alpha MOs
 -- Occupied --
-10.180 -10.180 -10.168 -10.168 -10.168 -10.167 -10.167 -10.167
 -0.859  -0.787  -0.745  -0.721  -0.658  -0.612  -0.577  -0.496
 -0.472  -0.460  -0.425  -0.421  -0.417  -0.404  -0.397  -0.376
 -0.345  -0.342  -0.339  -0.252  -0.236

          Ground-State Mulliken Net Atomic Charges

     Atom                 Charge (a.u.)
  ----------------------------------------
      1 C                    -0.178639
      2 C                    -0.153699
      3 C                     0.631235
      4 C                    -0.629386
      5 C                    -0.578744
      6 C                     0.657729
      7 H                     0.141687
      8 H                     0.148631
      9 C                    -0.619350
     10 C                    -0.636401
     11 H                     0.152662
     12 H                     0.145770
     13 H                     0.147358
     14 H                     0.148885
     15 H                     0.158401
     16 H                     0.147923
     17 H                     0.163000
     18 H                     0.159867
     19 GH                    0.000260
     20 GH                   -0.002555
     21 GH                    0.004797
     22 GH                   -0.003433
     23 GH                   -0.008804
     24 GH                    0.006829
     25 GH                    0.000084
     26 GH                   -0.001096
     27 GH                   -0.005244
     28 GH                    0.001966
     29 GH                    0.000034
     30 GH                    0.000138
     31 GH                    0.000543
     32 GH                   -0.000297
     33 GH                   -0.000135
     34 GH                    0.000677
     35 GH                   -0.000235
     36 GH                   -0.000460
  ----------------------------------------
  Sum of atomic charges =     0.000000

                    Cartesian Multipole Moments
 -----------------------------------------------------------------
    Charge (ESU x 10^10)
                 0.0000
    Dipole Moment (Debye)
         X       0.0924      Y       0.0023      Z      -0.0055
       Tot       0.0926
    Quadrupole Moments (Debye-Ang)
        XX     -46.6069     XY       0.0865     YY     -44.6898
        XZ       0.4951     YZ       0.6852     ZZ     -52.7810

 Total job time:  112.39s(wall), 446.84s(cpu)
        *  Thank you very much for using Q-Chem.  Have a nice day.  *
