 Q-Chem 5.0, Q-Chem, Inc., Pleasanton, CA (2017)
 Q-Chem 5.0.1 for Intel X86 EM64T Linux

User input:
--------------------------------------------------------------
$molecule
0  1
C        -1.97681000        +0.09270000        +4.34168000
C        -1.98946000        +1.49518000        +4.46350000
C        -3.17557000        -0.63976000        +4.28305000
C        -4.37189000        +0.07584000        +4.35572000
C        -4.38550000        +1.45895000        +4.47791000
C        -3.20398000        +2.20044000        +4.53667000
H        -5.33591000        +1.97965000        +4.52567000
H        -5.31129000        -0.46571000        +4.31869000
C        -3.27197000        +3.70386000        +4.65696000
C        -3.21340000        -2.14586000        +4.16267000
H        -2.82989000        -2.47583000        +3.19534000
H        -4.23809000        -2.50535000        +4.27230000
H        -2.60195000        -2.63137000        +4.92783000
H        -2.67451000        +4.19992000        +3.88792000
H        -2.88740000        +4.04067000        +5.62141000
H        -4.30448000        +4.04263000        +4.55495000
H        -1.07412000        -0.40526000        +4.29471000
H        -1.09686000        +2.01189000        +4.49954000
@C        -0.54444000        -0.68370000        -0.06689000
@C        -0.55709000        +0.71878000        +0.05493000
@C        -1.74320000        -1.41616000        -0.12552000
@C        -2.93952000        -0.70056000        -0.05285000
@C        -2.95313000        +0.68255000        +0.06934000
@C        -1.77161000        +1.42404000        +0.12810000
@H        -3.90354000        +1.20325000        +0.11710000
@H        -3.87892000        -1.24211000        -0.08988000
@C        -1.83960000        +2.92746000        +0.24839000
@C        -1.78103000        -2.92226000        -0.24590000
@H        -1.39752000        -3.25223000        -1.21323000
@H        -2.80572000        -3.28175000        -0.13627000
@H        -1.16958000        -3.40777000        +0.51926000
@H        -1.24214000        +3.42352000        -0.52065000
@H        -1.45503000        +3.26427000        +1.21284000
@H        -2.87211000        +3.26623000        +0.14638000
@H        +0.35825000        -1.18166000        -0.11386000
@H        +0.33551000        +1.23549000        +0.09097000
$end

$rem
JOBTYPE                   SP
METHOD                    B3LYP
DFT_D                     d3_op
BASIS                     6-311++G(d,p)
SYMMETRY                  False
THRESH                    12
SCF_CONVERGENCE           8
MAX_SUB_FILE_NUM          128
MEM_STATIC                400
MEM_TOTAL                 4000
$end
--------------------------------------------------------------

             Standard Nuclear Orientation (Angstroms)
    I     Atom           X                Y                Z
 ----------------------------------------------------------------
    1      C      -1.9768100000     0.0927000000     4.3416800000
    2      C      -1.9894600000     1.4951800000     4.4635000000
    3      C      -3.1755700000    -0.6397600000     4.2830500000
    4      C      -4.3718900000     0.0758400000     4.3557200000
    5      C      -4.3855000000     1.4589500000     4.4779100000
    6      C      -3.2039800000     2.2004400000     4.5366700000
    7      H      -5.3359100000     1.9796500000     4.5256700000
    8      H      -5.3112900000    -0.4657100000     4.3186900000
    9      C      -3.2719700000     3.7038600000     4.6569600000
   10      C      -3.2134000000    -2.1458600000     4.1626700000
   11      H      -2.8298900000    -2.4758300000     3.1953400000
   12      H      -4.2380900000    -2.5053500000     4.2723000000
   13      H      -2.6019500000    -2.6313700000     4.9278300000
   14      H      -2.6745100000     4.1999200000     3.8879200000
   15      H      -2.8874000000     4.0406700000     5.6214100000
   16      H      -4.3044800000     4.0426300000     4.5549500000
   17      H      -1.0741200000    -0.4052600000     4.2947100000
   18      H      -1.0968600000     2.0118900000     4.4995400000
   19      GH     -0.5444400000    -0.6837000000    -0.0668900000
   20      GH     -0.5570900000     0.7187800000     0.0549300000
   21      GH     -1.7432000000    -1.4161600000    -0.1255200000
   22      GH     -2.9395200000    -0.7005600000    -0.0528500000
   23      GH     -2.9531300000     0.6825500000     0.0693400000
   24      GH     -1.7716100000     1.4240400000     0.1281000000
   25      GH     -3.9035400000     1.2032500000     0.1171000000
   26      GH     -3.8789200000    -1.2421100000    -0.0898800000
   27      GH     -1.8396000000     2.9274600000     0.2483900000
   28      GH     -1.7810300000    -2.9222600000    -0.2459000000
   29      GH     -1.3975200000    -3.2522300000    -1.2132300000
   30      GH     -2.8057200000    -3.2817500000    -0.1362700000
   31      GH     -1.1695800000    -3.4077700000     0.5192600000
   32      GH     -1.2421400000     3.4235200000    -0.5206500000
   33      GH     -1.4550300000     3.2642700000     1.2128400000
   34      GH     -2.8721100000     3.2662300000     0.1463800000
   35      GH      0.3582500000    -1.1816600000    -0.1138600000
   36      GH      0.3355100000     1.2354900000     0.0909700000
 ----------------------------------------------------------------

   12    -310.9762723009      8.46E-09 Convergence criterion met
 Total energy in the final basis set = -310.97627230

                    Orbital Energies (a.u.)
 --------------------------------------------------------------

 Alpha MOs
 -- Occupied --
-10.180 -10.180 -10.168 -10.168 -10.168 -10.167 -10.167 -10.167
 -0.859  -0.787  -0.745  -0.721  -0.658  -0.612  -0.577  -0.496
 -0.472  -0.460  -0.425  -0.421  -0.417  -0.404  -0.397  -0.376
 -0.345  -0.343  -0.339  -0.252  -0.236

          Ground-State Mulliken Net Atomic Charges

     Atom                 Charge (a.u.)
  ----------------------------------------
      1 C                    -0.345948
      2 C                    -0.193534
      3 C                     0.612212
      4 C                    -0.446045
      5 C                    -0.468655
      6 C                     0.570907
      7 H                     0.153313
      8 H                     0.159565
      9 C                    -0.637945
     10 C                    -0.640386
     11 H                     0.190670
     12 H                     0.137351
     13 H                     0.148503
     14 H                     0.156425
     15 H                     0.161112
     16 H                     0.140340
     17 H                     0.163590
     18 H                     0.164050
     19 GH                   -0.026802
     20 GH                   -0.027401
     21 GH                   -0.021391
     22 GH                    0.003892
     23 GH                    0.004756
     24 GH                    0.062730
     25 GH                   -0.006809
     26 GH                    0.000395
     27 GH                   -0.015913
     28 GH                    0.003206
     29 GH                   -0.000065
     30 GH                   -0.002012
     31 GH                    0.003546
     32 GH                   -0.001838
     33 GH                   -0.003844
     34 GH                    0.004707
     35 GH                   -0.002406
     36 GH                   -0.000275
  ----------------------------------------
  Sum of atomic charges =     0.000000

                    Cartesian Multipole Moments
 -----------------------------------------------------------------
    Charge (ESU x 10^10)
                 0.0000
    Dipole Moment (Debye)
         X       0.0914      Y       0.0047      Z       0.0004
       Tot       0.0916
    Quadrupole Moments (Debye-Ang)
        XX     -46.5681     XY       0.0575     YY     -44.7185
        XZ       0.3660     YZ       0.6904     ZZ     -52.6968

 Total job time:  139.20s(wall), 554.17s(cpu)
        *  Thank you very much for using Q-Chem.  Have a nice day.  *
