 Q-Chem 5.0, Q-Chem, Inc., Pleasanton, CA (2017)
 Q-Chem 5.0.1 for Intel X86 EM64T Linux

User input:
--------------------------------------------------------------
$molecule
0  1
C        +0.22270000        +1.04488000        +0.58595000
C        +0.62626000        -0.41353000        +0.99871000
C        -1.18200000        +1.23223000        +0.04377000
C        -0.37457000        -1.51643000        +0.72333000
O        -2.09172000        +0.78832000        +0.93966000
O        -1.47336000        +1.75939000        -0.99882000
O        -0.91364000        -1.42792000        -0.50620000
O        -0.62208000        -2.40877000        +1.49911000
C        -1.86134000        -2.44741000        -0.86560000
C        -3.47068000        +0.87492000        +0.53920000
C        +1.33008000        +1.39974000        -0.43491000
C        +2.63070000        +1.71700000        +0.32855000
C        +3.04336000        +0.29351000        +0.80300000
C        +1.94423000        -0.59299000        +0.15262000
O        +1.62840000        +0.13663000        -1.04376000
H        +0.27811000        +1.68786000        +1.46900000
H        +0.83923000        -0.48042000        +2.06408000
H        -2.68749000        -2.46677000        -0.15296000
H        -3.76076000        +1.91522000        +0.38406000
H        +3.37234000        +2.13782000        -0.35195000
H        +2.48236000        +2.42488000        +1.14651000
H        +4.02182000        +0.00994000        +0.41161000
H        +3.07359000        +0.18738000        +1.88928000
H        -2.21148000        -2.17765000        -1.85937000
H        -1.38062000        -3.42697000        -0.88096000
H        -4.03855000        +0.43623000        +1.35671000
H        -3.63120000        +0.31700000        -0.38495000
H        +1.03270000        +2.19943000        -1.08064000
H        +2.24339000        -1.61496000        +0.04786000
@C        +0.24931000        +2.55188000        +5.45814000
@C        +0.65287000        +1.09347000        +5.87090000
@C        -1.15539000        +2.73923000        +4.91596000
@C        -0.34796000        -0.00943000        +5.59552000
@O        -2.06511000        +2.29532000        +5.81185000
@O        -1.44675000        +3.26639000        +3.87337000
@O        -0.88703000        +0.07908000        +4.36599000
@O        -0.59547000        -0.90177000        +6.37130000
@C        -1.83473000        -0.94041000        +4.00659000
@C        -3.44407000        +2.38192000        +5.41139000
@C        +1.35669000        +2.90674000        +4.43728000
@C        +2.65731000        +3.22400000        +5.20074000
@C        +3.06997000        +1.80051000        +5.67519000
@C        +1.97084000        +0.91401000        +5.02481000
@O        +1.65501000        +1.64363000        +3.82843000
@H        +0.30472000        +3.19486000        +6.34119000
@H        +0.86584000        +1.02658000        +6.93627000
@H        -2.66088000        -0.95977000        +4.71923000
@H        -3.73415000        +3.42222000        +5.25625000
@H        +3.39895000        +3.64482000        +4.52024000
@H        +2.50897000        +3.93188000        +6.01870000
@H        +4.04843000        +1.51694000        +5.28380000
@H        +3.10020000        +1.69438000        +6.76147000
@H        -2.18487000        -0.67065000        +3.01282000
@H        -1.35401000        -1.91997000        +3.99123000
@H        -4.01194000        +1.94323000        +6.22890000
@H        -3.60459000        +1.82400000        +4.48724000
@H        +1.05931000        +3.70643000        +3.79155000
@H        +2.27000000        -0.10796000        +4.92005000
$end

$rem
JOBTYPE                   SP
METHOD                    B3LYP
DFT_D                     d3_op
BASIS                     6-311++G(d,p)
SYMMETRY                  False
THRESH                    12
SCF_CONVERGENCE           8
MAX_SUB_FILE_NUM          128
MEM_STATIC                400
MEM_TOTAL                 4000
$end
--------------------------------------------------------------

             Standard Nuclear Orientation (Angstroms)
    I     Atom           X                Y                Z
 ----------------------------------------------------------------
    1      C       0.2227000000     1.0448800000     0.5859500000
    2      C       0.6262600000    -0.4135300000     0.9987100000
    3      C      -1.1820000000     1.2322300000     0.0437700000
    4      C      -0.3745700000    -1.5164300000     0.7233300000
    5      O      -2.0917200000     0.7883200000     0.9396600000
    6      O      -1.4733600000     1.7593900000    -0.9988200000
    7      O      -0.9136400000    -1.4279200000    -0.5062000000
    8      O      -0.6220800000    -2.4087700000     1.4991100000
    9      C      -1.8613400000    -2.4474100000    -0.8656000000
   10      C      -3.4706800000     0.8749200000     0.5392000000
   11      C       1.3300800000     1.3997400000    -0.4349100000
   12      C       2.6307000000     1.7170000000     0.3285500000
   13      C       3.0433600000     0.2935100000     0.8030000000
   14      C       1.9442300000    -0.5929900000     0.1526200000
   15      O       1.6284000000     0.1366300000    -1.0437600000
   16      H       0.2781100000     1.6878600000     1.4690000000
   17      H       0.8392300000    -0.4804200000     2.0640800000
   18      H      -2.6874900000    -2.4667700000    -0.1529600000
   19      H      -3.7607600000     1.9152200000     0.3840600000
   20      H       3.3723400000     2.1378200000    -0.3519500000
   21      H       2.4823600000     2.4248800000     1.1465100000
   22      H       4.0218200000     0.0099400000     0.4116100000
   23      H       3.0735900000     0.1873800000     1.8892800000
   24      H      -2.2114800000    -2.1776500000    -1.8593700000
   25      H      -1.3806200000    -3.4269700000    -0.8809600000
   26      H      -4.0385500000     0.4362300000     1.3567100000
   27      H      -3.6312000000     0.3170000000    -0.3849500000
   28      H       1.0327000000     2.1994300000    -1.0806400000
   29      H       2.2433900000    -1.6149600000     0.0478600000
   30      GH      0.2493100000     2.5518800000     5.4581400000
   31      GH      0.6528700000     1.0934700000     5.8709000000
   32      GH     -1.1553900000     2.7392300000     4.9159600000
   33      GH     -0.3479600000    -0.0094300000     5.5955200000
   34      GH     -2.0651100000     2.2953200000     5.8118500000
   35      GH     -1.4467500000     3.2663900000     3.8733700000
   36      GH     -0.8870300000     0.0790800000     4.3659900000
   37      GH     -0.5954700000    -0.9017700000     6.3713000000
   38      GH     -1.8347300000    -0.9404100000     4.0065900000
   39      GH     -3.4440700000     2.3819200000     5.4113900000
   40      GH      1.3566900000     2.9067400000     4.4372800000
   41      GH      2.6573100000     3.2240000000     5.2007400000
   42      GH      3.0699700000     1.8005100000     5.6751900000
   43      GH      1.9708400000     0.9140100000     5.0248100000
   44      GH      1.6550100000     1.6436300000     3.8284300000
   45      GH      0.3047200000     3.1948600000     6.3411900000
   46      GH      0.8658400000     1.0265800000     6.9362700000
   47      GH     -2.6608800000    -0.9597700000     4.7192300000
   48      GH     -3.7341500000     3.4222200000     5.2562500000
   49      GH      3.3989500000     3.6448200000     4.5202400000
   50      GH      2.5089700000     3.9318800000     6.0187000000
   51      GH      4.0484300000     1.5169400000     5.2838000000
   52      GH      3.1002000000     1.6943800000     6.7614700000
   53      GH     -2.1848700000    -0.6706500000     3.0128200000
   54      GH     -1.3540100000    -1.9199700000     3.9912300000
   55      GH     -4.0119400000     1.9432300000     6.2289000000
   56      GH     -3.6045900000     1.8240000000     4.4872400000
   57      GH      1.0593100000     3.7064300000     3.7915500000
   58      GH      2.2700000000    -0.1079600000     4.9200500000
 ----------------------------------------------------------------

   14    -765.8591436586      6.74E-09 Convergence criterion met
 Total energy in the final basis set = -765.85914366

                    Orbital Energies (a.u.)
 --------------------------------------------------------------

 Alpha MOs
 -- Occupied --
-19.176 -19.174 -19.136 -19.120 -19.116 -10.310 -10.306 -10.242
-10.232 -10.232 -10.230 -10.207 -10.206 -10.182 -10.180  -1.120
 -1.113  -1.065  -1.031  -1.028  -0.833  -0.785  -0.778  -0.740
 -0.729  -0.659  -0.610  -0.596  -0.580  -0.567  -0.551  -0.520
 -0.506  -0.496  -0.489  -0.484  -0.475  -0.473  -0.462  -0.439
 -0.427  -0.425  -0.418  -0.399  -0.385  -0.376  -0.371  -0.369
 -0.362  -0.356  -0.337  -0.334  -0.320  -0.313  -0.290  -0.282
 -0.276

          Ground-State Mulliken Net Atomic Charges

     Atom                 Charge (a.u.)
  ----------------------------------------
      1 C                    -0.022421
      2 C                     0.990046
      3 C                    -0.528536
      4 C                    -0.971153
      5 O                     0.037663
      6 O                    -0.165110
      7 O                     0.019413
      8 O                    -0.100225
      9 C                    -0.196554
     10 C                    -0.291743
     11 C                    -0.468230
     12 C                    -0.258756
     13 C                    -0.442463
     14 C                    -0.225659
     15 O                    -0.084541
     16 H                     0.173489
     17 H                     0.356424
     18 H                     0.188573
     19 H                     0.189685
     20 H                     0.211387
     21 H                     0.106105
     22 H                     0.203392
     23 H                     0.085391
     24 H                     0.174866
     25 H                     0.174806
     26 H                     0.133641
     27 H                     0.188787
     28 H                     0.282268
     29 H                     0.270679
     30 GH                    0.010185
     31 GH                    0.006124
     32 GH                    0.008784
     33 GH                    0.011671
     34 GH                    0.001509
     35 GH                   -0.006693
     36 GH                    0.007017
     37 GH                    0.000376
     38 GH                   -0.038273
     39 GH                    0.001729
     40 GH                   -0.041982
     41 GH                   -0.000330
     42 GH                   -0.002037
     43 GH                   -0.025363
     44 GH                    0.007827
     45 GH                   -0.000102
     46 GH                    0.000438
     47 GH                   -0.002434
     48 GH                    0.000417
     49 GH                    0.001688
     50 GH                   -0.000004
     51 GH                    0.002010
     52 GH                   -0.000193
     53 GH                    0.022744
     54 GH                    0.002410
     55 GH                   -0.000173
     56 GH                   -0.002749
     57 GH                    0.005089
     58 GH                   -0.000907
  ----------------------------------------
  Sum of atomic charges =     0.000000

                    Cartesian Multipole Moments
 -----------------------------------------------------------------
    Charge (ESU x 10^10)
                 0.0000
    Dipole Moment (Debye)
         X      -0.0072      Y       0.7221      Z       1.2186
       Tot       1.4165
    Quadrupole Moments (Debye-Ang)
        XX     -75.2268     XY       2.9669     YY     -89.6621
        XZ       3.3514     YZ      10.6845     ZZ     -95.8238

 Total job time:  6640.63s(wall), 6609.34s(cpu)
        *  Thank you very much for using Q-Chem.  Have a nice day.  *
