 Q-Chem 5.0, Q-Chem, Inc., Pleasanton, CA (2017)
 Q-Chem 5.0.1 for Intel X86 EM64T Linux

User input:
--------------------------------------------------------------
$molecule
0  1
--
0  1
C        +0.22270000        +1.04488000        +0.58595000
C        +0.62626000        -0.41353000        +0.99871000
C        -1.18200000        +1.23223000        +0.04377000
C        -0.37457000        -1.51643000        +0.72333000
O        -2.09172000        +0.78832000        +0.93966000
O        -1.47336000        +1.75939000        -0.99882000
O        -0.91364000        -1.42792000        -0.50620000
O        -0.62208000        -2.40877000        +1.49911000
C        -1.86134000        -2.44741000        -0.86560000
C        -3.47068000        +0.87492000        +0.53920000
C        +1.33008000        +1.39974000        -0.43491000
C        +2.63070000        +1.71700000        +0.32855000
C        +3.04336000        +0.29351000        +0.80300000
C        +1.94423000        -0.59299000        +0.15262000
O        +1.62840000        +0.13663000        -1.04376000
H        +0.27811000        +1.68786000        +1.46900000
H        +0.83923000        -0.48042000        +2.06408000
H        -2.68749000        -2.46677000        -0.15296000
H        -3.76076000        +1.91522000        +0.38406000
H        +3.37234000        +2.13782000        -0.35195000
H        +2.48236000        +2.42488000        +1.14651000
H        +4.02182000        +0.00994000        +0.41161000
H        +3.07359000        +0.18738000        +1.88928000
H        -2.21148000        -2.17765000        -1.85937000
H        -1.38062000        -3.42697000        -0.88096000
H        -4.03855000        +0.43623000        +1.35671000
H        -3.63120000        +0.31700000        -0.38495000
H        +1.03270000        +2.19943000        -1.08064000
H        +2.24339000        -1.61496000        +0.04786000
--
0  1
C        +0.24931000        +2.55188000        +5.45814000
C        +0.65287000        +1.09347000        +5.87090000
C        -1.15539000        +2.73923000        +4.91596000
C        -0.34796000        -0.00943000        +5.59552000
O        -2.06511000        +2.29532000        +5.81185000
O        -1.44675000        +3.26639000        +3.87337000
O        -0.88703000        +0.07908000        +4.36599000
O        -0.59547000        -0.90177000        +6.37130000
C        -1.83473000        -0.94041000        +4.00659000
C        -3.44407000        +2.38192000        +5.41139000
C        +1.35669000        +2.90674000        +4.43728000
C        +2.65731000        +3.22400000        +5.20074000
C        +3.06997000        +1.80051000        +5.67519000
C        +1.97084000        +0.91401000        +5.02481000
O        +1.65501000        +1.64363000        +3.82843000
H        +0.30472000        +3.19486000        +6.34119000
H        +0.86584000        +1.02658000        +6.93627000
H        -2.66088000        -0.95977000        +4.71923000
H        -3.73415000        +3.42222000        +5.25625000
H        +3.39895000        +3.64482000        +4.52024000
H        +2.50897000        +3.93188000        +6.01870000
H        +4.04843000        +1.51694000        +5.28380000
H        +3.10020000        +1.69438000        +6.76147000
H        -2.18487000        -0.67065000        +3.01282000
H        -1.35401000        -1.91997000        +3.99123000
H        -4.01194000        +1.94323000        +6.22890000
H        -3.60459000        +1.82400000        +4.48724000
H        +1.05931000        +3.70643000        +3.79155000
H        +2.27000000        -0.10796000        +4.92005000
$end

$rem
JOBTYPE                   SP
METHOD                    B3LYP
DFT_D                     d3_op
BASIS                     6-311++G(d,p)
SYMMETRY                  False
THRESH                    12
SCF_CONVERGENCE           8
MAX_SUB_FILE_NUM          128
MEM_STATIC                400
MEM_TOTAL                 4000
$end
--------------------------------------------------------------

             Standard Nuclear Orientation (Angstroms)
    I     Atom           X                Y                Z
 ----------------------------------------------------------------
    1      C      -1.7679863046     0.6336818876     0.8719145448
    2      C      -1.8725103375     0.7225275250    -0.6905746227
    3      C      -2.3123253219    -0.6269083176     1.5175527049
    4      C      -2.5973991744    -0.3996673319    -1.4040857442
    5      O      -1.7047428002    -1.7173516859     0.9988599262
    6      O      -3.1176077301    -0.6727387369     2.4115337108
    7      O      -3.7517330258    -0.7340947702    -0.7992335691
    8      O      -2.2113806012    -0.9025569156    -2.4324136160
    9      C      -4.5211543737    -1.7783807095    -1.4190086707
   10      C      -2.1510282839    -2.9901309030     1.4991206429
   11      C      -2.5087485189     1.9198282067     1.3094876373
   12      C      -1.5864535288     3.1321148700     1.0752431905
   13      C      -1.6203970030     3.2268632015    -0.4776848350
   14      C      -2.6248982095     2.0990296327    -0.8463742958
   15      O      -3.5031541773     2.0854798935     0.2902443286
   16      H      -0.7123516778     0.6692714428     1.1558859679
   17      H      -0.8879999097     0.7661215733    -1.1528326745
   18      H      -3.9267221310    -2.6895668206    -1.5035342975
   19      H      -1.9469111517    -3.0756492428     2.5675127647
   20      H      -2.0143485398     4.0238534850     1.5355775408
   21      H      -0.5837158463     2.9892636001     1.4830030050
   22      H      -2.0120173178     4.1895053865    -0.8107547995
   23      H      -0.6441903140     3.0826376691    -0.9450189385
   24      H      -5.3770843656    -1.9318691020    -0.7657304356
   25      H      -4.8480364036    -1.4722585327    -2.4141482554
   26      H      -1.5887665102    -3.7350672104     0.9403904318
   27      H      -3.2225856719    -3.1080122335     1.3289343467
   28      H      -2.8477982147     1.8570688287     2.3224105158
   29      H      -3.0638627775     2.2337748112    -1.8128358258
   30      C       3.3085530611     0.2143358472     0.6211368447
   31      C       3.2040290282     0.3031814846    -0.9413523228
   32      C       2.7642140438    -1.0462543580     1.2667750048
   33      C       2.4791401913    -0.8190133723    -1.6548634442
   34      O       3.3717965655    -2.1366977263     0.7480822261
   35      O       1.9589316356    -1.0920847773     2.1607560107
   36      O       1.3248063399    -1.1534408106    -1.0500112691
   37      O       2.8651587646    -1.3219029560    -2.6831913160
   38      C       0.5553849920    -2.1977267499    -1.6697863708
   39      C       2.9255110819    -3.4094769434     1.2483429429
   40      C       2.5677908468     1.5004821663     1.0587099373
   41      C       3.4900858369     2.7127688296     0.8244654905
   42      C       3.4561423627     2.8075171611    -0.7284625350
   43      C       2.4516411562     1.6796835923    -1.0971519958
   44      O       1.5733851884     1.6661338531     0.0394666286
   45      H       4.3641876880     0.2499254024     0.9051082679
   46      H       4.1885394560     0.3467755329    -1.4036103746
   47      H       1.1498172347    -3.1089128610    -1.7543119975
   48      H       3.1296282140    -3.4949952832     2.3167350647
   49      H       3.0621908259     3.6045074446     1.2847998407
   50      H       4.4928235195     2.5699175597     1.2322253049
   51      H       3.0645220479     3.7701593461    -1.0615324996
   52      H       4.4323490518     2.6632916287    -1.1957966385
   53      H      -0.3005449999    -2.3512151424    -1.0165081357
   54      H       0.2285029621    -1.8916045731    -2.6649259555
   55      H       3.4877728556    -4.1544132508     0.6896127317
   56      H       1.8539536938    -3.5273582739     1.0781566467
   57      H       2.2287411511     1.4377227883     2.0716328157
   58      H       2.0126765882     1.8144287708    -2.0636135259
 ----------------------------------------------------------------

   15   -1531.7313879025      5.09E-09 Convergence criterion met
 Total energy in the final basis set = -1531.73138790

                    Orbital Energies (a.u.)
 --------------------------------------------------------------

 Alpha MOs
 -- Occupied --
-19.180 -19.171 -19.170 -19.170 -19.148 -19.126 -19.125 -19.115
-19.114 -19.111 -10.315 -10.306 -10.302 -10.301 -10.250 -10.241
-10.235 -10.233 -10.229 -10.228 -10.220 -10.216 -10.213 -10.211
-10.195 -10.192 -10.189 -10.188 -10.171 -10.168  -1.123  -1.115
 -1.113  -1.108  -1.076  -1.055  -1.036  -1.026  -1.025  -1.024
 -0.839  -0.822  -0.792  -0.784  -0.775  -0.768  -0.742  -0.734
 -0.726  -0.724  -0.662  -0.650  -0.616  -0.604  -0.602  -0.585
 -0.583  -0.573  -0.568  -0.561  -0.555  -0.544  -0.524  -0.512
 -0.510  -0.501  -0.500  -0.492  -0.488  -0.487  -0.481  -0.479
 -0.476  -0.474  -0.471  -0.466  -0.465  -0.452  -0.445  -0.432
 -0.430  -0.426  -0.422  -0.418  -0.417  -0.411  -0.400  -0.393
 -0.390  -0.378  -0.376  -0.375  -0.374  -0.370  -0.366  -0.364
 -0.360  -0.357  -0.353  -0.345  -0.344  -0.342  -0.327  -0.324
 -0.322  -0.316  -0.310  -0.308  -0.295  -0.289  -0.283  -0.281
 -0.276  -0.266

          Ground-State Mulliken Net Atomic Charges

     Atom                 Charge (a.u.)
  ----------------------------------------
      1 C                     0.039584
      2 C                     0.958215
      3 C                    -0.595236
      4 C                    -0.924574
      5 O                     0.022570
      6 O                    -0.171618
      7 O                     0.027284
      8 O                    -0.112052
      9 C                    -0.193624
     10 C                    -0.274106
     11 C                    -0.536444
     12 C                    -0.228064
     13 C                    -0.425244
     14 C                    -0.255076
     15 O                    -0.090573
     16 H                     0.245502
     17 H                     0.398120
     18 H                     0.184955
     19 H                     0.194452
     20 H                     0.202455
     21 H                     0.109852
     22 H                     0.195299
     23 H                     0.086996
     24 H                     0.175820
     25 H                     0.174067
     26 H                     0.122648
     27 H                     0.189499
     28 H                     0.276598
     29 H                     0.260625
     30 C                    -0.068245
     31 C                     0.255597
     32 C                    -0.461919
     33 C                    -0.519759
     34 O                     0.034006
     35 O                    -0.124368
     36 O                     0.001707
     37 O                    -0.142086
     38 C                    -0.418884
     39 C                    -0.165018
     40 C                    -0.161353
     41 C                    -0.667036
     42 C                    -0.496290
     43 C                    -0.122459
     44 O                     0.200521
     45 H                     0.246783
     46 H                     0.292969
     47 H                     0.218351
     48 H                     0.168996
     49 H                     0.180225
     50 H                     0.140561
     51 H                     0.178811
     52 H                     0.132528
     53 H                     0.126264
     54 H                     0.235755
     55 H                     0.168495
     56 H                     0.183331
     57 H                     0.271413
     58 H                     0.253177
  ----------------------------------------
  Sum of atomic charges =     0.000000

                    Cartesian Multipole Moments
 -----------------------------------------------------------------
    Charge (ESU x 10^10)
                 0.0000
    Dipole Moment (Debye)
         X       3.3555      Y      -0.0847      Z       0.5717
       Tot       3.4049
    Quadrupole Moments (Debye-Ang)
        XX    -176.1722     XY      15.0823     YY    -154.7730
        XZ      17.2496     YZ      -7.3342     ZZ    -193.8385

 Total job time:  7651.87s(wall), 7633.68s(cpu)
        *  Thank you very much for using Q-Chem.  Have a nice day.  *
