 Q-Chem 5.0, Q-Chem, Inc., Pleasanton, CA (2017)
 Q-Chem 5.0.1 for Intel X86 EM64T Linux

User input:
--------------------------------------------------------------
$molecule
0  1
--
0  1
C        -0.54444000        -0.68370000        -0.06689000
C        -0.55709000        +0.71878000        +0.05493000
C        +0.74969000        -1.43776000        -0.09374000
C        +0.72843000        +1.48436000        +0.06598000
O        +1.53645000        -1.09176000        +0.94813000
O        +1.04702000        -2.28405000        -0.90088000
O        +1.53784000        +1.08301000        -0.93877000
O        +1.01035000        +2.37097000        +0.83478000
C        +2.83449000        +1.70121000        -0.99358000
C        +2.82316000        -1.73208000        +1.00475000
C        -1.74320000        -1.41616000        -0.12552000
C        -2.93952000        -0.70056000        -0.05285000
C        -2.95313000        +0.68255000        +0.06934000
C        -1.77161000        +1.42404000        +0.12810000
H        +2.73835000        +2.77989000        -1.12464000
H        +2.70778000        -2.81319000        +1.09555000
H        -3.90354000        +1.20325000        +0.11710000
H        +3.38998000        +1.50093000        -0.07544000
H        +3.33184000        +1.25269000        -1.85067000
H        +3.31095000        -1.32281000        +1.88650000
H        +3.39889000        -1.50934000        +0.10459000
H        -3.87892000        -1.24211000        -0.08988000
H        -1.78886000        +2.45164000        +0.22176000
H        -1.73878000        -2.44393000        -0.21875000
--
0  1
C        -0.50934000        -1.12838000        +5.01357000
C        -0.52199000        +0.27410000        +5.13539000
C        +0.78479000        -1.88244000        +4.98672000
C        +0.76353000        +1.03968000        +5.14644000
O        +1.57155000        -1.53644000        +6.02859000
O        +1.08212000        -2.72873000        +4.17958000
O        +1.57294000        +0.63833000        +4.14169000
O        +1.04545000        +1.92629000        +5.91524000
C        +2.86959000        +1.25653000        +4.08688000
C        +2.85826000        -2.17676000        +6.08521000
C        -1.70810000        -1.86084000        +4.95494000
C        -2.90442000        -1.14524000        +5.02761000
C        -2.91803000        +0.23787000        +5.14980000
C        -1.73651000        +0.97936000        +5.20856000
H        +2.77345000        +2.33521000        +3.95582000
H        +2.74288000        -3.25787000        +6.17601000
H        -3.86844000        +0.75857000        +5.19756000
H        +3.42508000        +1.05625000        +5.00502000
H        +3.36694000        +0.80801000        +3.22979000
H        +3.34605000        -1.76749000        +6.96696000
H        +3.43399000        -1.95402000        +5.18505000
H        -3.84382000        -1.68679000        +4.99058000
H        -1.75376000        +2.00696000        +5.30222000
H        -1.70368000        -2.88861000        +4.86171000
$end

$rem
JOBTYPE                   SP
METHOD                    B3LYP
DFT_D                     d3_op
BASIS                     6-311++G(d,p)
SYMMETRY                  False
THRESH                    12
SCF_CONVERGENCE           8
MAX_SUB_FILE_NUM          128
MEM_STATIC                400
MEM_TOTAL                 4000
$end
--------------------------------------------------------------

             Standard Nuclear Orientation (Angstroms)
    I     Atom           X                Y                Z
 ----------------------------------------------------------------
    1      C      -2.5190083506     0.8054905200     0.8400148040
    2      C      -2.5984673808     0.8265166006    -0.5654013094
    3      C      -2.4230792178    -0.4925470616     1.5816318893
    4      C      -2.6817055085    -0.4550054865    -1.3332353173
    5      O      -1.4320866318    -1.2645809029     1.0855493993
    6      O      -3.0978580340    -0.8040334179     2.5322825464
    7      O      -3.6095267533    -1.2788079314    -0.7982155021
    8      O      -2.0438893299    -0.7229971284    -2.3221643444
    9      C      -3.7368143171    -2.5729995054    -1.4108676420
   10      C      -1.2698415795    -2.5536041411     1.7027477346
   11      C      -2.4865735370     1.9998304021     1.5812710990
   12      C      -2.5305358770     3.2004486610     0.8705468625
   13      C      -2.6068792672     3.2223444933    -0.5157435687
   14      C      -2.6406726594     2.0452888663    -1.2658420461
   15      H      -4.0213770141    -2.4732214125    -2.4592180459
   16      H      -1.0272362902    -2.4423939467     2.7606376074
   17      H      -2.6448616603     4.1758112658    -1.0316380611
   18      H      -2.7931118194    -3.1179961072    -1.3470979161
   19      H      -4.5153958333    -3.0831634130    -0.8481296115
   20      H      -0.4498142068    -3.0283773913     1.1688286879
   21      H      -2.1858072688    -3.1393928437     1.6067028599
   22      H      -2.5009181008     4.1366544838     1.4180515912
   23      H      -2.6946281868     2.0687300977    -2.2961676392
   24      H      -2.4323172594     1.9892225425     2.6117885768
   25      C       2.5730273318     0.8314297685     0.5562087280
   26      C       2.4935683015     0.8524558491    -0.8492073854
   27      C       2.6689564646    -0.4666078131     1.2978258133
   28      C       2.4103301738    -0.4290662379    -1.6170413934
   29      O       3.6599490506    -1.2386416543     0.8017433232
   30      O       1.9941776484    -0.7780941693     2.2484764703
   31      O       1.4825089291    -1.2528686828    -1.0820215782
   32      O       3.0481463525    -0.6970578798    -2.6059704205
   33      C       1.3552213653    -2.5470602568    -1.6946737181
   34      C       3.8221941029    -2.5276648926     1.4189416586
   35      C       2.6054621454     2.0257696507     1.2974650230
   36      C       2.5614998054     3.2263879095     0.5867407865
   37      C       2.4851564151     3.2482837419    -0.7995496447
   38      C       2.4513630230     2.0712281149    -1.5496481221
   39      H       1.0706586683    -2.4472821639    -2.7430241219
   40      H       4.0647993921    -2.4164546982     2.4768315313
   41      H       2.4471740221     4.2017505144    -1.3154441371
   42      H       2.2989238630    -3.0920568586    -1.6309039922
   43      H       0.5766398491    -3.0572241644    -1.1319356875
   44      H       4.6422214756    -3.0024381428     0.8850226119
   45      H       2.9062284135    -3.1134535951     1.3228967839
   46      H       2.5911175816     4.1625937324     1.1342455152
   47      H       2.3974074956     2.0946693463    -2.5799737152
   48      H       2.6597184230     2.0151617910     2.3279825007
 ----------------------------------------------------------------

   15   -1376.4263534687      6.03E-09 Convergence criterion met
 Total energy in the final basis set = -1376.42635347

                    Orbital Energies (a.u.)
 --------------------------------------------------------------

 Alpha MOs
 -- Occupied --
-19.178 -19.177 -19.172 -19.171 -19.121 -19.121 -19.116 -19.115
-10.313 -10.313 -10.309 -10.308 -10.234 -10.233 -10.228 -10.227
-10.212 -10.211 -10.211 -10.210 -10.195 -10.195 -10.195 -10.195
-10.195 -10.194 -10.194 -10.194  -1.121  -1.120  -1.112  -1.111
 -1.032  -1.032  -1.027  -1.026  -0.884  -0.884  -0.797  -0.796
 -0.784  -0.784  -0.741  -0.740  -0.730  -0.729  -0.653  -0.653
 -0.643  -0.642  -0.593  -0.592  -0.576  -0.575  -0.552  -0.551
 -0.521  -0.520  -0.513  -0.512  -0.491  -0.491  -0.488  -0.487
 -0.483  -0.480  -0.477  -0.474  -0.469  -0.468  -0.465  -0.464
 -0.439  -0.437  -0.430  -0.426  -0.413  -0.413  -0.405  -0.404
 -0.386  -0.386  -0.385  -0.383  -0.381  -0.380  -0.367  -0.366
 -0.363  -0.360  -0.321  -0.320  -0.311  -0.310  -0.299  -0.298
 -0.294  -0.292  -0.273  -0.271  -0.269  -0.268

          Ground-State Mulliken Net Atomic Charges

     Atom                 Charge (a.u.)
  ----------------------------------------
      1 C                     0.958252
      2 C                     0.848101
      3 C                    -0.675174
      4 C                    -0.796089
      5 O                     0.091363
      6 O                    -0.175155
      7 O                     0.073825
      8 O                    -0.133923
      9 C                    -0.173150
     10 C                    -0.342694
     11 C                    -0.368664
     12 C                    -0.293763
     13 C                    -0.256566
     14 C                    -0.522892
     15 H                     0.169715
     16 H                     0.203977
     17 H                     0.179926
     18 H                     0.176851
     19 H                     0.172884
     20 H                     0.099565
     21 H                     0.188086
     22 H                     0.178067
     23 H                     0.195584
     24 H                     0.203874
     25 C                     0.840575
     26 C                     0.977820
     27 C                    -0.855545
     28 C                    -0.636782
     29 O                     0.081813
     30 O                    -0.122163
     31 O                     0.074560
     32 O                    -0.177684
     33 C                    -0.350458
     34 C                    -0.170170
     35 C                    -0.507025
     36 C                    -0.251412
     37 C                    -0.300606
     38 C                    -0.374806
     39 H                     0.206849
     40 H                     0.168847
     41 H                     0.177859
     42 H                     0.192597
     43 H                     0.096627
     44 H                     0.171882
     45 H                     0.176213
     46 H                     0.180388
     47 H                     0.204535
     48 H                     0.194090
  ----------------------------------------
  Sum of atomic charges =     0.000000

                    Cartesian Multipole Moments
 -----------------------------------------------------------------
    Charge (ESU x 10^10)
                 0.0000
    Dipole Moment (Debye)
         X       0.1921      Y       0.1846      Z       0.2044
       Tot       0.3358
    Quadrupole Moments (Debye-Ang)
        XX    -169.9615     XY      -0.8205     YY    -124.8129
        XZ      18.8478     YZ       0.5376     ZZ    -174.0612

 Total job time:  1277.56s(wall), 2542.49s(cpu)
        *  Thank you very much for using Q-Chem.  Have a nice day.  *
