 Q-Chem 5.0, Q-Chem, Inc., Pleasanton, CA (2017)
 Q-Chem 5.0.1 for Intel X86 EM64T Linux

User input:
--------------------------------------------------------------
$molecule
0  1
C        -0.54444000        -0.68370000        -0.06689000
C        -0.55709000        +0.71878000        +0.05493000
C        +0.74969000        -1.43776000        -0.09374000
C        +0.72843000        +1.48436000        +0.06598000
O        +1.53645000        -1.09176000        +0.94813000
O        +1.04702000        -2.28405000        -0.90088000
O        +1.53784000        +1.08301000        -0.93877000
O        +1.01035000        +2.37097000        +0.83478000
C        +2.83449000        +1.70121000        -0.99358000
C        +2.82316000        -1.73208000        +1.00475000
C        -1.74320000        -1.41616000        -0.12552000
C        -2.93952000        -0.70056000        -0.05285000
C        -2.95313000        +0.68255000        +0.06934000
C        -1.77161000        +1.42404000        +0.12810000
H        +2.73835000        +2.77989000        -1.12464000
H        +2.70778000        -2.81319000        +1.09555000
H        -3.90354000        +1.20325000        +0.11710000
H        +3.38998000        +1.50093000        -0.07544000
H        +3.33184000        +1.25269000        -1.85067000
H        +3.31095000        -1.32281000        +1.88650000
H        +3.39889000        -1.50934000        +0.10459000
H        -3.87892000        -1.24211000        -0.08988000
H        -1.78886000        +2.45164000        +0.22176000
H        -1.73878000        -2.44393000        -0.21875000
@C        -0.50934000        -1.12838000        +5.01357000
@C        -0.52199000        +0.27410000        +5.13539000
@C        +0.78479000        -1.88244000        +4.98672000
@C        +0.76353000        +1.03968000        +5.14644000
@O        +1.57155000        -1.53644000        +6.02859000
@O        +1.08212000        -2.72873000        +4.17958000
@O        +1.57294000        +0.63833000        +4.14169000
@O        +1.04545000        +1.92629000        +5.91524000
@C        +2.86959000        +1.25653000        +4.08688000
@C        +2.85826000        -2.17676000        +6.08521000
@C        -1.70810000        -1.86084000        +4.95494000
@C        -2.90442000        -1.14524000        +5.02761000
@C        -2.91803000        +0.23787000        +5.14980000
@C        -1.73651000        +0.97936000        +5.20856000
@H        +2.77345000        +2.33521000        +3.95582000
@H        +2.74288000        -3.25787000        +6.17601000
@H        -3.86844000        +0.75857000        +5.19756000
@H        +3.42508000        +1.05625000        +5.00502000
@H        +3.36694000        +0.80801000        +3.22979000
@H        +3.34605000        -1.76749000        +6.96696000
@H        +3.43399000        -1.95402000        +5.18505000
@H        -3.84382000        -1.68679000        +4.99058000
@H        -1.75376000        +2.00696000        +5.30222000
@H        -1.70368000        -2.88861000        +4.86171000
$end

$rem
JOBTYPE                   SP
METHOD                    B3LYP
DFT_D                     d3_op
BASIS                     6-311++G(d,p)
SYMMETRY                  False
THRESH                    12
SCF_CONVERGENCE           8
MAX_SUB_FILE_NUM          128
MEM_STATIC                400
MEM_TOTAL                 4000
$end
--------------------------------------------------------------

             Standard Nuclear Orientation (Angstroms)
    I     Atom           X                Y                Z
 ----------------------------------------------------------------
    1      C      -0.5444400000    -0.6837000000    -0.0668900000
    2      C      -0.5570900000     0.7187800000     0.0549300000
    3      C       0.7496900000    -1.4377600000    -0.0937400000
    4      C       0.7284300000     1.4843600000     0.0659800000
    5      O       1.5364500000    -1.0917600000     0.9481300000
    6      O       1.0470200000    -2.2840500000    -0.9008800000
    7      O       1.5378400000     1.0830100000    -0.9387700000
    8      O       1.0103500000     2.3709700000     0.8347800000
    9      C       2.8344900000     1.7012100000    -0.9935800000
   10      C       2.8231600000    -1.7320800000     1.0047500000
   11      C      -1.7432000000    -1.4161600000    -0.1255200000
   12      C      -2.9395200000    -0.7005600000    -0.0528500000
   13      C      -2.9531300000     0.6825500000     0.0693400000
   14      C      -1.7716100000     1.4240400000     0.1281000000
   15      H       2.7383500000     2.7798900000    -1.1246400000
   16      H       2.7077800000    -2.8131900000     1.0955500000
   17      H      -3.9035400000     1.2032500000     0.1171000000
   18      H       3.3899800000     1.5009300000    -0.0754400000
   19      H       3.3318400000     1.2526900000    -1.8506700000
   20      H       3.3109500000    -1.3228100000     1.8865000000
   21      H       3.3988900000    -1.5093400000     0.1045900000
   22      H      -3.8789200000    -1.2421100000    -0.0898800000
   23      H      -1.7888600000     2.4516400000     0.2217600000
   24      H      -1.7387800000    -2.4439300000    -0.2187500000
   25      GH     -0.5093400000    -1.1283800000     5.0135700000
   26      GH     -0.5219900000     0.2741000000     5.1353900000
   27      GH      0.7847900000    -1.8824400000     4.9867200000
   28      GH      0.7635300000     1.0396800000     5.1464400000
   29      GH      1.5715500000    -1.5364400000     6.0285900000
   30      GH      1.0821200000    -2.7287300000     4.1795800000
   31      GH      1.5729400000     0.6383300000     4.1416900000
   32      GH      1.0454500000     1.9262900000     5.9152400000
   33      GH      2.8695900000     1.2565300000     4.0868800000
   34      GH      2.8582600000    -2.1767600000     6.0852100000
   35      GH     -1.7081000000    -1.8608400000     4.9549400000
   36      GH     -2.9044200000    -1.1452400000     5.0276100000
   37      GH     -2.9180300000     0.2378700000     5.1498000000
   38      GH     -1.7365100000     0.9793600000     5.2085600000
   39      GH      2.7734500000     2.3352100000     3.9558200000
   40      GH      2.7428800000    -3.2578700000     6.1760100000
   41      GH     -3.8684400000     0.7585700000     5.1975600000
   42      GH      3.4250800000     1.0562500000     5.0050200000
   43      GH      3.3669400000     0.8080100000     3.2297900000
   44      GH      3.3460500000    -1.7674900000     6.9669600000
   45      GH      3.4339900000    -1.9540200000     5.1850500000
   46      GH     -3.8438200000    -1.6867900000     4.9905800000
   47      GH     -1.7537600000     2.0069600000     5.3022200000
   48      GH     -1.7036800000    -2.8886100000     4.8617100000
 ----------------------------------------------------------------

   14    -688.2111935813      5.73E-09 Convergence criterion met
 Total energy in the final basis set = -688.21119358

                    Orbital Energies (a.u.)
 --------------------------------------------------------------

 Alpha MOs
 -- Occupied --
-19.178 -19.178 -19.122 -19.122 -10.314 -10.314 -10.233 -10.233
-10.215 -10.214 -10.198 -10.198 -10.197 -10.197  -1.123  -1.117
 -1.033  -1.032  -0.887  -0.800  -0.787  -0.744  -0.733  -0.656
 -0.646  -0.596  -0.579  -0.555  -0.524  -0.516  -0.493  -0.492
 -0.485  -0.479  -0.472  -0.468  -0.440  -0.431  -0.416  -0.408
 -0.389  -0.387  -0.384  -0.369  -0.366  -0.324  -0.315  -0.301
 -0.297  -0.275  -0.272

          Ground-State Mulliken Net Atomic Charges

     Atom                 Charge (a.u.)
  ----------------------------------------
      1 C                     0.950856
      2 C                     0.838425
      3 C                    -0.647431
      4 C                    -0.812742
      5 O                     0.086556
      6 O                    -0.170015
      7 O                     0.070235
      8 O                    -0.121104
      9 C                    -0.170713
     10 C                    -0.359506
     11 C                    -0.360590
     12 C                    -0.295527
     13 C                    -0.254779
     14 C                    -0.530051
     15 H                     0.169518
     16 H                     0.198073
     17 H                     0.183822
     18 H                     0.180643
     19 H                     0.172484
     20 H                     0.115539
     21 H                     0.192387
     22 H                     0.181708
     23 H                     0.198742
     24 H                     0.204048
     25 GH                   -0.012321
     26 GH                   -0.009297
     27 GH                    0.043463
     28 GH                   -0.029717
     29 GH                    0.000306
     30 GH                   -0.006065
     31 GH                   -0.012389
     32 GH                    0.000364
     33 GH                    0.001423
     34 GH                   -0.006414
     35 GH                    0.020982
     36 GH                   -0.000797
     37 GH                   -0.000637
     38 GH                   -0.015236
     39 GH                   -0.000091
     40 GH                    0.000360
     41 GH                   -0.000290
     42 GH                    0.001095
     43 GH                    0.003658
     44 GH                   -0.000390
     45 GH                    0.002672
     46 GH                   -0.000129
     47 GH                   -0.000508
     48 GH                   -0.000620
  ----------------------------------------
  Sum of atomic charges =     0.000000

                    Cartesian Multipole Moments
 -----------------------------------------------------------------
    Charge (ESU x 10^10)
                 0.0000
    Dipole Moment (Debye)
         X      -0.0473      Y      -0.1143      Z       0.0807
       Tot       0.1477
    Quadrupole Moments (Debye-Ang)
        XX     -61.3383     XY      -0.0417     YY     -84.3290
        XZ       0.0691     YZ      -9.7094     ZZ     -87.0417

 Total job time:  1173.56s(wall), 2331.58s(cpu)
        *  Thank you very much for using Q-Chem.  Have a nice day.  *
