 Q-Chem 5.0, Q-Chem, Inc., Pleasanton, CA (2017)
 Q-Chem 5.0.1 for Intel X86 EM64T Linux

User input:
--------------------------------------------------------------
$molecule
0  1
--
0  1
C        +0.22270000        +1.04488000        +0.58595000
C        +0.62626000        -0.41353000        +0.99871000
C        -1.18200000        +1.23223000        +0.04377000
C        -0.37457000        -1.51643000        +0.72333000
O        -2.09172000        +0.78832000        +0.93966000
O        -1.47336000        +1.75939000        -0.99882000
O        -0.91364000        -1.42792000        -0.50620000
O        -0.62208000        -2.40877000        +1.49911000
C        -1.86134000        -2.44741000        -0.86560000
C        -3.47068000        +0.87492000        +0.53920000
C        +1.33008000        +1.39974000        -0.43491000
C        +2.63070000        +1.71700000        +0.32855000
C        +3.04336000        +0.29351000        +0.80300000
C        +1.94423000        -0.59299000        +0.15262000
O        +1.62840000        +0.13663000        -1.04376000
H        +0.27811000        +1.68786000        +1.46900000
H        +0.83923000        -0.48042000        +2.06408000
H        -2.68749000        -2.46677000        -0.15296000
H        -3.76076000        +1.91522000        +0.38406000
H        +3.37234000        +2.13782000        -0.35195000
H        +2.48236000        +2.42488000        +1.14651000
H        +4.02182000        +0.00994000        +0.41161000
H        +3.07359000        +0.18738000        +1.88928000
H        -2.21148000        -2.17765000        -1.85937000
H        -1.38062000        -3.42697000        -0.88096000
H        -4.03855000        +0.43623000        +1.35671000
H        -3.63120000        +0.31700000        -0.38495000
C        +2.35450000        -2.01267000        -0.16812000
H        +3.26311000        -2.00678000        -0.77366000
H        +2.54990000        -2.57059000        +0.75079000
H        +1.57335000        -2.52896000        -0.72872000
H        +1.03270000        +2.19943000        -1.08064000
--
0  1
C        +0.24931000        +2.55188000        +5.45814000
C        +0.65287000        +1.09347000        +5.87090000
C        -1.15539000        +2.73923000        +4.91596000
C        -0.34796000        -0.00943000        +5.59552000
O        -2.06511000        +2.29532000        +5.81185000
O        -1.44675000        +3.26639000        +3.87337000
O        -0.88703000        +0.07908000        +4.36599000
O        -0.59547000        -0.90177000        +6.37130000
C        -1.83473000        -0.94041000        +4.00659000
C        -3.44407000        +2.38192000        +5.41139000
C        +1.35669000        +2.90674000        +4.43728000
C        +2.65731000        +3.22400000        +5.20074000
C        +3.06997000        +1.80051000        +5.67519000
C        +1.97084000        +0.91401000        +5.02481000
O        +1.65501000        +1.64363000        +3.82843000
H        +0.30472000        +3.19486000        +6.34119000
H        +0.86584000        +1.02658000        +6.93627000
H        -2.66088000        -0.95977000        +4.71923000
H        -3.73415000        +3.42222000        +5.25625000
H        +3.39895000        +3.64482000        +4.52024000
H        +2.50897000        +3.93188000        +6.01870000
H        +4.04843000        +1.51694000        +5.28380000
H        +3.10020000        +1.69438000        +6.76147000
H        -2.18487000        -0.67065000        +3.01282000
H        -1.35401000        -1.91997000        +3.99123000
H        -4.01194000        +1.94323000        +6.22890000
H        -3.60459000        +1.82400000        +4.48724000
C        +2.38111000        -0.50567000        +4.70407000
H        +3.28972000        -0.49978000        +4.09853000
H        +2.57651000        -1.06359000        +5.62298000
H        +1.59996000        -1.02196000        +4.14347000
H        +1.05931000        +3.70643000        +3.79155000
$end

$rem
JOBTYPE                   SP
METHOD                    B3LYP
DFT_D                     d3_op
BASIS                     6-311++G(d,p)
SYMMETRY                  False
THRESH                    12
SCF_CONVERGENCE           8
MAX_SUB_FILE_NUM          128
MEM_STATIC                400
MEM_TOTAL                 4000
$end
--------------------------------------------------------------

             Standard Nuclear Orientation (Angstroms)
    I     Atom           X                Y                Z
 ----------------------------------------------------------------
    1      C      -1.6987928690     0.2135195834     1.1304815645
    2      C      -1.8474960846     0.5742873128    -0.3887041445
    3      C      -2.1653347859    -1.1685225548     1.5482607324
    4      C      -2.5358147303    -0.4385285370    -1.2799419016
    5      O      -1.5196784525    -2.1159443549     0.8321704516
    6      O      -2.9443002591    -1.4147970152     2.4327627985
    7      O      -3.6568955520    -0.9348344505    -0.7258365531
    8      O      -2.1526330173    -0.7291375799    -2.3881317063
    9      C      -4.3910116644    -1.8901338998    -1.5101451696
   10      C      -1.8914561500    -3.4789404084     1.1031345730
   11      C      -2.4888944552     1.3608205913     1.8041365979
   12      C      -1.6320885623     2.6415359906     1.7760440449
   13      C      -1.7103533688     3.0100502725     0.2661477894
   14      C      -2.6687565405     1.9156761548    -0.2822788713
   15      O      -3.5159120334     1.6540359929     0.8478941394
   16      H      -0.6391425559     0.2524435613     1.3986177034
   17      H      -0.8783877045     0.7505852809    -0.8519445831
   18      H      -3.7559442897    -2.7395937043    -1.7667808484
   19      H      -1.6561391951    -3.7430953609     2.1352619914
   20      H      -2.0902940263     3.4134309363     2.3960646554
   21      H      -0.6135275880     2.4802953112     2.1347812700
   22      H      -2.1560860435     3.9951014639     0.1178960386
   23      H      -0.7406625621     3.0022765942    -0.2356698842
   24      H      -5.2215621971    -2.2018507870    -0.8808871264
   25      H      -4.7576089114    -1.4286465763    -2.4285684655
   26      H      -1.3086440173    -4.0820734398     0.4104525265
   27      H      -2.9601422571    -3.6198556868     0.9324081602
   28      C      -3.4838240605     2.3081437011    -1.4940218663
   29      H      -4.0225474281     3.2361981656    -1.2920873227
   30      H      -2.8333241935     2.4620059472    -2.3583295700
   31      H      -4.2140650475     1.5358739477    -1.7417527192
   32      H      -2.7984546508     1.1008146488     2.7948310960
   33      C       3.3839092099     0.1089959722     0.7240250718
   34      C       3.2352059943     0.4697637017    -0.7951606372
   35      C       2.9173672930    -1.2730461659     1.1418042397
   36      C       2.5468873486    -0.5430521481    -1.6863983943
   37      O       3.5630236264    -2.2204679661     0.4257139589
   38      O       2.1384018198    -1.5193206264     2.0263063058
   39      O       1.4258065268    -1.0393580617    -1.1322930458
   40      O       2.9300690616    -0.8336611910    -2.7945881990
   41      C       0.6916904144    -1.9946575109    -1.9166016623
   42      C       3.1912459289    -3.5834640195     0.6966780803
   43      C       2.5938076236     1.2562969802     1.3976801052
   44      C       3.4506135166     2.5370123794     1.3695875522
   45      C       3.3723487101     2.9055266613    -0.1403087033
   46      C       2.4139455384     1.8111525437    -0.6887353641
   47      O       1.5667900455     1.5495123817     0.4414376467
   48      H       4.4435595229     0.1479199502     0.9921612107
   49      H       4.2043143744     0.6460616698    -1.2584010758
   50      H       1.3267577892    -2.8441173155    -2.1732373411
   51      H       3.4265628837    -3.8476189720     1.7288054987
   52      H       2.9924080525     3.3089073252     1.9896081627
   53      H       4.4691744909     2.3757717001     1.7283247773
   54      H       2.9266160354     3.8905778527    -0.2885604541
   55      H       4.3420395168     2.8977529830    -0.6421263769
   56      H      -0.1388601183    -2.3063743981    -1.2873436191
   57      H       0.3250931675    -1.5331701875    -2.8350249582
   58      H       3.7740580616    -4.1865970509     0.0039960338
   59      H       2.1225598217    -3.7243792980     0.5259516675
   60      C       1.5988780183     2.2036200900    -1.9004783590
   61      H       1.0601546508     3.1316745545    -1.6985438154
   62      H       2.2493778854     2.3574823361    -2.7647860627
   63      H       0.8686370314     1.4313503365    -2.1482092119
   64      H       2.2842474281     0.9962910376     2.3883746033
 ----------------------------------------------------------------

   15   -1610.4086431751      5.20E-09 Convergence criterion met
 Total energy in the final basis set = -1610.40864318

                    Orbital Energies (a.u.)
 --------------------------------------------------------------

 Alpha MOs
 -- Occupied --
-19.178 -19.171 -19.171 -19.169 -19.142 -19.124 -19.121 -19.115
-19.114 -19.110 -10.313 -10.305 -10.303 -10.300 -10.253 -10.237
-10.237 -10.234 -10.229 -10.229 -10.218 -10.217 -10.211 -10.208
-10.194 -10.191 -10.186 -10.185 -10.177 -10.168 -10.166 -10.165
 -1.122  -1.116  -1.112  -1.108  -1.074  -1.054  -1.035  -1.026
 -1.025  -1.023  -0.838  -0.822  -0.803  -0.790  -0.787  -0.774
 -0.747  -0.741  -0.727  -0.724  -0.702  -0.689  -0.659  -0.647
 -0.611  -0.598  -0.596  -0.581  -0.568  -0.566  -0.564  -0.555
 -0.539  -0.526  -0.522  -0.514  -0.510  -0.504  -0.497  -0.493
 -0.486  -0.484  -0.483  -0.479  -0.476  -0.474  -0.471  -0.466
 -0.465  -0.453  -0.447  -0.438  -0.436  -0.428  -0.427  -0.419
 -0.417  -0.410  -0.409  -0.398  -0.398  -0.396  -0.392  -0.386
 -0.382  -0.375  -0.373  -0.371  -0.369  -0.366  -0.364  -0.359
 -0.356  -0.352  -0.345  -0.341  -0.339  -0.338  -0.324  -0.323
 -0.321  -0.316  -0.310  -0.308  -0.294  -0.287  -0.283  -0.280
 -0.276  -0.264

          Ground-State Mulliken Net Atomic Charges

     Atom                 Charge (a.u.)
  ----------------------------------------
      1 C                    -0.066519
      2 C                     0.489523
      3 C                    -0.634045
      4 C                    -0.090878
      5 O                     0.027179
      6 O                    -0.163938
      7 O                     0.079906
      8 O                    -0.096155
      9 C                    -0.178199
     10 C                    -0.277115
     11 C                    -0.591467
     12 C                    -0.277820
     13 C                    -0.260853
     14 C                    -0.428650
     15 O                     0.020290
     16 H                     0.255793
     17 H                     0.075251
     18 H                     0.194063
     19 H                     0.196137
     20 H                     0.197285
     21 H                     0.122686
     22 H                     0.191892
     23 H                     0.054857
     24 H                     0.176843
     25 H                     0.174499
     26 H                     0.121504
     27 H                     0.189412
     28 C                    -0.354028
     29 H                     0.185239
     30 H                     0.162857
     31 H                     0.185986
     32 H                     0.278232
     33 C                    -0.014145
     34 C                     0.443315
     35 C                    -0.670151
     36 C                    -0.826698
     37 O                     0.032833
     38 O                    -0.106149
     39 O                     0.059224
     40 O                    -0.091811
     41 C                    -0.374594
     42 C                    -0.164719
     43 C                    -0.118845
     44 C                    -0.680578
     45 C                    -0.317411
     46 C                    -0.310656
     47 O                     0.250442
     48 H                     0.248125
     49 H                     0.289197
     50 H                     0.215552
     51 H                     0.169772
     52 H                     0.177459
     53 H                     0.142550
     54 H                     0.168170
     55 H                     0.147698
     56 H                     0.140481
     57 H                     0.238353
     58 H                     0.167161
     59 H                     0.181760
     60 C                    -0.260399
     61 H                     0.203933
     62 H                     0.197231
     63 H                     0.228840
     64 H                     0.274295
  ----------------------------------------
  Sum of atomic charges =    -0.000000

                    Cartesian Multipole Moments
 -----------------------------------------------------------------
    Charge (ESU x 10^10)
                -0.0000
    Dipole Moment (Debye)
         X       3.0403      Y       0.0687      Z       0.1217
       Tot       3.0435
    Quadrupole Moments (Debye-Ang)
        XX    -188.8980     XY       9.3794     YY    -165.4771
        XZ      19.6387     YZ       0.2834     ZZ    -208.8514

 Total job time:  7811.74s(wall), 7793.61s(cpu)
        *  Thank you very much for using Q-Chem.  Have a nice day.  *
