 Q-Chem 5.0, Q-Chem, Inc., Pleasanton, CA (2017)
 Q-Chem 5.0.1 for Intel X86 EM64T Linux

User input:
--------------------------------------------------------------
$molecule
0  1
C        +0.22270000        +1.04488000        +0.58595000
C        +0.62626000        -0.41353000        +0.99871000
C        -1.18200000        +1.23223000        +0.04377000
C        -0.37457000        -1.51643000        +0.72333000
O        -2.09172000        +0.78832000        +0.93966000
O        -1.47336000        +1.75939000        -0.99882000
O        -0.91364000        -1.42792000        -0.50620000
O        -0.62208000        -2.40877000        +1.49911000
C        -1.86134000        -2.44741000        -0.86560000
C        -3.47068000        +0.87492000        +0.53920000
C        +1.33008000        +1.39974000        -0.43491000
C        +2.63070000        +1.71700000        +0.32855000
C        +3.04336000        +0.29351000        +0.80300000
C        +1.94423000        -0.59299000        +0.15262000
O        +1.62840000        +0.13663000        -1.04376000
H        +0.27811000        +1.68786000        +1.46900000
H        +0.83923000        -0.48042000        +2.06408000
H        -2.68749000        -2.46677000        -0.15296000
H        -3.76076000        +1.91522000        +0.38406000
H        +3.37234000        +2.13782000        -0.35195000
H        +2.48236000        +2.42488000        +1.14651000
H        +4.02182000        +0.00994000        +0.41161000
H        +3.07359000        +0.18738000        +1.88928000
H        -2.21148000        -2.17765000        -1.85937000
H        -1.38062000        -3.42697000        -0.88096000
H        -4.03855000        +0.43623000        +1.35671000
H        -3.63120000        +0.31700000        -0.38495000
C        +0.90028000        +2.39077000        -1.49430000
C        +2.35450000        -2.01267000        -0.16812000
H        +3.26311000        -2.00678000        -0.77366000
H        +2.54990000        -2.57059000        +0.75079000
H        +1.57335000        -2.52896000        -0.72872000
H        +1.71845000        +2.58186000        -2.15686000
H        +0.59919000        +3.30478000        -1.02650000
H        +0.07925000        +1.98653000        -2.04874000
@C        +0.24931000        +2.55188000        +5.45814000
@C        +0.65287000        +1.09347000        +5.87090000
@C        -1.15539000        +2.73923000        +4.91596000
@C        -0.34796000        -0.00943000        +5.59552000
@O        -2.06511000        +2.29532000        +5.81185000
@O        -1.44675000        +3.26639000        +3.87337000
@O        -0.88703000        +0.07908000        +4.36599000
@O        -0.59547000        -0.90177000        +6.37130000
@C        -1.83473000        -0.94041000        +4.00659000
@C        -3.44407000        +2.38192000        +5.41139000
@C        +1.35669000        +2.90674000        +4.43728000
@C        +2.65731000        +3.22400000        +5.20074000
@C        +3.06997000        +1.80051000        +5.67519000
@C        +1.97084000        +0.91401000        +5.02481000
@O        +1.65501000        +1.64363000        +3.82843000
@H        +0.30472000        +3.19486000        +6.34119000
@H        +0.86584000        +1.02658000        +6.93627000
@H        -2.66088000        -0.95977000        +4.71923000
@H        -3.73415000        +3.42222000        +5.25625000
@H        +3.39895000        +3.64482000        +4.52024000
@H        +2.50897000        +3.93188000        +6.01870000
@H        +4.04843000        +1.51694000        +5.28380000
@H        +3.10020000        +1.69438000        +6.76147000
@H        -2.18487000        -0.67065000        +3.01282000
@H        -1.35401000        -1.91997000        +3.99123000
@H        -4.01194000        +1.94323000        +6.22890000
@H        -3.60459000        +1.82400000        +4.48724000
@C        +0.92689000        +3.89777000        +3.37789000
@C        +2.38111000        -0.50567000        +4.70407000
@H        +3.28972000        -0.49978000        +4.09853000
@H        +2.57651000        -1.06359000        +5.62298000
@H        +1.59996000        -1.02196000        +4.14347000
@H        +1.74506000        +4.08886000        +2.71533000
@H        +0.62580000        +4.81178000        +3.84569000
@H        +0.10586000        +3.49353000        +2.82345000
$end

$rem
JOBTYPE                   SP
METHOD                    B3LYP
DFT_D                     d3_op
BASIS                     6-311++G(d,p)
SYMMETRY                  False
THRESH                    12
SCF_CONVERGENCE           8
MAX_SUB_FILE_NUM          128
MEM_STATIC                400
MEM_TOTAL                 4000
$end
--------------------------------------------------------------

             Standard Nuclear Orientation (Angstroms)
    I     Atom           X                Y                Z
 ----------------------------------------------------------------
    1      C       0.2227000000     1.0448800000     0.5859500000
    2      C       0.6262600000    -0.4135300000     0.9987100000
    3      C      -1.1820000000     1.2322300000     0.0437700000
    4      C      -0.3745700000    -1.5164300000     0.7233300000
    5      O      -2.0917200000     0.7883200000     0.9396600000
    6      O      -1.4733600000     1.7593900000    -0.9988200000
    7      O      -0.9136400000    -1.4279200000    -0.5062000000
    8      O      -0.6220800000    -2.4087700000     1.4991100000
    9      C      -1.8613400000    -2.4474100000    -0.8656000000
   10      C      -3.4706800000     0.8749200000     0.5392000000
   11      C       1.3300800000     1.3997400000    -0.4349100000
   12      C       2.6307000000     1.7170000000     0.3285500000
   13      C       3.0433600000     0.2935100000     0.8030000000
   14      C       1.9442300000    -0.5929900000     0.1526200000
   15      O       1.6284000000     0.1366300000    -1.0437600000
   16      H       0.2781100000     1.6878600000     1.4690000000
   17      H       0.8392300000    -0.4804200000     2.0640800000
   18      H      -2.6874900000    -2.4667700000    -0.1529600000
   19      H      -3.7607600000     1.9152200000     0.3840600000
   20      H       3.3723400000     2.1378200000    -0.3519500000
   21      H       2.4823600000     2.4248800000     1.1465100000
   22      H       4.0218200000     0.0099400000     0.4116100000
   23      H       3.0735900000     0.1873800000     1.8892800000
   24      H      -2.2114800000    -2.1776500000    -1.8593700000
   25      H      -1.3806200000    -3.4269700000    -0.8809600000
   26      H      -4.0385500000     0.4362300000     1.3567100000
   27      H      -3.6312000000     0.3170000000    -0.3849500000
   28      C       0.9002800000     2.3907700000    -1.4943000000
   29      C       2.3545000000    -2.0126700000    -0.1681200000
   30      H       3.2631100000    -2.0067800000    -0.7736600000
   31      H       2.5499000000    -2.5705900000     0.7507900000
   32      H       1.5733500000    -2.5289600000    -0.7287200000
   33      H       1.7184500000     2.5818600000    -2.1568600000
   34      H       0.5991900000     3.3047800000    -1.0265000000
   35      H       0.0792500000     1.9865300000    -2.0487400000
   36      GH      0.2493100000     2.5518800000     5.4581400000
   37      GH      0.6528700000     1.0934700000     5.8709000000
   38      GH     -1.1553900000     2.7392300000     4.9159600000
   39      GH     -0.3479600000    -0.0094300000     5.5955200000
   40      GH     -2.0651100000     2.2953200000     5.8118500000
   41      GH     -1.4467500000     3.2663900000     3.8733700000
   42      GH     -0.8870300000     0.0790800000     4.3659900000
   43      GH     -0.5954700000    -0.9017700000     6.3713000000
   44      GH     -1.8347300000    -0.9404100000     4.0065900000
   45      GH     -3.4440700000     2.3819200000     5.4113900000
   46      GH      1.3566900000     2.9067400000     4.4372800000
   47      GH      2.6573100000     3.2240000000     5.2007400000
   48      GH      3.0699700000     1.8005100000     5.6751900000
   49      GH      1.9708400000     0.9140100000     5.0248100000
   50      GH      1.6550100000     1.6436300000     3.8284300000
   51      GH      0.3047200000     3.1948600000     6.3411900000
   52      GH      0.8658400000     1.0265800000     6.9362700000
   53      GH     -2.6608800000    -0.9597700000     4.7192300000
   54      GH     -3.7341500000     3.4222200000     5.2562500000
   55      GH      3.3989500000     3.6448200000     4.5202400000
   56      GH      2.5089700000     3.9318800000     6.0187000000
   57      GH      4.0484300000     1.5169400000     5.2838000000
   58      GH      3.1002000000     1.6943800000     6.7614700000
   59      GH     -2.1848700000    -0.6706500000     3.0128200000
   60      GH     -1.3540100000    -1.9199700000     3.9912300000
   61      GH     -4.0119400000     1.9432300000     6.2289000000
   62      GH     -3.6045900000     1.8240000000     4.4872400000
   63      GH      0.9268900000     3.8977700000     3.3778900000
   64      GH      2.3811100000    -0.5056700000     4.7040700000
   65      GH      3.2897200000    -0.4997800000     4.0985300000
   66      GH      2.5765100000    -1.0635900000     5.6229800000
   67      GH      1.5999600000    -1.0219600000     4.1434700000
   68      GH      1.7450600000     4.0888600000     2.7153300000
   69      GH      0.6258000000     4.8117800000     3.8456900000
   70      GH      0.1058600000     3.4935300000     2.8234500000
 ----------------------------------------------------------------

   14    -844.5179378478      5.81E-09 Convergence criterion met
 Total energy in the final basis set = -844.51793785

                    Orbital Energies (a.u.)
 --------------------------------------------------------------

 Alpha MOs
 -- Occupied --
-19.176 -19.174 -19.125 -19.117 -19.116 -10.311 -10.306 -10.242
-10.232 -10.231 -10.231 -10.204 -10.203 -10.178 -10.175 -10.169
-10.136  -1.121  -1.114  -1.061  -1.034  -1.027  -0.832  -0.804
 -0.784  -0.748  -0.730  -0.720  -0.674  -0.644  -0.603  -0.579
 -0.570  -0.561  -0.525  -0.514  -0.508  -0.493  -0.489  -0.480
 -0.476  -0.471  -0.459  -0.442  -0.435  -0.433  -0.414  -0.411
 -0.403  -0.399  -0.395  -0.374  -0.372  -0.364  -0.358  -0.355
 -0.349  -0.346  -0.333  -0.328  -0.321  -0.313  -0.284  -0.272
 -0.270

          Ground-State Mulliken Net Atomic Charges

     Atom                 Charge (a.u.)
  ----------------------------------------
      1 C                     0.155885
      2 C                     0.645148
      3 C                    -0.480024
      4 C                    -0.524837
      5 O                     0.080680
      6 O                    -0.101895
      7 O                     0.058065
      8 O                    -0.061914
      9 C                    -0.156038
     10 C                    -0.291939
     11 C                    -0.959190
     12 C                    -0.127567
     13 C                     0.012523
     14 C                    -0.937757
     15 O                     0.196545
     16 H                     0.126730
     17 H                     0.152524
     18 H                     0.194909
     19 H                     0.191552
     20 H                     0.203080
     21 H                     0.143530
     22 H                     0.204901
     23 H                     0.116721
     24 H                     0.175933
     25 H                     0.177904
     26 H                     0.133868
     27 H                     0.192714
     28 C                    -0.375017
     29 C                    -0.178813
     30 H                     0.177997
     31 H                     0.170860
     32 H                     0.188048
     33 H                     0.143003
     34 H                     0.145281
     35 H                     0.208389
     36 GH                    0.008069
     37 GH                    0.004191
     38 GH                    0.009890
     39 GH                    0.019624
     40 GH                    0.001130
     41 GH                   -0.007670
     42 GH                    0.004535
     43 GH                    0.000785
     44 GH                   -0.044966
     45 GH                    0.002685
     46 GH                   -0.055901
     47 GH                   -0.000623
     48 GH                   -0.005195
     49 GH                   -0.068163
     50 GH                    0.011688
     51 GH                    0.000231
     52 GH                    0.000473
     53 GH                   -0.003072
     54 GH                    0.000453
     55 GH                    0.001094
     56 GH                    0.000070
     57 GH                    0.000194
     58 GH                    0.000073
     59 GH                    0.041288
     60 GH                    0.000866
     61 GH                   -0.000234
     62 GH                   -0.001841
     63 GH                    0.003276
     64 GH                    0.023449
     65 GH                    0.016187
     66 GH                   -0.001008
     67 GH                    0.005581
     68 GH                    0.008517
     69 GH                   -0.001480
     70 GH                    0.024006
  ----------------------------------------
  Sum of atomic charges =     0.000000

                    Cartesian Multipole Moments
 -----------------------------------------------------------------
    Charge (ESU x 10^10)
                 0.0000
    Dipole Moment (Debye)
         X      -0.3271      Y       0.5014      Z       0.9163
       Tot       1.0945
    Quadrupole Moments (Debye-Ang)
        XX     -89.0472     XY       1.8230     YY    -103.5107
        XZ       3.4942     YZ      10.8023     ZZ    -108.3603

 Total job time:  3790.05s(wall), 7543.64s(cpu)
        *  Thank you very much for using Q-Chem.  Have a nice day.  *
