 Q-Chem 5.0, Q-Chem, Inc., Pleasanton, CA (2017)
 Q-Chem 5.0.1 for Intel X86 EM64T Linux

User input:
--------------------------------------------------------------
$molecule
0  1
--
0  1
C        +0.22270000        +1.04488000        +0.58595000
C        +0.62626000        -0.41353000        +0.99871000
C        -1.18200000        +1.23223000        +0.04377000
C        -0.37457000        -1.51643000        +0.72333000
O        -2.09172000        +0.78832000        +0.93966000
O        -1.47336000        +1.75939000        -0.99882000
O        -0.91364000        -1.42792000        -0.50620000
O        -0.62208000        -2.40877000        +1.49911000
C        -1.86134000        -2.44741000        -0.86560000
C        -3.47068000        +0.87492000        +0.53920000
C        +1.33008000        +1.39974000        -0.43491000
C        +2.63070000        +1.71700000        +0.32855000
C        +3.04336000        +0.29351000        +0.80300000
C        +1.94423000        -0.59299000        +0.15262000
O        +1.62840000        +0.13663000        -1.04376000
H        +0.27811000        +1.68786000        +1.46900000
H        +0.83923000        -0.48042000        +2.06408000
H        -2.68749000        -2.46677000        -0.15296000
H        -3.76076000        +1.91522000        +0.38406000
H        +3.37234000        +2.13782000        -0.35195000
H        +2.48236000        +2.42488000        +1.14651000
H        +4.02182000        +0.00994000        +0.41161000
H        +3.07359000        +0.18738000        +1.88928000
H        -2.21148000        -2.17765000        -1.85937000
H        -1.38062000        -3.42697000        -0.88096000
H        -4.03855000        +0.43623000        +1.35671000
H        -3.63120000        +0.31700000        -0.38495000
C        +0.90028000        +2.39077000        -1.49430000
C        +2.35450000        -2.01267000        -0.16812000
H        +3.26311000        -2.00678000        -0.77366000
H        +2.54990000        -2.57059000        +0.75079000
H        +1.57335000        -2.52896000        -0.72872000
H        +1.71845000        +2.58186000        -2.15686000
H        +0.59919000        +3.30478000        -1.02650000
H        +0.07925000        +1.98653000        -2.04874000
--
0  1
C        +0.24931000        +2.55188000        +5.45814000
C        +0.65287000        +1.09347000        +5.87090000
C        -1.15539000        +2.73923000        +4.91596000
C        -0.34796000        -0.00943000        +5.59552000
O        -2.06511000        +2.29532000        +5.81185000
O        -1.44675000        +3.26639000        +3.87337000
O        -0.88703000        +0.07908000        +4.36599000
O        -0.59547000        -0.90177000        +6.37130000
C        -1.83473000        -0.94041000        +4.00659000
C        -3.44407000        +2.38192000        +5.41139000
C        +1.35669000        +2.90674000        +4.43728000
C        +2.65731000        +3.22400000        +5.20074000
C        +3.06997000        +1.80051000        +5.67519000
C        +1.97084000        +0.91401000        +5.02481000
O        +1.65501000        +1.64363000        +3.82843000
H        +0.30472000        +3.19486000        +6.34119000
H        +0.86584000        +1.02658000        +6.93627000
H        -2.66088000        -0.95977000        +4.71923000
H        -3.73415000        +3.42222000        +5.25625000
H        +3.39895000        +3.64482000        +4.52024000
H        +2.50897000        +3.93188000        +6.01870000
H        +4.04843000        +1.51694000        +5.28380000
H        +3.10020000        +1.69438000        +6.76147000
H        -2.18487000        -0.67065000        +3.01282000
H        -1.35401000        -1.91997000        +3.99123000
H        -4.01194000        +1.94323000        +6.22890000
H        -3.60459000        +1.82400000        +4.48724000
C        +0.92689000        +3.89777000        +3.37789000
C        +2.38111000        -0.50567000        +4.70407000
H        +3.28972000        -0.49978000        +4.09853000
H        +2.57651000        -1.06359000        +5.62298000
H        +1.59996000        -1.02196000        +4.14347000
H        +1.74506000        +4.08886000        +2.71533000
H        +0.62580000        +4.81178000        +3.84569000
H        +0.10586000        +3.49353000        +2.82345000
$end

$rem
JOBTYPE                   SP
METHOD                    B3LYP
DFT_D                     d3_op
BASIS                     6-311++G(d,p)
SYMMETRY                  False
THRESH                    12
SCF_CONVERGENCE           8
MAX_SUB_FILE_NUM          128
MEM_STATIC                400
MEM_TOTAL                 4000
$end
--------------------------------------------------------------

             Standard Nuclear Orientation (Angstroms)
    I     Atom           X                Y                Z
 ----------------------------------------------------------------
    1      C      -1.6880529774     0.2564719195     0.8617589081
    2      C      -1.7943818688     0.4044144116    -0.6961237593
    3      C      -2.1487434808    -1.0637952883     1.4507411023
    4      C      -2.4410667098    -0.7322024144    -1.4601814473
    5      O      -1.4685268457    -2.0884159504     0.8897390643
    6      O      -2.9513994378    -1.2009844941     2.3377048895
    7      O      -3.5720372330    -1.1680290022    -0.8761135001
    8      O      -2.0198242480    -1.1642023036    -2.5067460025
    9      C      -4.2685825132    -2.2339202387    -1.5434695181
   10      C      -1.8302081381    -3.4081423004     1.3334816217
   11      C      -2.5139980392     1.4707720451     1.3492639679
   12      C      -1.6739963154     2.7505585359     1.1712720978
   13      C      -1.7103191922     2.9086732881    -0.3764343447
   14      C      -2.6364750023     1.7332031818    -0.7977045620
   15      O      -3.5146974048     1.6130415259     0.3326518534
   16      H      -0.6378490434     0.3500993178     1.1525792274
   17      H      -0.8138216677     0.5329675278    -1.1508978991
   18      H      -3.6145172667    -3.0991465850    -1.6632043277
   19      H      -1.6235011813    -3.5251710623     2.3983832223
   20      H      -2.1615333547     3.5915208031     1.6665394118
   21      H      -0.6649829713     2.6575289204     1.5779599065
   22      H      -2.1644164020     3.8564091261    -0.6706698862
   23      H      -0.7255100118     2.8496555239    -0.8442478223
   24      H      -5.1139972944    -2.4715826367    -0.9018015959
   25      H      -4.6126702808    -1.9082489642    -2.5265296744
   26      H      -1.2181460573    -4.0896473317     0.7468141225
   27      H      -2.8910960637    -3.5896938544     1.1527872342
   28      C      -3.1753641692     1.2689307500     2.6950093400
   29      C      -3.4187507675     1.9427190202    -2.0747459331
   30      H      -3.9758847095     2.8800382803    -2.0171274376
   31      H      -2.7438734163     1.9888682181    -2.9328032079
   32      H      -4.1305257873     1.1312369000    -2.2356686987
   33      H      -3.7237482919     2.1491252775     2.9585159594
   34      H      -2.4265824176     1.0801307943     3.4356757786
   35      H      -3.8434780793     0.4347990165     2.6425497710
   36      C       3.4057570333     0.1866832281     0.6204673794
   37      C       3.2994281419     0.3346257203    -0.9374152879
   38      C       2.9450665299    -1.1335839796     1.2094495737
   39      C       2.6527433009    -0.8019911057    -1.7014729759
   40      O       3.6252831650    -2.1582046418     0.6484475357
   41      O       2.1424105729    -1.2707731855     2.0964133609
   42      O       1.5217727777    -1.2378176935    -1.1174050287
   43      O       3.0739857627    -1.2339909949    -2.7480375311
   44      C       0.8252274975    -2.3037089300    -1.7847610467
   45      C       3.2636018726    -3.4779309917     1.0921900931
   46      C       2.5798119715     1.4009833538     1.1079724393
   47      C       3.4198136953     2.6807698445     0.9299805691
   48      C       3.3834908185     2.8388845967    -0.6177258733
   49      C       2.4573350084     1.6634144904    -1.0389960906
   50      O       1.5791126058     1.5432528345     0.0913603247
   51      H       4.4559609673     0.2803106265     0.9112876988
   52      H       4.2799883430     0.4631788364    -1.3921894277
   53      H       1.4792927440    -3.1689352763    -1.9044958563
   54      H       3.4703088294    -3.5949597537     2.1570916937
   55      H       2.9322766560     3.5217321118     1.4252478832
   56      H       4.4288270393     2.5877402290     1.3366683778
   57      H       2.9293936086     3.7866204348    -0.9119614148
   58      H       4.3682999989     2.7798668325    -1.0855393509
   59      H      -0.0201872837    -2.5413713281    -1.1430931245
   60      H       0.4811397299    -1.9780376556    -2.7678212030
   61      H       3.8756639534    -4.1594360230     0.5055225939
   62      H       2.2027139469    -3.6594825458     0.9114957056
   63      C       1.9184458415     1.1991420586     2.4537178114
   64      C       1.6750592432     1.8729303288    -2.3160374617
   65      H       1.1179253011     2.8102495890    -2.2584189662
   66      H       2.3499365944     1.9190795267    -3.1740947365
   67      H       0.9632842234     1.0614482086    -2.4769602273
   68      H       1.3700617188     2.0793365861     2.7172244308
   69      H       2.6672275931     1.0103421029     3.1943842500
   70      H       1.2503319313     0.3650103251     2.4012582424
 ----------------------------------------------------------------

   15   -1689.0504317801      5.31E-09 Convergence criterion met
 Total energy in the final basis set = -1689.05043178

                    Orbital Energies (a.u.)
 --------------------------------------------------------------

 Alpha MOs
 -- Occupied --
-19.179 -19.171 -19.171 -19.171 -19.135 -19.122 -19.115 -19.115
-19.115 -19.110 -10.316 -10.305 -10.304 -10.303 -10.249 -10.240
-10.235 -10.234 -10.231 -10.229 -10.221 -10.217 -10.209 -10.207
-10.193 -10.191 -10.184 -10.182 -10.175 -10.166 -10.163 -10.162
-10.147 -10.128  -1.123  -1.117  -1.112  -1.110  -1.071  -1.052
 -1.038  -1.028  -1.026  -1.025  -0.837  -0.822  -0.811  -0.795
 -0.789  -0.774  -0.749  -0.744  -0.732  -0.726  -0.724  -0.713
 -0.679  -0.667  -0.650  -0.635  -0.606  -0.597  -0.586  -0.573
 -0.570  -0.565  -0.564  -0.555  -0.529  -0.518  -0.517  -0.512
 -0.510  -0.501  -0.497  -0.492  -0.487  -0.484  -0.483  -0.477
 -0.475  -0.473  -0.471  -0.465  -0.463  -0.451  -0.446  -0.439
 -0.438  -0.434  -0.428  -0.428  -0.420  -0.413  -0.409  -0.407
 -0.405  -0.404  -0.397  -0.395  -0.393  -0.388  -0.378  -0.374
 -0.371  -0.369  -0.367  -0.364  -0.360  -0.357  -0.355  -0.353
 -0.350  -0.345  -0.341  -0.339  -0.335  -0.334  -0.325  -0.323
 -0.319  -0.318  -0.311  -0.309  -0.286  -0.282  -0.281  -0.275
 -0.263  -0.263

          Ground-State Mulliken Net Atomic Charges

     Atom                 Charge (a.u.)
  ----------------------------------------
      1 C                     0.220757
      2 C                     0.676486
      3 C                    -0.509435
      4 C                    -0.436584
      5 O                     0.066061
      6 O                    -0.106596
      7 O                     0.066538
      8 O                    -0.077844
      9 C                    -0.153580
     10 C                    -0.267799
     11 C                    -1.044572
     12 C                    -0.106992
     13 C                     0.048661
     14 C                    -0.985427
     15 O                     0.190570
     16 H                     0.195188
     17 H                     0.063147
     18 H                     0.191615
     19 H                     0.195320
     20 H                     0.196474
     21 H                     0.134062
     22 H                     0.199284
     23 H                     0.082657
     24 H                     0.176811
     25 H                     0.177578
     26 H                     0.126275
     27 H                     0.193519
     28 C                    -0.367521
     29 C                    -0.178093
     30 H                     0.177017
     31 H                     0.165418
     32 H                     0.184757
     33 H                     0.139902
     34 H                     0.143956
     35 H                     0.206327
     36 C                    -0.094775
     37 C                     0.469251
     38 C                    -0.729362
     39 C                    -0.776089
     40 O                     0.062264
     41 O                    -0.068567
     42 O                     0.051309
     43 O                    -0.087887
     44 C                    -0.361837
     45 C                    -0.165419
     46 C                     0.010144
     47 C                    -0.309590
     48 C                    -0.413638
     49 C                    -0.245323
     50 O                     0.309454
     51 H                     0.261023
     52 H                     0.285831
     53 H                     0.218309
     54 H                     0.167984
     55 H                     0.175287
     56 H                     0.154597
     57 H                     0.168936
     58 H                     0.150599
     59 H                     0.139550
     60 H                     0.237772
     61 H                     0.167126
     62 H                     0.176471
     63 C                    -0.670036
     64 C                    -0.405162
     65 H                     0.210276
     66 H                     0.196933
     67 H                     0.222930
     68 H                     0.139778
     69 H                     0.170852
     70 H                     0.197072
  ----------------------------------------
  Sum of atomic charges =    -0.000000

                    Cartesian Multipole Moments
 -----------------------------------------------------------------
    Charge (ESU x 10^10)
                -0.0000
    Dipole Moment (Debye)
         X       2.7402      Y      -0.5297      Z       0.4727
       Tot       2.8307
    Quadrupole Moments (Debye-Ang)
        XX    -202.6012     XY      11.8431     YY    -180.6323
        XZ      17.7933     YZ      -6.5232     ZZ    -220.7494

 Total job time:  3925.22s(wall), 7815.25s(cpu)
        *  Thank you very much for using Q-Chem.  Have a nice day.  *
