 Q-Chem 5.0, Q-Chem, Inc., Pleasanton, CA (2017)
 Q-Chem 5.0.1 for Intel X86 EM64T Linux

User input:
--------------------------------------------------------------
$molecule
0  1
--
0  1
C        -0.54444000        -0.68370000        -0.06689000
C        -0.55709000        +0.71878000        +0.05493000
C        +0.74969000        -1.43776000        -0.09374000
C        +0.72843000        +1.48436000        +0.06598000
O        +1.53645000        -1.09176000        +0.94813000
O        +1.04702000        -2.28405000        -0.90088000
O        +1.53784000        +1.08301000        -0.93877000
O        +1.01035000        +2.37097000        +0.83478000
C        +2.83449000        +1.70121000        -0.99358000
C        +2.82316000        -1.73208000        +1.00475000
C        -1.74320000        -1.41616000        -0.12552000
C        -2.93952000        -0.70056000        -0.05285000
C        -2.95313000        +0.68255000        +0.06934000
C        -1.77161000        +1.42404000        +0.12810000
H        +2.73835000        +2.77989000        -1.12464000
H        +2.70778000        -2.81319000        +1.09555000
H        -3.90354000        +1.20325000        +0.11710000
H        +3.38998000        +1.50093000        -0.07544000
H        +3.33184000        +1.25269000        -1.85067000
H        +3.31095000        -1.32281000        +1.88650000
H        +3.39889000        -1.50934000        +0.10459000
H        -3.87892000        -1.24211000        -0.08988000
C        -1.83960000        +2.92746000        +0.24839000
H        -1.24214000        +3.42352000        -0.52065000
H        -1.45503000        +3.26427000        +1.21284000
H        -2.87211000        +3.26623000        +0.14638000
H        -1.73878000        -2.44393000        -0.21875000
--
0  1
C        -0.50934000        -1.12838000        +5.01357000
C        -0.52199000        +0.27410000        +5.13539000
C        +0.78479000        -1.88244000        +4.98672000
C        +0.76353000        +1.03968000        +5.14644000
O        +1.57155000        -1.53644000        +6.02859000
O        +1.08212000        -2.72873000        +4.17958000
O        +1.57294000        +0.63833000        +4.14169000
O        +1.04545000        +1.92629000        +5.91524000
C        +2.86959000        +1.25653000        +4.08688000
C        +2.85826000        -2.17676000        +6.08521000
C        -1.70810000        -1.86084000        +4.95494000
C        -2.90442000        -1.14524000        +5.02761000
C        -2.91803000        +0.23787000        +5.14980000
C        -1.73651000        +0.97936000        +5.20856000
H        +2.77345000        +2.33521000        +3.95582000
H        +2.74288000        -3.25787000        +6.17601000
H        -3.86844000        +0.75857000        +5.19756000
H        +3.42508000        +1.05625000        +5.00502000
H        +3.36694000        +0.80801000        +3.22979000
H        +3.34605000        -1.76749000        +6.96696000
H        +3.43399000        -1.95402000        +5.18505000
H        -3.84382000        -1.68679000        +4.99058000
C        -1.80450000        +2.48278000        +5.32885000
H        -1.20704000        +2.97884000        +4.55981000
H        -1.41993000        +2.81959000        +6.29330000
H        -2.83701000        +2.82155000        +5.22684000
H        -1.70368000        -2.88861000        +4.86171000
$end

$rem
JOBTYPE                   SP
METHOD                    B3LYP
DFT_D                     d3_op
BASIS                     6-311++G(d,p)
SYMMETRY                  False
THRESH                    12
SCF_CONVERGENCE           8
MAX_SUB_FILE_NUM          128
MEM_STATIC                400
MEM_TOTAL                 4000
$end
--------------------------------------------------------------

             Standard Nuclear Orientation (Angstroms)
    I     Atom           X                Y                Z
 ----------------------------------------------------------------
    1      C      -2.5049442523     0.2187032965     1.2277477896
    2      C      -2.5913618968     0.7183627858    -0.0855772542
    3      C      -2.3931694563    -1.2536249166     1.4804450211
    4      C      -2.6661653906    -0.2240083517    -1.2453779206
    5      O      -1.3973155073    -1.7989081623     0.7489113658
    6      O      -3.0603876397    -1.8785955529     2.2680480126
    7      O      -3.5835647249    -1.1908550806    -1.0232635419
    8      O      -2.0306091068    -0.1308216105    -2.2671381958
    9      C      -3.7015484199    -2.1986767755    -2.0415227808
   10      C      -1.2199126368    -3.2195085394     0.8876951577
   11      C      -2.4802442286     1.0877123668     2.3328151228
   12      C      -2.5389847164     2.4584839272     2.0757534269
   13      C      -2.6222030756     2.9524513009     0.7806936450
   14      C      -2.6484676975     2.1026930935    -0.3267677884
   15      H      -3.9920847808    -1.7493205479    -2.9921214182
   16      H      -0.9732817289    -3.4743215729     1.9194894830
   17      H      -2.6716877647     4.0244138994     0.6221498695
   18      H      -2.7524355473    -2.7226345437    -2.1692541009
   19      H      -4.4725506041    -2.8787318357    -1.6862605846
   20      H      -0.3980089825    -3.4743394093     0.2225187223
   21      H      -2.1307463747    -3.7467246963     0.5982280750
   22      H      -2.5155916768     3.1511910484     2.9104567235
   23      C      -2.7524336093     2.6885933579    -1.7143109372
   24      H      -3.5734158650     2.2436853998    -2.2822031289
   25      H      -1.8402483663     2.5115971760    -2.2871017347
   26      H      -2.9249463599     3.7647266265    -1.6557909217
   27      H      -2.4209308466     0.7258152584     3.2974575166
   28      C       2.5851931478     0.3938123361     0.9633915984
   29      C       2.4987755034     0.8934718254    -0.3499334455
   30      C       2.6969679439    -1.0785158770     1.2160888299
   31      C       2.4239720096    -0.0488993122    -1.5097341118
   32      O       3.6928218928    -1.6237991227     0.4845551746
   33      O       2.0297497605    -1.7034865133     2.0036918213
   34      O       1.5065726752    -1.0157460411    -1.2876197331
   35      O       3.0595282933     0.0442874290    -2.5314943870
   36      C       1.3885889802    -2.0235677359    -2.3058789721
   37      C       3.8702247633    -3.0443994998     0.6233389665
   38      C       2.6098931715     1.2628214063     2.0684589315
   39      C       2.5511526837     2.6335929667     1.8113972357
   40      C       2.4679343246     3.1275603405     0.5163374538
   41      C       2.4416697026     2.2778021330    -0.5911239797
   42      H       1.0980526193    -1.5742115084    -3.2564776094
   43      H       4.1168556712    -3.2992125333     1.6551332918
   44      H       2.4184496354     4.1995229389     0.3577936782
   45      H       2.3377018529    -2.5475255042    -2.4336102921
   46      H       0.6175867960    -2.7036227962    -1.9506167758
   47      H       4.6921284177    -3.2992303698    -0.0418374689
   48      H       2.9593910255    -3.5716156567     0.3338718838
   49      H       2.5745457233     3.3263000879     2.6461005323
   50      C       2.3377037909     2.8637023975    -1.9786671285
   51      H       1.5167215351     2.4187944393    -2.5465593201
   52      H       3.2498890338     2.6867062156    -2.5514579259
   53      H       2.1651910403     3.9398356661    -1.9201471129
   54      H       2.6692065535     0.9009242980     3.0331013253
 ----------------------------------------------------------------

   15   -1455.0934697670      6.58E-09 Convergence criterion met
 Total energy in the final basis set = -1455.09346977

                    Orbital Energies (a.u.)
 --------------------------------------------------------------

 Alpha MOs
 -- Occupied --
-19.177 -19.176 -19.171 -19.169 -19.120 -19.119 -19.116 -19.113
-10.312 -10.311 -10.308 -10.305 -10.233 -10.232 -10.228 -10.225
-10.208 -10.207 -10.205 -10.205 -10.204 -10.204 -10.191 -10.190
-10.189 -10.187 -10.187 -10.187 -10.173 -10.170  -1.120  -1.119
 -1.111  -1.109  -1.032  -1.030  -1.027  -1.023  -0.883  -0.883
 -0.798  -0.798  -0.792  -0.792  -0.744  -0.744  -0.729  -0.727
 -0.702  -0.701  -0.652  -0.651  -0.624  -0.624  -0.579  -0.577
 -0.574  -0.569  -0.547  -0.546  -0.519  -0.517  -0.511  -0.510
 -0.490  -0.490  -0.486  -0.485  -0.481  -0.477  -0.476  -0.474
 -0.469  -0.468  -0.445  -0.443  -0.434  -0.432  -0.430  -0.429
 -0.427  -0.424  -0.411  -0.409  -0.404  -0.402  -0.393  -0.393
 -0.382  -0.380  -0.376  -0.374  -0.368  -0.366  -0.363  -0.362
 -0.360  -0.358  -0.320  -0.319  -0.310  -0.308  -0.295  -0.294
 -0.291  -0.289  -0.267  -0.265  -0.262  -0.260

          Ground-State Mulliken Net Atomic Charges

     Atom                 Charge (a.u.)
  ----------------------------------------
      1 C                     0.397946
      2 C                     1.126334
      3 C                    -0.483967
      4 C                    -1.029503
      5 O                     0.114046
      6 O                    -0.174807
      7 O                     0.098658
      8 O                    -0.097603
      9 C                    -0.181944
     10 C                    -0.344206
     11 C                    -0.516985
     12 C                    -0.211065
     13 C                    -0.406033
     14 C                     0.196433
     15 H                     0.166180
     16 H                     0.206906
     17 H                     0.150203
     18 H                     0.179818
     19 H                     0.172743
     20 H                     0.094012
     21 H                     0.186654
     22 H                     0.183063
     23 C                    -0.538346
     24 H                     0.174128
     25 H                     0.191170
     26 H                     0.147057
     27 H                     0.195014
     28 C                     0.580948
     29 C                     0.853311
     30 C                    -0.891969
     31 C                    -0.753266
     32 O                     0.086408
     33 O                    -0.104228
     34 O                     0.102668
     35 O                    -0.148032
     36 C                    -0.325536
     37 C                    -0.168460
     38 C                    -0.528247
     39 C                    -0.203259
     40 C                    -0.487631
     41 C                     0.408854
     42 H                     0.199018
     43 H                     0.169619
     44 H                     0.150152
     45 H                     0.195842
     46 H                     0.101988
     47 H                     0.172875
     48 H                     0.174152
     49 H                     0.185170
     50 C                    -0.499167
     51 H                     0.201977
     52 H                     0.214502
     53 H                     0.134586
     54 H                     0.181821
  ----------------------------------------
  Sum of atomic charges =     0.000000

                    Cartesian Multipole Moments
 -----------------------------------------------------------------
    Charge (ESU x 10^10)
                 0.0000
    Dipole Moment (Debye)
         X       0.2491      Y       0.3733      Z      -0.7979
       Tot       0.9155
    Quadrupole Moments (Debye-Ang)
        XX    -182.4379     XY      -7.3867     YY    -144.7524
        XZ      16.8983     YZ      14.2546     ZZ    -180.4750

 Total job time:  1710.72s(wall), 3405.60s(cpu)
        *  Thank you very much for using Q-Chem.  Have a nice day.  *
