 Q-Chem 5.0, Q-Chem, Inc., Pleasanton, CA (2017)
 Q-Chem 5.0.1 for Intel X86 EM64T Linux

User input:
--------------------------------------------------------------
$molecule
0  1
--
0  1
C        -0.54444000        -0.68370000        -0.06689000
C        -0.55709000        +0.71878000        +0.05493000
C        +0.74969000        -1.43776000        -0.09374000
C        +0.72843000        +1.48436000        +0.06598000
O        +1.53645000        -1.09176000        +0.94813000
O        +1.04702000        -2.28405000        -0.90088000
O        +1.53784000        +1.08301000        -0.93877000
O        +1.01035000        +2.37097000        +0.83478000
C        +2.83449000        +1.70121000        -0.99358000
C        +2.82316000        -1.73208000        +1.00475000
C        -1.74320000        -1.41616000        -0.12552000
C        -2.93952000        -0.70056000        -0.05285000
C        -2.95313000        +0.68255000        +0.06934000
C        -1.77161000        +1.42404000        +0.12810000
H        +2.73835000        +2.77989000        -1.12464000
H        +2.70778000        -2.81319000        +1.09555000
H        -3.90354000        +1.20325000        +0.11710000
H        +3.38998000        +1.50093000        -0.07544000
H        +3.33184000        +1.25269000        -1.85067000
H        +3.31095000        -1.32281000        +1.88650000
H        +3.39889000        -1.50934000        +0.10459000
H        -3.87892000        -1.24211000        -0.08988000
C        -1.83960000        +2.92746000        +0.24839000
C        -1.78103000        -2.92226000        -0.24590000
H        -1.39752000        -3.25223000        -1.21323000
H        -2.80572000        -3.28175000        -0.13627000
H        -1.16958000        -3.40777000        +0.51926000
H        -1.24214000        +3.42352000        -0.52065000
H        -1.45503000        +3.26427000        +1.21284000
H        -2.87211000        +3.26623000        +0.14638000
--
0  1
C        -0.50934000        -1.12838000        +5.01357000
C        -0.52199000        +0.27410000        +5.13539000
C        +0.78479000        -1.88244000        +4.98672000
C        +0.76353000        +1.03968000        +5.14644000
O        +1.57155000        -1.53644000        +6.02859000
O        +1.08212000        -2.72873000        +4.17958000
O        +1.57294000        +0.63833000        +4.14169000
O        +1.04545000        +1.92629000        +5.91524000
C        +2.86959000        +1.25653000        +4.08688000
C        +2.85826000        -2.17676000        +6.08521000
C        -1.70810000        -1.86084000        +4.95494000
C        -2.90442000        -1.14524000        +5.02761000
C        -2.91803000        +0.23787000        +5.14980000
C        -1.73651000        +0.97936000        +5.20856000
H        +2.77345000        +2.33521000        +3.95582000
H        +2.74288000        -3.25787000        +6.17601000
H        -3.86844000        +0.75857000        +5.19756000
H        +3.42508000        +1.05625000        +5.00502000
H        +3.36694000        +0.80801000        +3.22979000
H        +3.34605000        -1.76749000        +6.96696000
H        +3.43399000        -1.95402000        +5.18505000
H        -3.84382000        -1.68679000        +4.99058000
C        -1.80450000        +2.48278000        +5.32885000
C        -1.74593000        -3.36694000        +4.83456000
H        -1.36242000        -3.69691000        +3.86723000
H        -2.77062000        -3.72643000        +4.94419000
H        -1.13448000        -3.85245000        +5.59972000
H        -1.20704000        +2.97884000        +4.55981000
H        -1.41993000        +2.81959000        +6.29330000
H        -2.83701000        +2.82155000        +5.22684000
$end

$rem
JOBTYPE                   SP
METHOD                    B3LYP
DFT_D                     d3_op
BASIS                     6-311++G(d,p)
SYMMETRY                  False
THRESH                    12
SCF_CONVERGENCE           8
MAX_SUB_FILE_NUM          128
MEM_STATIC                400
MEM_TOTAL                 4000
$end
--------------------------------------------------------------

             Standard Nuclear Orientation (Angstroms)
    I     Atom           X                Y                Z
 ----------------------------------------------------------------
    1      C      -2.5100767513     0.4921978171     0.8735624796
    2      C      -2.6006498070     0.5579029583    -0.5298012085
    3      C      -2.4077293561    -0.8287266854     1.5726928913
    4      C      -2.6894008493    -0.6985806456    -1.3373708432
    5      O      -1.4203554151    -1.5838985805     1.0444803355
    6      O      -3.0748393555    -1.1707815511     2.5182348471
    7      O      -3.6126091736    -1.5396322059    -0.8215534374
    8      O      -2.0593048409    -0.9345164726    -2.3393303854
    9      C      -3.7441763551    -2.8137494490    -1.4740807750
   10      C      -1.2526813872    -2.8918069286     1.6190230443
   11      C      -2.4722998690     1.6623548889     1.6521933297
   12      C      -2.5223959121     2.8849614314     0.9804274032
   13      C      -2.6097026445     2.9509291099    -0.4038177702
   14      C      -2.6489154025     1.7983281067    -1.1907249790
   15      H      -4.0370586282    -2.6808401311    -2.5164459955
   16      H      -1.0017708446    -2.8141673203     2.6779715829
   17      H      -2.6521724945     3.9203108332    -0.8887755644
   18      H      -2.7997642888    -3.3598554561    -1.4351403567
   19      H      -4.5180658786    -3.3421020839    -0.9217502765
   20      H      -0.4366945908    -3.3487811401     1.0638075928
   21      H      -2.1691247195    -3.4748662654     1.5116005395
   22      H      -2.4888558868     3.8032818682     1.5572138676
   23      C      -2.7568401105     1.9229656765    -2.6914520542
   24      C      -2.3653307233     1.6433521896     3.1596601328
   25      H      -3.2673877257     1.2311052353     3.6157665491
   26      H      -2.2152022259     2.6560907089     3.5378975172
   27      H      -1.5285961980     1.0282771775     3.5011553039
   28      H      -3.5844932874     1.3304305240    -3.0893827120
   29      H      -1.8494439871     1.5679561355    -3.1834879925
   30      H      -2.9210005472     2.9651327275    -2.9710718709
   31      C       2.5795452248     0.5306365772     0.5505814802
   32      C       2.4889721691     0.5963417185    -0.8527822080
   33      C       2.6818926200    -0.7902879252     1.2497118918
   34      C       2.4002211268    -0.6601418855    -1.6603518426
   35      O       3.6692665610    -1.5454598204     0.7214993361
   36      O       2.0147826207    -1.1323427910     2.1952538476
   37      O       1.4770128025    -1.5011934458    -1.1445344369
   38      O       3.0303171352    -0.8960777125    -2.6623113848
   39      C       1.3454456211    -2.7753106889    -1.7970617744
   40      C       3.8369405889    -2.8533681685     1.2960420449
   41      C       2.6173221071     1.7007936490     1.3292123302
   42      C       2.5672260640     2.9234001915     0.6574464038
   43      C       2.4799193316     2.9893678700    -0.7267987697
   44      C       2.4407065736     1.8367668669    -1.5137059785
   45      H       1.0525633479    -2.6424013710    -2.8394269949
   46      H       4.0878511315    -2.7757285602     2.3549905835
   47      H       2.4374494816     3.9587495933    -1.2117565638
   48      H       2.2898576873    -3.3214166960    -1.7581213561
   49      H       0.5715560975    -3.3036633238    -1.2447312760
   50      H       4.6529273853    -3.3103423800     0.7408265934
   51      H       2.9204972566    -3.4364275053     1.1886195401
   52      H       2.6007660893     3.8417206283     1.2342328682
   53      C       2.3327818657     1.9614044366    -3.0144330537
   54      C       2.7242912529     1.6817909498     2.8366791334
   55      H       1.8222342504     1.2695439955     3.2927855496
   56      H       2.8744197502     2.6945294690     3.2149165178
   57      H       3.5610257781     1.0667159376     3.1781743044
   58      H       1.5051286887     1.3688692841    -3.4123637114
   59      H       3.2401779891     1.6063948956    -3.5064689919
   60      H       2.1686214289     3.0035714877    -3.2940528704
 ----------------------------------------------------------------

   14   -1533.7594707357      9.32E-09 Convergence criterion met
 Total energy in the final basis set = -1533.75947074

                    Orbital Energies (a.u.)
 --------------------------------------------------------------

 Alpha MOs
 -- Occupied --
-19.176 -19.175 -19.170 -19.169 -19.118 -19.118 -19.114 -19.113
-10.310 -10.310 -10.306 -10.305 -10.232 -10.232 -10.227 -10.225
-10.202 -10.202 -10.201 -10.201 -10.198 -10.198 -10.198 -10.197
-10.184 -10.184 -10.183 -10.183 -10.170 -10.169 -10.167 -10.166
 -1.119  -1.118  -1.110  -1.109  -1.030  -1.030  -1.025  -1.024
 -0.882  -0.882  -0.804  -0.804  -0.792  -0.792  -0.744  -0.743
 -0.731  -0.731  -0.722  -0.721  -0.672  -0.672  -0.646  -0.646
 -0.618  -0.617  -0.575  -0.574  -0.562  -0.561  -0.534  -0.534
 -0.515  -0.514  -0.512  -0.511  -0.489  -0.489  -0.485  -0.484
 -0.478  -0.475  -0.474  -0.472  -0.467  -0.466  -0.441  -0.439
 -0.433  -0.431  -0.428  -0.425  -0.419  -0.417  -0.413  -0.413
 -0.409  -0.408  -0.403  -0.402  -0.393  -0.392  -0.385  -0.384
 -0.378  -0.377  -0.370  -0.369  -0.359  -0.358  -0.356  -0.355
 -0.354  -0.353  -0.319  -0.318  -0.309  -0.308  -0.292  -0.292
 -0.288  -0.287  -0.264  -0.262  -0.251  -0.249

          Ground-State Mulliken Net Atomic Charges

     Atom                 Charge (a.u.)
  ----------------------------------------
      1 C                     0.311681
      2 C                     0.385660
      3 C                    -0.550912
      4 C                    -0.825998
      5 O                     0.132289
      6 O                    -0.150325
      7 O                     0.088799
      8 O                    -0.097856
      9 C                    -0.164965
     10 C                    -0.314543
     11 C                     0.485299
     12 C                    -0.383141
     13 C                    -0.361961
     14 C                     0.376250
     15 H                     0.165754
     16 H                     0.195410
     17 H                     0.161426
     18 H                     0.176118
     19 H                     0.171931
     20 H                     0.096581
     21 H                     0.190737
     22 H                     0.158021
     23 C                    -0.644431
     24 C                    -0.647283
     25 H                     0.214132
     26 H                     0.129981
     27 H                     0.199963
     28 H                     0.173761
     29 H                     0.190718
     30 H                     0.138818
     31 C                     0.364055
     32 C                     0.327972
     33 C                    -0.861842
     34 C                    -0.536242
     35 O                     0.103850
     36 O                    -0.085520
     37 O                     0.107297
     38 O                    -0.150629
     39 C                    -0.319560
     40 C                    -0.158329
     41 C                     0.378023
     42 C                    -0.355420
     43 C                    -0.375511
     44 C                     0.489965
     45 H                     0.198642
     46 H                     0.164677
     47 H                     0.157922
     48 H                     0.194652
     49 H                     0.095018
     50 H                     0.170942
     51 H                     0.175264
     52 H                     0.162255
     53 C                    -0.642309
     54 C                    -0.653541
     55 H                     0.191390
     56 H                     0.139661
     57 H                     0.173966
     58 H                     0.199515
     59 H                     0.213171
     60 H                     0.128748
  ----------------------------------------
  Sum of atomic charges =     0.000000

                    Cartesian Multipole Moments
 -----------------------------------------------------------------
    Charge (ESU x 10^10)
                 0.0000
    Dipole Moment (Debye)
         X       0.1917      Y      -0.0832      Z       0.1813
       Tot       0.2767
    Quadrupole Moments (Debye-Ang)
        XX    -195.0835     XY      -1.4229     YY    -154.6289
        XZ      17.7858     YZ       1.7362     ZZ    -196.5483

 Total job time:  2310.70s(wall), 4600.31s(cpu)
        *  Thank you very much for using Q-Chem.  Have a nice day.  *
