 Q-Chem 5.0, Q-Chem, Inc., Pleasanton, CA (2017)
 Q-Chem 5.0.1 for Intel X86 EM64T Linux

User input:
--------------------------------------------------------------
$molecule
0  1
C        -0.50934000        -1.12838000        +5.01357000
C        -0.52199000        +0.27410000        +5.13539000
C        +0.78479000        -1.88244000        +4.98672000
C        +0.76353000        +1.03968000        +5.14644000
O        +1.57155000        -1.53644000        +6.02859000
O        +1.08212000        -2.72873000        +4.17958000
O        +1.57294000        +0.63833000        +4.14169000
O        +1.04545000        +1.92629000        +5.91524000
C        +2.86959000        +1.25653000        +4.08688000
C        +2.85826000        -2.17676000        +6.08521000
C        -1.70810000        -1.86084000        +4.95494000
C        -2.90442000        -1.14524000        +5.02761000
C        -2.91803000        +0.23787000        +5.14980000
C        -1.73651000        +0.97936000        +5.20856000
H        +2.77345000        +2.33521000        +3.95582000
H        +2.74288000        -3.25787000        +6.17601000
H        -3.86844000        +0.75857000        +5.19756000
H        +3.42508000        +1.05625000        +5.00502000
H        +3.36694000        +0.80801000        +3.22979000
H        +3.34605000        -1.76749000        +6.96696000
H        +3.43399000        -1.95402000        +5.18505000
H        -3.84382000        -1.68679000        +4.99058000
C        -1.80450000        +2.48278000        +5.32885000
C        -1.74593000        -3.36694000        +4.83456000
H        -1.36242000        -3.69691000        +3.86723000
H        -2.77062000        -3.72643000        +4.94419000
H        -1.13448000        -3.85245000        +5.59972000
H        -1.20704000        +2.97884000        +4.55981000
H        -1.41993000        +2.81959000        +6.29330000
H        -2.83701000        +2.82155000        +5.22684000
@C        -0.54444000        -0.68370000        -0.06689000
@C        -0.55709000        +0.71878000        +0.05493000
@C        +0.74969000        -1.43776000        -0.09374000
@C        +0.72843000        +1.48436000        +0.06598000
@O        +1.53645000        -1.09176000        +0.94813000
@O        +1.04702000        -2.28405000        -0.90088000
@O        +1.53784000        +1.08301000        -0.93877000
@O        +1.01035000        +2.37097000        +0.83478000
@C        +2.83449000        +1.70121000        -0.99358000
@C        +2.82316000        -1.73208000        +1.00475000
@C        -1.74320000        -1.41616000        -0.12552000
@C        -2.93952000        -0.70056000        -0.05285000
@C        -2.95313000        +0.68255000        +0.06934000
@C        -1.77161000        +1.42404000        +0.12810000
@H        +2.73835000        +2.77989000        -1.12464000
@H        +2.70778000        -2.81319000        +1.09555000
@H        -3.90354000        +1.20325000        +0.11710000
@H        +3.38998000        +1.50093000        -0.07544000
@H        +3.33184000        +1.25269000        -1.85067000
@H        +3.31095000        -1.32281000        +1.88650000
@H        +3.39889000        -1.50934000        +0.10459000
@H        -3.87892000        -1.24211000        -0.08988000
@C        -1.83960000        +2.92746000        +0.24839000
@C        -1.78103000        -2.92226000        -0.24590000
@H        -1.39752000        -3.25223000        -1.21323000
@H        -2.80572000        -3.28175000        -0.13627000
@H        -1.16958000        -3.40777000        +0.51926000
@H        -1.24214000        +3.42352000        -0.52065000
@H        -1.45503000        +3.26427000        +1.21284000
@H        -2.87211000        +3.26623000        +0.14638000
$end

$rem
JOBTYPE                   SP
METHOD                    B3LYP
DFT_D                     d3_op
BASIS                     6-311++G(d,p)
SYMMETRY                  False
THRESH                    12
SCF_CONVERGENCE           8
MAX_SUB_FILE_NUM          128
MEM_STATIC                400
MEM_TOTAL                 4000
$end
--------------------------------------------------------------

             Standard Nuclear Orientation (Angstroms)
    I     Atom           X                Y                Z
 ----------------------------------------------------------------
    1      C      -0.5093400000    -1.1283800000     5.0135700000
    2      C      -0.5219900000     0.2741000000     5.1353900000
    3      C       0.7847900000    -1.8824400000     4.9867200000
    4      C       0.7635300000     1.0396800000     5.1464400000
    5      O       1.5715500000    -1.5364400000     6.0285900000
    6      O       1.0821200000    -2.7287300000     4.1795800000
    7      O       1.5729400000     0.6383300000     4.1416900000
    8      O       1.0454500000     1.9262900000     5.9152400000
    9      C       2.8695900000     1.2565300000     4.0868800000
   10      C       2.8582600000    -2.1767600000     6.0852100000
   11      C      -1.7081000000    -1.8608400000     4.9549400000
   12      C      -2.9044200000    -1.1452400000     5.0276100000
   13      C      -2.9180300000     0.2378700000     5.1498000000
   14      C      -1.7365100000     0.9793600000     5.2085600000
   15      H       2.7734500000     2.3352100000     3.9558200000
   16      H       2.7428800000    -3.2578700000     6.1760100000
   17      H      -3.8684400000     0.7585700000     5.1975600000
   18      H       3.4250800000     1.0562500000     5.0050200000
   19      H       3.3669400000     0.8080100000     3.2297900000
   20      H       3.3460500000    -1.7674900000     6.9669600000
   21      H       3.4339900000    -1.9540200000     5.1850500000
   22      H      -3.8438200000    -1.6867900000     4.9905800000
   23      C      -1.8045000000     2.4827800000     5.3288500000
   24      C      -1.7459300000    -3.3669400000     4.8345600000
   25      H      -1.3624200000    -3.6969100000     3.8672300000
   26      H      -2.7706200000    -3.7264300000     4.9441900000
   27      H      -1.1344800000    -3.8524500000     5.5997200000
   28      H      -1.2070400000     2.9788400000     4.5598100000
   29      H      -1.4199300000     2.8195900000     6.2933000000
   30      H      -2.8370100000     2.8215500000     5.2268400000
   31      GH     -0.5444400000    -0.6837000000    -0.0668900000
   32      GH     -0.5570900000     0.7187800000     0.0549300000
   33      GH      0.7496900000    -1.4377600000    -0.0937400000
   34      GH      0.7284300000     1.4843600000     0.0659800000
   35      GH      1.5364500000    -1.0917600000     0.9481300000
   36      GH      1.0470200000    -2.2840500000    -0.9008800000
   37      GH      1.5378400000     1.0830100000    -0.9387700000
   38      GH      1.0103500000     2.3709700000     0.8347800000
   39      GH      2.8344900000     1.7012100000    -0.9935800000
   40      GH      2.8231600000    -1.7320800000     1.0047500000
   41      GH     -1.7432000000    -1.4161600000    -0.1255200000
   42      GH     -2.9395200000    -0.7005600000    -0.0528500000
   43      GH     -2.9531300000     0.6825500000     0.0693400000
   44      GH     -1.7716100000     1.4240400000     0.1281000000
   45      GH      2.7383500000     2.7798900000    -1.1246400000
   46      GH      2.7077800000    -2.8131900000     1.0955500000
   47      GH     -3.9035400000     1.2032500000     0.1171000000
   48      GH      3.3899800000     1.5009300000    -0.0754400000
   49      GH      3.3318400000     1.2526900000    -1.8506700000
   50      GH      3.3109500000    -1.3228100000     1.8865000000
   51      GH      3.3988900000    -1.5093400000     0.1045900000
   52      GH     -3.8789200000    -1.2421100000    -0.0898800000
   53      GH     -1.8396000000     2.9274600000     0.2483900000
   54      GH     -1.7810300000    -2.9222600000    -0.2459000000
   55      GH     -1.3975200000    -3.2522300000    -1.2132300000
   56      GH     -2.8057200000    -3.2817500000    -0.1362700000
   57      GH     -1.1695800000    -3.4077700000     0.5192600000
   58      GH     -1.2421400000     3.4235200000    -0.5206500000
   59      GH     -1.4550300000     3.2642700000     1.2128400000
   60      GH     -2.8721100000     3.2662300000     0.1463800000
 ----------------------------------------------------------------

   14    -766.8772348572      5.96E-09 Convergence criterion met
 Total energy in the final basis set = -766.87723486

                    Orbital Energies (a.u.)
 --------------------------------------------------------------

 Alpha MOs
 -- Occupied --
-19.176 -19.176 -19.119 -19.119 -10.311 -10.311 -10.232 -10.232
-10.205 -10.205 -10.201 -10.201 -10.187 -10.186 -10.171 -10.170
 -1.121  -1.114  -1.031  -1.030  -0.885  -0.807  -0.795  -0.747
 -0.734  -0.725  -0.675  -0.649  -0.620  -0.577  -0.565  -0.537
 -0.517  -0.515  -0.491  -0.489  -0.480  -0.477  -0.469  -0.442
 -0.434  -0.429  -0.420  -0.416  -0.411  -0.406  -0.396  -0.387
 -0.380  -0.373  -0.362  -0.359  -0.357  -0.321  -0.313  -0.293
 -0.292  -0.266  -0.253

          Ground-State Mulliken Net Atomic Charges

     Atom                 Charge (a.u.)
  ----------------------------------------
      1 C                     0.441526
      2 C                     0.238873
      3 C                    -0.901311
      4 C                    -0.484837
      5 O                     0.100432
      6 O                    -0.069554
      7 O                     0.109335
      8 O                    -0.145141
      9 C                    -0.343217
     10 C                    -0.159903
     11 C                     0.352630
     12 C                    -0.374058
     13 C                    -0.350620
     14 C                     0.494504
     15 H                     0.193379
     16 H                     0.164485
     17 H                     0.162245
     18 H                     0.197411
     19 H                     0.105772
     20 H                     0.170255
     21 H                     0.177909
     22 H                     0.164954
     23 C                    -0.633413
     24 C                    -0.657144
     25 H                     0.204269
     26 H                     0.140145
     27 H                     0.174068
     28 H                     0.198776
     29 H                     0.214227
     30 H                     0.131037
     31 GH                    0.094664
     32 GH                   -0.091752
     33 GH                   -0.065667
     34 GH                    0.044048
     35 GH                   -0.017441
     36 GH                    0.000147
     37 GH                    0.000437
     38 GH                   -0.006219
     39 GH                   -0.004794
     40 GH                    0.003744
     41 GH                   -0.007546
     42 GH                   -0.023385
     43 GH                    0.024810
     44 GH                    0.026548
     45 GH                    0.000465
     46 GH                   -0.002101
     47 GH                    0.000080
     48 GH                    0.002657
     49 GH                   -0.000451
     50 GH                    0.016115
     51 GH                    0.001525
     52 GH                   -0.001604
     53 GH                    0.002157
     54 GH                   -0.003680
     55 GH                   -0.000105
     56 GH                    0.001411
     57 GH                   -0.004281
     58 GH                    0.000134
     59 GH                   -0.006785
     60 GH                   -0.000164
  ----------------------------------------
  Sum of atomic charges =     0.000000

                    Cartesian Multipole Moments
 -----------------------------------------------------------------
    Charge (ESU x 10^10)
                 0.0000
    Dipole Moment (Debye)
         X       0.0681      Y      -0.1078      Z       0.0535
       Tot       0.1383
    Quadrupole Moments (Debye-Ang)
        XX     -76.1753     XY      -0.1212     YY     -95.3399
        XZ       0.4975     YZ      -9.5117     ZZ     -98.9544

 Total job time:  2232.67s(wall), 4444.06s(cpu)
        *  Thank you very much for using Q-Chem.  Have a nice day.  *
