 Q-Chem 5.0, Q-Chem, Inc., Pleasanton, CA (2017)
 Q-Chem 5.0.1 for Intel X86 EM64T Linux

User input:
--------------------------------------------------------------
$molecule
0 1
C 0.29053210 0.82216866 0.62093798
C 0.25609216 -0.75846263 0.60021890
C -0.83318818 1.44567404 -0.18996425
C -0.99775746 -1.32960304 -0.03014299
O -1.92158723 1.61415981 0.60403147
O -0.82687178 1.71933237 -1.36053523
O -1.89238742 -1.65466198 0.93435899
O -1.21122345 -1.48907505 -1.20504044
C -3.15930456 -2.15569958 0.47270966
C -3.10946919 2.09212928 -0.05374294
C 1.71951008 1.08625762 0.05002230
C 2.73737317 0.62776788 1.13594976
C 2.71503773 -0.91243342 0.96803809
C 1.61574443 -1.09008839 -0.11141730
O 1.83810335 0.05722540 -0.94488717
H 0.18845209 1.18041892 1.64506253
H 0.26931902 -1.11998996 1.62769791
H -3.02328332 -3.07438688 -0.10021286
H -3.36724859 1.44367062 -0.89260883
H 3.72283684 1.04045606 0.91428960
H 2.45383148 0.96318011 2.13616004
H 3.66398448 -1.28233876 0.57539123
H 2.49695702 -1.45496606 1.89024006
H -3.74097225 -2.34725395 1.37174372
H -3.65655116 -1.41463392 -0.15551765
H -2.96021643 3.10829099 -0.42264653
H -3.88897785 2.07319355 0.70502505
C 1.69453345 -2.36917075 -0.91471873
H 2.70079438 -2.48179153 -1.32427918
H 1.48667300 -3.23160153 -0.27431272
H 0.97650329 -2.35850138 -1.73301813
C 1.99778392 2.45520339 -0.53313785
H 3.03646980 2.50549013 -0.86709760
H 1.34444742 2.66328082 -1.37797366
H 1.84751757 3.22497757 0.23000523
$end

$rem
sym_ignore      true
jobtype         opt
method          b3lyp
basis           6-311++G(d,p)
dft_d           d3_op
mem_total       62000
MEM_STATIC      4000
ao2mo_disk      350000
max_scf_cycles  200
geom_opt_max_cycles 1000
geom_opt_tol_displacement 1
GEOM_OPT_TOL_GRADIENT       1
GEOM_OPT_TOL_ENERGY         1
$end

--------------------------------------------------------------

   15    -844.5253813621      4.15E-09 Convergence criterion met
 Total energy in the final basis set = -844.52538136
   12    -844.5255617448      6.10E-09 Convergence criterion met
 Total energy in the final basis set = -844.52556174
   12    -844.5263805473      6.26E-09 Convergence criterion met
 Total energy in the final basis set = -844.52638055
   12    -844.5271847050      6.89E-09 Convergence criterion met
 Total energy in the final basis set = -844.52718470
   12    -844.5275844641      7.48E-09 Convergence criterion met
 Total energy in the final basis set = -844.52758446
   13    -844.5277737024      4.39E-09 Convergence criterion met
 Total energy in the final basis set = -844.52777370
   12    -844.5282605595      8.13E-09 Convergence criterion met
 Total energy in the final basis set = -844.52826056
   13    -844.5286370288      4.81E-09 Convergence criterion met
    8    -844.5292565728      5.78E-09 Convergence criterion met
 Total energy in the final basis set = -844.52925657
    7    -844.5292567419      7.51E-09 Convergence criterion met
 Total energy in the final basis set = -844.52925674
    7    -844.5292567132      4.34E-09 Convergence criterion met
 Total energy in the final basis set = -844.52925671
    6    -844.5292567189      5.90E-09 Convergence criterion met
 Total energy in the final basis set = -844.52925672
    6    -844.5292567088      5.86E-09 Convergence criterion met
 Total energy in the final basis set = -844.52925671
    6    -844.5292567156      5.00E-09 Convergence criterion met
 Total energy in the final basis set = -844.52925672
 Final energy is   -844.529256715604
 **  OPTIMIZATION CONVERGED  **
 Total job time:  1885.27s(wall), 32129.49s(cpu)
        *  Thank you very much for using Q-Chem.  Have a nice day.  *

User input: 2 of 2

r0115.ten.osc.edu 10.25.153
Q-Chem Developer Version! Running on 10.25.153.*
                  Welcome to Q-Chem
     A Quantum Leap Into The Future Of Chemistry

 Q-Chem 5.0, Q-Chem, Inc., Pleasanton, CA (2017)

 Yihan Shao,  Zhengting Gan,  E. Epifanovsky,  A. T. B. Gilbert,  M. Wormit,
 J. Kussmann,  A. W. Lange,  A. Behn,  Jia Deng,  Xintian Feng,  D. Ghosh,
 M. Goldey,  P. R. Horn,  L. D. Jacobson,  I. Kaliman,  T. Kus,  A. Landau,
 Jie Liu,  E. I. Proynov,  R. M. Richard,  R. P. Steele,  E. J. Sundstrom,
 H. L. Woodcock III,  P. M. Zimmerman,  D. Zuev,  B. Albrecht,  E. Alguire,
 S. A. Baeppler,  Z. Benda,  Y. A. Bernard,  E. J. Berquist,  K. B. Bravaya,
 D. Casanova,  Chun-Min Chang,  Yunqing Chen,  A. Chien,  K. D. Closser,
 M. P. Coons,  S. Dasgupta,  M. Diedenhofen,  Hainam Do,  R. G. Edgar,
 Po-Tung Fang,  S. Fatehi,  Qingguo Feng,  Qinghui Ge,  A. Ghysels,
 J. Gomes,  J. Gonthier,  A. Gunina,  M. W. D. Hanson-Heine,
 P. H. P. Harbach,  A. W. Hauser,  J. E. Herr,  E. G. Hohenstein,
 Z. C. Holden,  Kerwin Hui,  T.-C. Jagau,  Hyunjun Ji,  B. Kaduk,
 K. Khistyaev,  Jaehoon Kim,  P. Klunzinger,  K. Koh,  D. Kosenkov,
 T. Kowalczyk,  C. M. Krauter,  A. Kunitsa,  Ka Un Lao,  A. Laurent,
 K. V. Lawler,  Joonho Lee,  D. Lefrancois,  S. Lehtola,  D. S. Levine,
 Yi-Pei Li,  You-Sheng Lin,  Fenglai Liu,  E. Livshits,  A. Luenser,
 P. Manohar,  E. Mansoor,  S. F. Manzer,  Shan-Ping Mao,  Yuezhi Mao,
 N. Mardirossian,  A. V. Marenich,  L. A. Martinez-Martinez,  S. A. Maurer,
 N. J. Mayhall,  S. C. McKenzie,  J.-M. Mewes,  A. F. Morrison,  K. Nanda,
 T. S. Nguyen-Beck,  R. Olivares-Amaya,  J. A. Parkhill,  T. M. Perrine,
 F. Plasser,  S. Prager,  A. Prociuk,  D. R. Rehn,  F. Rob,  M. Schneider,
 N. Sergueev,  S. M. Sharada,  S. Sharma,  D. W. Small,  T. Stauch,
 T. Stein,  Yu-Chuan Su,  A. J. W. Thom,  T. Tsuchimochi,  L. Vogt,
 O. Vydrov,  M. A. Watson,  J. Wenzel,  M. de Wergifosse,  T. A. Wesolowski,
 A. White,  J. Witte,  A. Yamada,  Jun Yang,  K. Yao,  S. Yeganeh,
 S. R. Yost,  Zhi-Qiang You,  A. Zech,  Igor Ying Zhang,  Xing Zhang,
 Yan Zhao,  Ying Zhu,  B. R. Brooks,  G. K. L. Chan,  C. J. Cramer,
 M. S. Gordon,  W. J. Hehre,  A. Klamt,  M. W. Schmidt,  C. D. Sherrill,
 D. G. Truhlar,  A. Aspuru-Guzik,  R. Baer,  A. T. Bell,  N. A. Besley,
 Jeng-Da Chai,  A. Dreuw,  B. D. Dunietz,  T. R. Furlani,  Chao-Ping Hsu,
 Yousung Jung,  Jing Kong,  D. S. Lambrecht,  WanZhen Liang,  C. Ochsenfeld,
 V. A. Rassolov,  L. V. Slipchenko,  J. E. Subotnik,  T. Van Voorhis,
 J. M. Herbert,  A. I. Krylov,  P. M. W. Gill,  M. Head-Gordon

 Contributors to earlier versions of Q-Chem not listed above:
 R. D. Adamson,  B. Austin,  J. Baker,  G. J. O. Beran,  K. Brandhorst,
 S. T. Brown,  E. F. C. Byrd,  A. K. Chakraborty,  C.-L. Cheng,
 Siu Hung Chien,  D. M. Chipman,  D. L. Crittenden,  H. Dachsel,
 R. A. DiStasio Jr.,  R. J. Doerksen,  A. D. Dutoi,  L. Fusti-Molnar,
 W. A. Goddard III,  A. Golubeva-Zadorozhnaya,  S. R. Gwaltney,  G. Hawkins,
 A. Heyden,  S. Hirata,  G. Kedziora,  F. J. Keil,  C. Kelley,  Jihan Kim,
 R. A. King,  R. Z. Khaliullin,  P. P. Korambath,  W. Kurlancheek,
 A. M. Lee,  M. S. Lee,  S. V. Levchenko,  Ching Yeh Lin,  D. Liotard,
 R. C. Lochan,  I. Lotan,  P. E. Maslen,  N. Nair,  D. P. O'Neill,
 D. Neuhauser,  E. Neuscamman,  C. M. Oana,  R. Olson,  B. Peters,
 R. Peverati,  P. A. Pieniazek,  Y. M. Rhee,  J. Ritchie,  M. A. Rohrdanz,
 E. Rosta,  N. J. Russ,  H. F. Schaefer III,  N. E. Schultz,  N. Shenvi,
 A. C. Simmonett,  A. Sodt,  D. Stuck,  K. S. Thanthiriwatte,  V. Vanovschi,
 Tao Wang,  A. Warshel,  C. F. Williams,  Q. Wu,  X. Xu,  W. Zhang

 Please cite Q-Chem as follows:
 Y. Shao et al., Mol. Phys. 113, 184-215 (2015)
 DOI: 10.1080/00268976.2014.952696

 Q-Chem 5.0.1 for Intel X86 EM64T Linux

 Parts of Q-Chem use Armadillo 5.200.1 (Boston Tea Smuggler).
 http://arma.sourceforge.net/

 Q-Chem begins on Sat Oct 14 19:28:42 2017

Host: r0115.ten.osc.edu
0

     Scratch files written to /tmp/pbstmp.1310478/09//
Processing $rem in /users/PAS0291/osu6415/.qchemrc.
molden_format             true
The previous job contains 0 fragments, simply inherited here

Checking the input file for inconsistencies... 	...done.

--------------------------------------------------------------
User input:
--------------------------------------------------------------

$molecule
read
$end

$rem
sym_ignore      true
scf_guess       read
jobtype         freq
method          b3lyp
basis           6-311++G(d,p)
dft_d           d3_op
mem_total       62000
MEM_STATIC      4000
ao2mo_disk      350000
max_scf_cycles  200
$end
--------------------------------------------------------------

             Standard Nuclear Orientation (Angstroms)
    I     Atom           X                Y                Z
 ----------------------------------------------------------------
    1      C       0.3518403026     1.0328954660     0.6149867518
    2      C       0.0812181668    -0.5041341246     0.7335422378
    3      C      -0.7974522584     1.8220613300     0.0055416501
    4      C      -1.1050143829    -1.0117156465    -0.0545657672
    5      O      -1.9080451775     1.6221906880     0.7601285021
    6      O      -0.7709083120     2.5629740315    -0.9404628716
    7      O      -1.6624829435    -2.0726349651     0.5736286448
    8      O      -1.4927814381    -0.5958663936    -1.1177329927
    9      C      -2.7482085072    -2.7135342464    -0.1208999394
   10      C      -3.1211591801     2.2062954302     0.2523524369
   11      C       1.7444222933     1.0618346896    -0.1036075425
   12      C       2.8004039316     0.6923195435     0.9760641411
   13      C       2.5370954215    -0.8213677587     1.1785969424
   14      C       1.4177221485    -1.0865986019     0.1367060371
   15      O       1.7112492433    -0.1411200405    -0.8969828291
   16      H       0.4531513434     1.4415325761     1.6240640545
   17      H      -0.0480013557    -0.8177292719     1.7678509903
   18      H      -2.4218835241    -3.0627580395    -1.1018702232
   19      H      -3.3507564494     1.7860655158    -0.7281012501
   20      H       3.8001560375     0.8673739392     0.5750071679
   21      H       2.6958563928     1.2851616145     1.8872366982
   22      H       3.4186758834    -1.4161779896     0.9334231729
   23      H       2.2279901105    -1.0827409390     2.1925056100
   24      H      -3.0397616922    -3.5522010703     0.5074361029
   25      H      -3.5815000849    -2.0205249973    -0.2472402051
   26      H      -3.0222976558     3.2895079171     0.1699420230
   27      H      -3.8933798476     1.9463216299     0.9735427517
   28      C       1.3629659953    -2.4925075750    -0.4203145070
   29      H       2.3418802081    -2.7666345221    -0.8193878351
   30      H       1.0929397951    -3.2049074787     0.3626220037
   31      H       0.6339647019    -2.5664872867    -1.2295552332
   32      C       2.1141787741     2.2535288586    -0.9589324124
   33      H       3.1278462548     2.1155075668    -1.3428982147
   34      H       1.4220339576     2.3719056910    -1.7879583345
   35      H       2.0914997570     3.1703828697    -0.3640393015
 ----------------------------------------------------------------

    2    -844.5292567177      2.89E-09 Convergence criterion met
 Total energy in the final basis set = -844.52925672

                    Orbital Energies (a.u.)
 --------------------------------------------------------------

 Alpha MOs
 -- Occupied --
-19.176 -19.166 -19.125 -19.117 -19.111 -10.306 -10.303 -10.243
-10.236 -10.231 -10.223 -10.203 -10.202 -10.178 -10.175 -10.169
-10.153  -1.117  -1.108  -1.059  -1.029  -1.023  -0.830  -0.803
 -0.782  -0.749  -0.724  -0.720  -0.670  -0.642  -0.601  -0.581
 -0.563  -0.553  -0.526  -0.508  -0.501  -0.491  -0.488  -0.480
 -0.472  -0.470  -0.457  -0.439  -0.432  -0.421  -0.418  -0.411
 -0.405  -0.397  -0.392  -0.372  -0.368  -0.365  -0.358  -0.355
 -0.352  -0.346  -0.331  -0.323  -0.318  -0.308  -0.289  -0.275
 -0.269

          Ground-State Mulliken Net Atomic Charges

     Atom                 Charge (a.u.)
  ----------------------------------------
      1 C                     0.429704
      2 C                     0.532471
      3 C                    -0.471902
      4 C                    -1.417499
      5 O                    -0.017665
      6 O                    -0.176970
      7 O                     0.029035
      8 O                    -0.155363
      9 C                    -0.191731
     10 C                    -0.176750
     11 C                    -0.735233
     12 C                    -0.475713
     13 C                    -0.268680
     14 C                    -0.081902
     15 O                     0.044157
     16 H                     0.258236
     17 H                     0.293973
     18 H                     0.181389
     19 H                     0.188521
     20 H                     0.175451
     21 H                     0.141349
     22 H                     0.170725
     23 H                     0.140936
     24 H                     0.153422
     25 H                     0.162999
     26 H                     0.169065
     27 H                     0.149144
     28 C                    -0.082719
     29 H                     0.173977
     30 H                     0.168162
     31 H                     0.214218
     32 C                    -0.036517
     33 H                     0.140716
     34 H                     0.207251
     35 H                     0.163741
  ----------------------------------------
  Sum of atomic charges =     0.000000

                    Cartesian Multipole Moments
 -----------------------------------------------------------------
    Charge (ESU x 10^10)
                 0.0000
    Dipole Moment (Debye)
         X      -0.5314      Y      -1.9508      Z       3.5498
       Tot       4.0852
    Quadrupole Moments (Debye-Ang)
        XX     -90.0604     XY       2.3361     YY     -97.2927
        XZ       1.2246     YZ       4.7911     ZZ    -107.7595

 Frequency:        33.36                  42.87                  77.73
 Force Cnst:      0.0024                 0.0046                 0.0148
 Red. Mass:       3.7118                 4.2803                 4.1546
 IR Intens:        0.068                  0.815                  4.126
 Frequency:        92.33                 112.68                 139.37
 Force Cnst:      0.0161                 0.0107                 0.0288
 Red. Mass:       3.1963                 1.4275                 2.5176
 IR Intens:        0.736                  0.578                  0.624
 Frequency:       146.89                 151.35                 186.85
 Force Cnst:      0.0269                 0.0201                 0.0705
 Red. Mass:       2.1135                 1.4884                 3.4286
 IR Intens:        1.357                  0.705                  0.689
 Frequency:       220.43                 226.49                 232.73
 Force Cnst:      0.1242                 0.0735                 0.0422
 Red. Mass:       4.3400                 2.4320                 1.3229
 IR Intens:        1.806                  3.996                  0.651
 Frequency:       241.37                 250.93                 263.20
 Force Cnst:      0.0585                 0.0547                 0.1674
 Red. Mass:       1.7036                 1.4740                 4.1004
 IR Intens:        1.598                  0.949                  3.769
 Frequency:       283.00                 319.73                 324.52
 Force Cnst:      0.1763                 0.2094                 0.1566
 Red. Mass:       3.7371                 3.4771                 2.5241
 IR Intens:        1.521                 12.910                  0.823
 Frequency:       338.57                 363.74                 369.37
 Force Cnst:      0.2382                 0.3062                 0.3076
 Red. Mass:       3.5266                 3.9287                 3.8260
 IR Intens:        2.039                  8.262                  8.334
 Frequency:       420.50                 493.43                 571.34
 Force Cnst:      0.3021                 0.4806                 0.7389
 Red. Mass:       2.9002                 3.3501                 3.8421
 IR Intens:        2.781                 12.006                 11.133
 Frequency:       597.23                 612.41                 647.27
 Force Cnst:      1.0548                 0.8750                 1.1321
 Red. Mass:       5.0191                 3.9596                 4.5862
 IR Intens:       10.385                  3.544                  2.421
 Frequency:       671.26                 719.02                 752.86
 Force Cnst:      1.2148                 1.7667                 1.5879
 Red. Mass:       4.5759                 5.7999                 4.7550
 IR Intens:        0.544                  7.264                  3.036
 Frequency:       803.58                 827.07                 855.25
 Force Cnst:      1.1908                 1.0412                 1.3480
 Red. Mass:       3.1300                 2.5834                 3.1280
 IR Intens:        2.350                  5.256                  5.507
 Frequency:       863.81                 875.72                 891.02
 Force Cnst:      2.0408                 2.1786                 1.0214
 Red. Mass:       4.6422                 4.8217                 2.1836
 IR Intens:        7.983                 24.491                 16.421
 Frequency:       896.43                 908.42                 932.65
 Force Cnst:      1.1958                 1.1127                 1.3067
 Red. Mass:       2.5257                 2.2885                 2.5497
 IR Intens:       14.565                 10.623                 26.794
 Frequency:       963.13                 973.83                 985.80
 Force Cnst:      1.7011                 2.5026                 1.9366
 Red. Mass:       3.1125                 4.4790                 3.3823
 IR Intens:        8.568                  3.418                  5.587
 Frequency:      1011.68                1057.04                1066.95
 Force Cnst:      0.9439                 2.4616                 1.9363
 Red. Mass:       1.5653                 3.7392                 2.8869
 IR Intens:        2.507                 68.209                 45.835
 Frequency:      1109.97                1125.84                1139.97
 Force Cnst:      1.0767                 1.3336                 1.8341
 Red. Mass:       1.4833                 1.7857                 2.3954
 IR Intens:        8.056                 14.928                 29.886
 Frequency:      1167.47                1170.06                1172.97
 Force Cnst:      1.6570                 1.0385                 1.1100
 Red. Mass:       2.0634                 1.2875                 1.3693
 IR Intens:      109.495                  0.529                 20.484
 Frequency:      1180.45                1196.52                1205.81
 Force Cnst:      1.9712                 2.5226                 1.4858
 Red. Mass:       2.4009                 2.9906                 1.7344
 IR Intens:       75.925                385.049                 13.590
 Frequency:      1208.20                1212.18                1218.24
 Force Cnst:      1.3224                 1.8023                 1.6558
 Red. Mass:       1.5376                 2.0818                 1.8936
 IR Intens:       11.246                125.011                 22.798
 Frequency:      1246.53                1259.62                1262.61
 Force Cnst:      1.9664                 1.1922                 1.4653
 Red. Mass:       2.1479                 1.2753                 1.5601
 IR Intens:       35.888                  3.596                 18.967
 Frequency:      1283.10                1325.83                1345.46
 Force Cnst:      1.8352                 1.6540                 2.4923
 Red. Mass:       1.8919                 1.5970                 2.3367
 IR Intens:       14.427                  1.873                  4.165
 Frequency:      1366.77                1390.15                1418.58
 Force Cnst:      1.7355                 1.9140                 1.5567
 Red. Mass:       1.5769                 1.6810                 1.3129
 IR Intens:      109.989                 43.954                 18.470
 Frequency:      1426.97                1465.65                1470.13
 Force Cnst:      1.6302                 1.5037                 1.5280
 Red. Mass:       1.3588                 1.1881                 1.2000
 IR Intens:       12.163                 12.747                 14.793
 Frequency:      1480.54                1481.91                1483.50
 Force Cnst:      1.3885                 1.3544                 1.3542
 Red. Mass:       1.0751                 1.0468                 1.0444
 IR Intens:        2.252                  6.694                 11.831
 Frequency:      1487.20                1489.86                1497.60
 Force Cnst:      1.3708                 1.3835                 1.3832
 Red. Mass:       1.0519                 1.0579                 1.0467
 IR Intens:        8.088                  0.856                 20.644
 Frequency:      1497.96                1499.01                1512.54
 Force Cnst:      1.3837                 1.3901                 1.4689
 Red. Mass:       1.0466                 1.0500                 1.0898
 IR Intens:        5.970                  1.988                  8.829
 Frequency:      1515.38                1790.34                1810.76
 Force Cnst:      1.4320                20.9693                22.1992
 Red. Mass:       1.0584                11.1036                11.4912
 IR Intens:        9.075                 92.039                325.278
 Frequency:      3042.57                3042.94                3048.21
 Force Cnst:      5.6649                 5.6571                 5.6350
 Red. Mass:       1.0386                 1.0369                 1.0293
 IR Intens:       21.265                  9.170                 26.709
 Frequency:      3048.82                3053.89                3060.41
 Force Cnst:      5.6402                 5.8295                 5.9317
 Red. Mass:       1.0299                 1.0609                 1.0749
 IR Intens:       43.216                 30.275                 16.560
 Frequency:      3065.50                3090.75                3100.37
 Force Cnst:      5.9021                 6.2322                 6.2422
 Red. Mass:       1.0660                 1.1073                 1.1022
 IR Intens:       34.478                  0.477                 11.089
 Frequency:      3108.16                3111.63                3116.18
 Force Cnst:      6.2765                 6.2779                 6.2971
 Red. Mass:       1.1027                 1.1005                 1.1006
 IR Intens:       20.603                 25.421                 15.705
 Frequency:      3117.89                3120.54                3123.89
 Force Cnst:      6.2581                 6.3507                 6.3672
 Red. Mass:       1.0926                 1.1069                 1.1074
 IR Intens:       31.395                 19.461                 16.023
 Frequency:      3152.40                3156.02                3164.16
 Force Cnst:      6.4780                 6.4901                 6.4723
 Red. Mass:       1.1064                 1.1059                 1.0972
 IR Intens:       14.101                 14.476                  2.754

 STANDARD THERMODYNAMIC QUANTITIES AT   298.15 K  AND     1.00 ATM

   This Molecule has  0 Imaginary Frequencies
   Zero point vibrational energy:      183.636 kcal/mol

   Atom    1 Element C  Has Mass   12.00000
   Atom    2 Element C  Has Mass   12.00000
   Atom    3 Element C  Has Mass   12.00000
   Atom    4 Element C  Has Mass   12.00000
   Atom    5 Element O  Has Mass   15.99491
   Atom    6 Element O  Has Mass   15.99491
   Atom    7 Element O  Has Mass   15.99491
   Atom    8 Element O  Has Mass   15.99491
   Atom    9 Element C  Has Mass   12.00000
   Atom   10 Element C  Has Mass   12.00000
   Atom   11 Element C  Has Mass   12.00000
   Atom   12 Element C  Has Mass   12.00000
   Atom   13 Element C  Has Mass   12.00000
   Atom   14 Element C  Has Mass   12.00000
   Atom   15 Element O  Has Mass   15.99491
   Atom   16 Element H  Has Mass    1.00783
   Atom   17 Element H  Has Mass    1.00783
   Atom   18 Element H  Has Mass    1.00783
   Atom   19 Element H  Has Mass    1.00783
   Atom   20 Element H  Has Mass    1.00783
   Atom   21 Element H  Has Mass    1.00783
   Atom   22 Element H  Has Mass    1.00783
   Atom   23 Element H  Has Mass    1.00783
   Atom   24 Element H  Has Mass    1.00783
   Atom   25 Element H  Has Mass    1.00783
   Atom   26 Element H  Has Mass    1.00783
   Atom   27 Element H  Has Mass    1.00783
   Atom   28 Element C  Has Mass   12.00000
   Atom   29 Element H  Has Mass    1.00783
   Atom   30 Element H  Has Mass    1.00783
   Atom   31 Element H  Has Mass    1.00783
   Atom   32 Element C  Has Mass   12.00000
   Atom   33 Element H  Has Mass    1.00783
   Atom   34 Element H  Has Mass    1.00783
   Atom   35 Element H  Has Mass    1.00783
   Molecular Mass:   242.115490 amu
   Principal axes and moments of inertia in amu*Bohr^2:
                             1           2           3
    Eigenvalues --     3026.38300  3574.08778  5609.30415
          X               0.99392    -0.10695    -0.02618
          Y               0.10828     0.99253     0.05620
          Z               0.01998    -0.05869     0.99808
   Rotational Symmetry Number is   1
   The Molecule is an Asymmetric Top
   Translational Enthalpy:        0.889 kcal/mol
   Rotational Enthalpy:           0.889 kcal/mol
   Vibrational Enthalpy:        192.679 kcal/mol
   gas constant (RT):             0.592 kcal/mol
   Translational Entropy:        42.354  cal/mol.K
   Rotational Entropy:           32.473  cal/mol.K
   Vibrational Entropy:          57.476  cal/mol.K

   Total Enthalpy:              195.049 kcal/mol
   Total Entropy:               132.302  cal/mol.K

 Total job time:  10831.68s(wall), 40572.63s(cpu)
        *  Thank you very much for using Q-Chem.  Have a nice day.  *
