 Q-Chem 5.0, Q-Chem, Inc., Pleasanton, CA (2017)
 Q-Chem 5.0.1 for Intel X86 EM64T Linux

User input:
--------------------------------------------------------------
$molecule
0 1
  C      0.51525345      0.88621088      0.64035314
  C      0.16941250     -0.63598708      0.64795647
  C     -0.43782585      1.74638894     -0.17706138
  C     -1.27315087     -0.96843906      0.30666881
  O     -1.01226003      2.68448624      0.60826039
  O     -0.62787834      1.66439617     -1.36352026
  O     -1.44899655     -2.29267347      0.12863769
  O     -2.18655083     -0.18007822      0.30406072
  C     -2.79887255     -2.72462517     -0.12857784
  C     -2.00377205      3.50433645     -0.03547115
  C      1.94215997      0.85236454      0.00197986
  C      2.90106313      0.15384986      1.01102848
  C      2.56037082     -1.34447009      0.79586499
  C      1.36841193     -1.24733883     -0.19179384
  O      1.77495623     -0.14574608     -1.01522076
  H      0.53932799      1.28892803      1.65179171
  H      0.25917737     -1.00804087      1.67350074
  H     -3.18975176     -2.23793066     -1.02300412
  H     -2.81558349      2.87785712     -0.40813275
  H      3.93819342      0.37075490      0.75040214
  H      2.73725712      0.49478636      2.03594797
  H      3.38660662     -1.87033542      0.31321863
  H      2.30988004     -1.87887524      1.71450016
  H     -2.73366839     -3.80066064     -0.27431566
  H     -3.44301330     -2.48931507      0.72012079
  H     -1.56520802      4.06027287     -0.86560898
  H     -2.36397598      4.18381382      0.73416416
  C      1.13539195     -2.46755939     -1.05373841
  H      2.06207399     -2.70566282     -1.58117656
  H      0.83979966     -3.32422561     -0.44753543
  H      0.35380447     -2.28232487     -1.79061038
  C      2.45770982      2.14822778     -0.58422359
  H      3.44989319      1.99186885     -1.01321225
  H      1.79528161      2.51183012     -1.36972349
  H      2.53690269      2.91060567      0.19602002
$end

$rem
sym_ignore      true
jobtype         ts
method          b3lyp
basis           6-311++G(d,p)
dft_d           d3_op
mem_total       62000
MEM_STATIC      4000
ao2mo_disk      350000
max_scf_cycles  200
geom_opt_max_cycles 1000
geom_opt_tol_displacement 1
GEOM_OPT_TOL_GRADIENT       1
GEOM_OPT_TOL_ENERGY         1
geom_opt_dmax    50
$end

--------------------------------------------------------------

   15    -844.5253009821      3.73E-09 Convergence criterion met
 Total energy in the final basis set = -844.52530098
   11    -844.5252918878      3.76E-09 Convergence criterion met
 Total energy in the final basis set = -844.52529189
   11    -844.5253004620      4.21E-09 Convergence criterion met
 Total energy in the final basis set = -844.52530046
   10    -844.5252970519      5.54E-09 Convergence criterion met
 Total energy in the final basis set = -844.52529705
   11    -844.5252982288      4.36E-09 Convergence criterion met
 Total energy in the final basis set = -844.52529823
   11    -844.5252960337      3.47E-09 Convergence criterion met
 Total energy in the final basis set = -844.52529603
   11    -844.5252802350      3.12E-09 Convergence criterion met
 Total energy in the final basis set = -844.52528024
   11    -844.5252682152      3.59E-09 Convergence criterion met
    6    -844.5253023825      4.18E-09 Convergence criterion met
 Total energy in the final basis set = -844.52530238
    4    -844.5253023648      9.59E-09 Convergence criterion met
 Total energy in the final basis set = -844.52530236
    4    -844.5253023465      8.57E-09 Convergence criterion met
 Total energy in the final basis set = -844.52530235
    5    -844.5253023325      7.39E-09 Convergence criterion met
 Total energy in the final basis set = -844.52530233
    4    -844.5253023152      5.45E-09 Convergence criterion met
 Total energy in the final basis set = -844.52530232
    2    -844.5253023127      9.91E-09 Convergence criterion met
 Total energy in the final basis set = -844.52530231
 Final energy is   -844.525302312736
 **  OPTIMIZATION CONVERGED  **
 Total job time:  2805.97s(wall), 47007.65s(cpu)
        *  Thank you very much for using Q-Chem.  Have a nice day.  *

User input: 2 of 2

r0189.ten.osc.edu 10.25.155
Q-Chem Developer Version! Running on 10.25.155.*
                  Welcome to Q-Chem
     A Quantum Leap Into The Future Of Chemistry

 Q-Chem 5.0, Q-Chem, Inc., Pleasanton, CA (2017)

 Yihan Shao,  Zhengting Gan,  E. Epifanovsky,  A. T. B. Gilbert,  M. Wormit,
 J. Kussmann,  A. W. Lange,  A. Behn,  Jia Deng,  Xintian Feng,  D. Ghosh,
 M. Goldey,  P. R. Horn,  L. D. Jacobson,  I. Kaliman,  T. Kus,  A. Landau,
 Jie Liu,  E. I. Proynov,  R. M. Richard,  R. P. Steele,  E. J. Sundstrom,
 H. L. Woodcock III,  P. M. Zimmerman,  D. Zuev,  B. Albrecht,  E. Alguire,
 S. A. Baeppler,  Z. Benda,  Y. A. Bernard,  E. J. Berquist,  K. B. Bravaya,
 D. Casanova,  Chun-Min Chang,  Yunqing Chen,  A. Chien,  K. D. Closser,
 M. P. Coons,  S. Dasgupta,  M. Diedenhofen,  Hainam Do,  R. G. Edgar,
 Po-Tung Fang,  S. Fatehi,  Qingguo Feng,  Qinghui Ge,  A. Ghysels,
 J. Gomes,  J. Gonthier,  A. Gunina,  M. W. D. Hanson-Heine,
 P. H. P. Harbach,  A. W. Hauser,  J. E. Herr,  E. G. Hohenstein,
 Z. C. Holden,  Kerwin Hui,  T.-C. Jagau,  Hyunjun Ji,  B. Kaduk,
 K. Khistyaev,  Jaehoon Kim,  P. Klunzinger,  K. Koh,  D. Kosenkov,
 T. Kowalczyk,  C. M. Krauter,  A. Kunitsa,  Ka Un Lao,  A. Laurent,
 K. V. Lawler,  Joonho Lee,  D. Lefrancois,  S. Lehtola,  D. S. Levine,
 Yi-Pei Li,  You-Sheng Lin,  Fenglai Liu,  E. Livshits,  A. Luenser,
 P. Manohar,  E. Mansoor,  S. F. Manzer,  Shan-Ping Mao,  Yuezhi Mao,
 N. Mardirossian,  A. V. Marenich,  L. A. Martinez-Martinez,  S. A. Maurer,
 N. J. Mayhall,  S. C. McKenzie,  J.-M. Mewes,  A. F. Morrison,  K. Nanda,
 T. S. Nguyen-Beck,  R. Olivares-Amaya,  J. A. Parkhill,  T. M. Perrine,
 F. Plasser,  S. Prager,  A. Prociuk,  D. R. Rehn,  F. Rob,  M. Schneider,
 N. Sergueev,  S. M. Sharada,  S. Sharma,  D. W. Small,  T. Stauch,
 T. Stein,  Yu-Chuan Su,  A. J. W. Thom,  T. Tsuchimochi,  L. Vogt,
 O. Vydrov,  M. A. Watson,  J. Wenzel,  M. de Wergifosse,  T. A. Wesolowski,
 A. White,  J. Witte,  A. Yamada,  Jun Yang,  K. Yao,  S. Yeganeh,
 S. R. Yost,  Zhi-Qiang You,  A. Zech,  Igor Ying Zhang,  Xing Zhang,
 Yan Zhao,  Ying Zhu,  B. R. Brooks,  G. K. L. Chan,  C. J. Cramer,
 M. S. Gordon,  W. J. Hehre,  A. Klamt,  M. W. Schmidt,  C. D. Sherrill,
 D. G. Truhlar,  A. Aspuru-Guzik,  R. Baer,  A. T. Bell,  N. A. Besley,
 Jeng-Da Chai,  A. Dreuw,  B. D. Dunietz,  T. R. Furlani,  Chao-Ping Hsu,
 Yousung Jung,  Jing Kong,  D. S. Lambrecht,  WanZhen Liang,  C. Ochsenfeld,
 V. A. Rassolov,  L. V. Slipchenko,  J. E. Subotnik,  T. Van Voorhis,
 J. M. Herbert,  A. I. Krylov,  P. M. W. Gill,  M. Head-Gordon

 Contributors to earlier versions of Q-Chem not listed above:
 R. D. Adamson,  B. Austin,  J. Baker,  G. J. O. Beran,  K. Brandhorst,
 S. T. Brown,  E. F. C. Byrd,  A. K. Chakraborty,  C.-L. Cheng,
 Siu Hung Chien,  D. M. Chipman,  D. L. Crittenden,  H. Dachsel,
 R. A. DiStasio Jr.,  R. J. Doerksen,  A. D. Dutoi,  L. Fusti-Molnar,
 W. A. Goddard III,  A. Golubeva-Zadorozhnaya,  S. R. Gwaltney,  G. Hawkins,
 A. Heyden,  S. Hirata,  G. Kedziora,  F. J. Keil,  C. Kelley,  Jihan Kim,
 R. A. King,  R. Z. Khaliullin,  P. P. Korambath,  W. Kurlancheek,
 A. M. Lee,  M. S. Lee,  S. V. Levchenko,  Ching Yeh Lin,  D. Liotard,
 R. C. Lochan,  I. Lotan,  P. E. Maslen,  N. Nair,  D. P. O'Neill,
 D. Neuhauser,  E. Neuscamman,  C. M. Oana,  R. Olson,  B. Peters,
 R. Peverati,  P. A. Pieniazek,  Y. M. Rhee,  J. Ritchie,  M. A. Rohrdanz,
 E. Rosta,  N. J. Russ,  H. F. Schaefer III,  N. E. Schultz,  N. Shenvi,
 A. C. Simmonett,  A. Sodt,  D. Stuck,  K. S. Thanthiriwatte,  V. Vanovschi,
 Tao Wang,  A. Warshel,  C. F. Williams,  Q. Wu,  X. Xu,  W. Zhang

 Please cite Q-Chem as follows:
 Y. Shao et al., Mol. Phys. 113, 184-215 (2015)
 DOI: 10.1080/00268976.2014.952696

 Q-Chem 5.0.1 for Intel X86 EM64T Linux

 Parts of Q-Chem use Armadillo 5.200.1 (Boston Tea Smuggler).
 http://arma.sourceforge.net/

 Q-Chem begins on Tue Oct 17 15:46:46 2017

Host: r0189.ten.osc.edu
0

     Scratch files written to /tmp/pbstmp.1311788/2//
Processing $rem in /users/PAS0291/osu6415/.qchemrc.
molden_format             true
The previous job contains 0 fragments, simply inherited here

Checking the input file for inconsistencies... 	...done.

--------------------------------------------------------------
User input:
--------------------------------------------------------------

$molecule
read
$end

$rem
sym_ignore      true
scf_guess       read
jobtype         freq
method          b3lyp
basis           6-311++G(d,p)
dft_d           d3_op
mem_total       62000
MEM_STATIC      4000
ao2mo_disk      350000
max_scf_cycles  200
$end
--------------------------------------------------------------

             Standard Nuclear Orientation (Angstroms)
    I     Atom           X                Y                Z
 ----------------------------------------------------------------
    1      C       0.5149548617     0.8857927942     0.6406823568
    2      C       0.1695961329    -0.6364934840     0.6482205979
    3      C      -0.4383839971     1.7455780936    -0.1767583816
    4      C      -1.2731523588    -0.9689661377     0.3076643429
    5      O      -1.0115352169     2.6849198990     0.6079592955
    6      O      -0.6296067734     1.6622534279    -1.3629587350
    7      O      -1.4489325574    -2.2928319139     0.1272809934
    8      O      -2.1867136865    -0.1807635527     0.3075891059
    9      C      -2.7991015116    -2.7245596673    -0.1287940199
   10      C      -2.0027591841     3.5049785727    -0.0359599279
   11      C       1.9418063912     0.8523911884     0.0020642245
   12      C       2.9009732182     0.1539971863     1.0109437012
   13      C       2.5607639558    -1.3443870709     0.7954340862
   14      C       1.3685265983    -1.2474075802    -0.1919118121
   15      O       1.7746765581    -0.1455706012    -1.0152459013
   16      H       0.5390743045     1.2885789306     1.6520875949
   17      H       0.2598374826    -1.0085884946     1.6737152028
   18      H      -3.1897641952    -2.2394564636    -1.0242072987
   19      H      -2.8154276642     2.8788455921    -0.4073380433
   20      H       3.9380494560     0.3713274508     0.7504533144
   21      H       2.7369930917     0.4946524535     2.0359334847
   22      H       3.3870717011    -1.8697458799     0.3123608694
   23      H       2.3107668975    -1.8791555635     1.7139942554
   24      H      -2.7345004435    -3.8009063909    -0.2724770993
   25      H      -3.4430316065    -2.4871235511     0.7194414378
   26      H      -1.5642852304     4.0595633051    -0.8670473692
   27      H      -2.3617681581     4.1856379752     0.7331866769
   28      C       1.1357185520    -2.4675529454    -1.0540173964
   29      H       2.0624630899    -2.7054799387    -1.5814289601
   30      H       0.8402243059    -3.3243314986    -0.4479235116
   31      H       0.3541218769    -2.2823365880    -1.7908715071
   32      C       2.4568251745     2.1484936216    -0.5840670699
   33      H       3.4491666957     1.9926682864    -1.0128826205
   34      H       1.7943315094     2.5117020034    -1.3697100559
   35      H       2.5354406897     2.9109665514     0.1961381893
 ----------------------------------------------------------------

    3    -844.5253023125      3.76E-09 Convergence criterion met
 Total energy in the final basis set = -844.52530231

                    Orbital Energies (a.u.)
 --------------------------------------------------------------

 Alpha MOs
 -- Occupied --
-19.177 -19.161 -19.123 -19.120 -19.100 -10.311 -10.294 -10.240
-10.238 -10.232 -10.217 -10.207 -10.196 -10.176 -10.176 -10.163
-10.161  -1.120  -1.101  -1.059  -1.032  -1.014  -0.828  -0.803
 -0.779  -0.747  -0.723  -0.722  -0.669  -0.641  -0.598  -0.580
 -0.568  -0.550  -0.523  -0.507  -0.496  -0.490  -0.489  -0.480
 -0.471  -0.465  -0.455  -0.439  -0.430  -0.424  -0.412  -0.408
 -0.407  -0.400  -0.383  -0.371  -0.365  -0.363  -0.360  -0.353
 -0.351  -0.346  -0.328  -0.323  -0.318  -0.299  -0.291  -0.275
 -0.261

          Ground-State Mulliken Net Atomic Charges

     Atom                 Charge (a.u.)
  ----------------------------------------
      1 C                     0.488752
      2 C                     0.387633
      3 C                    -1.293426
      4 C                    -0.625463
      5 O                     0.053106
      6 O                    -0.157583
      7 O                    -0.066041
      8 O                    -0.184396
      9 C                    -0.239267
     10 C                    -0.193260
     11 C                    -0.189955
     12 C                    -0.331813
     13 C                    -0.479518
     14 C                    -0.398292
     15 O                     0.055049
     16 H                     0.295025
     17 H                     0.255017
     18 H                     0.194671
     19 H                     0.187563
     20 H                     0.172728
     21 H                     0.145424
     22 H                     0.170406
     23 H                     0.145414
     24 H                     0.150186
     25 H                     0.175263
     26 H                     0.168023
     27 H                     0.144578
     28 C                    -0.073730
     29 H                     0.154376
     30 H                     0.191020
     31 H                     0.184913
     32 C                    -0.000994
     33 H                     0.174170
     34 H                     0.192149
     35 H                     0.148271
  ----------------------------------------
  Sum of atomic charges =    -0.000000

                    Cartesian Multipole Moments
 -----------------------------------------------------------------
    Charge (ESU x 10^10)
                -0.0000
    Dipole Moment (Debye)
         X       0.3789      Y      -1.5120      Z       2.6156
       Tot       3.0448
    Quadrupole Moments (Debye-Ang)
        XX     -95.7365     XY       3.7114     YY     -90.2685
        XZ       3.3292     YZ       1.4078     ZZ    -106.3315

 Frequency:       -24.34                  40.58                  61.82
 Force Cnst:      0.0023                 0.0036                 0.0088
 Red. Mass:       6.5351                 3.6603                 3.9236
 IR Intens:        2.665                  0.296                  1.336
 Frequency:       113.79                 125.45                 138.31
 Force Cnst:      0.0158                 0.0169                 0.0291
 Red. Mass:       2.0706                 1.8187                 2.5793
 IR Intens:        2.612                  1.003                  0.277
 Frequency:       152.85                 178.66                 191.50
 Force Cnst:      0.0448                 0.0547                 0.0260
 Red. Mass:       3.2513                 2.9112                 1.2028
 IR Intens:        0.304                  0.338                  0.708
 Frequency:       195.72                 222.44                 243.49
 Force Cnst:      0.0270                 0.1033                 0.0975
 Red. Mass:       1.1945                 3.5450                 2.7907
 IR Intens:        0.290                  1.408                  3.707
 Frequency:       245.54                 268.89                 287.86
 Force Cnst:      0.1192                 0.1476                 0.1649
 Red. Mass:       3.3558                 3.4643                 3.3770
 IR Intens:        2.412                  3.954                  2.486
 Frequency:       293.96                 309.42                 333.27
 Force Cnst:      0.1838                 0.0748                 0.1446
 Red. Mass:       3.6104                 1.3263                 2.2095
 IR Intens:        9.050                  1.955                  0.912
 Frequency:       337.62                 368.96                 377.93
 Force Cnst:      0.2025                 0.3441                 0.3739
 Red. Mass:       3.0146                 4.2900                 4.4426
 IR Intens:        8.837                 12.453                  9.717
 Frequency:       422.77                 475.74                 572.95
 Force Cnst:      0.3122                 0.4297                 0.9900
 Red. Mass:       2.9649                 3.2227                 5.1183
 IR Intens:        3.306                  3.253                  6.345
 Frequency:       586.19                 613.19                 629.47
 Force Cnst:      0.8729                 0.7973                 1.0065
 Red. Mass:       4.3116                 3.5988                 4.3112
 IR Intens:       17.269                  3.822                  6.852
 Frequency:       648.57                 738.88                 770.30
 Force Cnst:      1.0511                 1.7404                 2.2799
 Red. Mass:       4.2409                 5.4107                 6.5214
 IR Intens:        2.216                  2.897                  3.865
 Frequency:       789.42                 830.72                 849.05
 Force Cnst:      1.2342                 1.0009                 1.0946
 Red. Mass:       3.3613                 2.4617                 2.5772
 IR Intens:        6.368                  6.101                  3.393
 Frequency:       864.98                 882.68                 894.01
 Force Cnst:      2.1808                 1.7162                 1.0061
 Red. Mass:       4.9470                 3.7387                 2.1365
 IR Intens:       23.390                 16.892                 15.498
 Frequency:       898.25                 913.30                 936.28
 Force Cnst:      1.2666                 1.2447                 1.2559
 Red. Mass:       2.6644                 2.5328                 2.4317
 IR Intens:        4.601                 23.813                 17.280
 Frequency:       961.40                 979.06                 985.48
 Force Cnst:      2.3823                 1.6908                 2.1755
 Red. Mass:       4.3746                 2.9939                 3.8020
 IR Intens:        8.364                  3.678                  1.866
 Frequency:      1008.80                1044.95                1071.97
 Force Cnst:      1.0521                 2.0902                 1.5797
 Red. Mass:       1.7547                 3.2489                 2.3332
 IR Intens:        0.693                 45.763                 52.270
 Frequency:      1108.32                1124.78                1137.38
 Force Cnst:      1.1486                 1.3609                 1.8493
 Red. Mass:       1.5870                 1.8258                 2.4263
 IR Intens:       10.379                 58.000                 12.671
 Frequency:      1166.85                1171.31                1173.21
 Force Cnst:      1.6215                 1.0356                 1.0953
 Red. Mass:       2.0213                 1.2812                 1.3506
 IR Intens:      141.239                  1.395                  3.680
 Frequency:      1182.08                1197.29                1207.94
 Force Cnst:      1.9566                 1.7807                 1.4322
 Red. Mass:       2.3766                 2.1083                 1.6660
 IR Intens:      170.942                127.774                 11.250
 Frequency:      1210.75                1213.41                1229.33
 Force Cnst:      1.6426                 1.4374                 1.7549
 Red. Mass:       1.9018                 1.6569                 1.9709
 IR Intens:       15.249                 56.880                178.412
 Frequency:      1240.94                1262.62                1273.88
 Force Cnst:      2.0329                 1.2697                 1.6078
 Red. Mass:       2.2406                 1.3518                 1.6816
 IR Intens:        4.531                 20.779                 62.159
 Frequency:      1277.78                1322.67                1343.36
 Force Cnst:      1.9169                 1.5691                 2.1333
 Red. Mass:       1.9927                 1.5223                 2.0064
 IR Intens:       37.813                  1.230                 14.821
 Frequency:      1354.36                1383.45                1423.26
 Force Cnst:      2.1707                 1.8681                 1.5674
 Red. Mass:       2.0086                 1.6566                 1.3133
 IR Intens:       72.953                 92.975                 23.325
 Frequency:      1428.08                1468.85                1469.78
 Force Cnst:      1.6718                 1.5137                 1.5344
 Red. Mass:       1.3913                 1.1908                 1.2055
 IR Intens:        8.243                 14.416                 14.047
 Frequency:      1482.84                1484.03                1486.34
 Force Cnst:      1.3543                 1.3774                 1.3584
 Red. Mass:       1.0454                 1.0615                 1.0436
 IR Intens:       10.505                  1.141                  8.941
 Frequency:      1488.39                1494.00                1498.23
 Force Cnst:      1.3774                 1.3978                 1.3857
 Red. Mass:       1.0553                 1.0629                 1.0478
 IR Intens:        9.498                  1.597                  5.160
 Frequency:      1498.75                1505.61                1511.02
 Force Cnst:      1.3856                 1.4013                 1.4472
 Red. Mass:       1.0469                 1.0492                 1.0758
 IR Intens:       14.062                  7.044                 10.219
 Frequency:      1514.96                1779.06                1796.62
 Force Cnst:      1.4507                21.9468                20.5405
 Red. Mass:       1.0728                11.7691                10.8006
 IR Intens:        8.465                289.031                153.012
 Frequency:      3039.81                3047.27                3049.00
 Force Cnst:      5.6508                 5.8962                 5.6423
 Red. Mass:       1.0379                 1.0777                 1.0301
 IR Intens:       14.456                  4.906                 40.307
 Frequency:      3049.30                3050.45                3053.95
 Force Cnst:      5.6947                 5.6508                 5.8165
 Red. Mass:       1.0395                 1.0307                 1.0585
 IR Intens:        6.338                 37.847                 43.981
 Frequency:      3062.66                3089.75                3101.63
 Force Cnst:      5.8636                 6.2247                 6.2428
 Red. Mass:       1.0610                 1.1067                 1.1014
 IR Intens:       34.748                  2.163                  9.023
 Frequency:      3106.10                3111.99                3118.82
 Force Cnst:      6.2364                 6.2471                 6.3067
 Red. Mass:       1.0971                 1.0948                 1.1005
 IR Intens:       15.684                 33.794                 30.404
 Frequency:      3123.90                3124.42                3130.80
 Force Cnst:      6.3655                 6.3679                 6.3551
 Red. Mass:       1.1071                 1.1071                 1.1004
 IR Intens:       16.647                 16.779                  8.084
 Frequency:      3135.31                3154.04                3156.55
 Force Cnst:      6.3840                 6.4848                 6.4953
 Red. Mass:       1.1023                 1.1064                 1.1064
 IR Intens:       13.627                 17.019                 12.793

 STANDARD THERMODYNAMIC QUANTITIES AT   298.15 K  AND     1.00 ATM

   This Molecule has  1 Imaginary Frequencies
   Zero point vibrational energy:      183.662 kcal/mol

   Atom    1 Element C  Has Mass   12.00000
   Atom    2 Element C  Has Mass   12.00000
   Atom    3 Element C  Has Mass   12.00000
   Atom    4 Element C  Has Mass   12.00000
   Atom    5 Element O  Has Mass   15.99491
   Atom    6 Element O  Has Mass   15.99491
   Atom    7 Element O  Has Mass   15.99491
   Atom    8 Element O  Has Mass   15.99491
   Atom    9 Element C  Has Mass   12.00000
   Atom   10 Element C  Has Mass   12.00000
   Atom   11 Element C  Has Mass   12.00000
   Atom   12 Element C  Has Mass   12.00000
   Atom   13 Element C  Has Mass   12.00000
   Atom   14 Element C  Has Mass   12.00000
   Atom   15 Element O  Has Mass   15.99491
   Atom   16 Element H  Has Mass    1.00783
   Atom   17 Element H  Has Mass    1.00783
   Atom   18 Element H  Has Mass    1.00783
   Atom   19 Element H  Has Mass    1.00783
   Atom   20 Element H  Has Mass    1.00783
   Atom   21 Element H  Has Mass    1.00783
   Atom   22 Element H  Has Mass    1.00783
   Atom   23 Element H  Has Mass    1.00783
   Atom   24 Element H  Has Mass    1.00783
   Atom   25 Element H  Has Mass    1.00783
   Atom   26 Element H  Has Mass    1.00783
   Atom   27 Element H  Has Mass    1.00783
   Atom   28 Element C  Has Mass   12.00000
   Atom   29 Element H  Has Mass    1.00783
   Atom   30 Element H  Has Mass    1.00783
   Atom   31 Element H  Has Mass    1.00783
   Atom   32 Element C  Has Mass   12.00000
   Atom   33 Element H  Has Mass    1.00783
   Atom   34 Element H  Has Mass    1.00783
   Atom   35 Element H  Has Mass    1.00783
   Molecular Mass:   242.115490 amu
   Principal axes and moments of inertia in amu*Bohr^2:
                             1           2           3
    Eigenvalues --     3295.77888  3459.94245  5837.53013
          X               0.13330     0.99107    -0.00189
          Y               0.99106    -0.13328     0.00642
          Z              -0.00611     0.00272     0.99998
   Rotational Symmetry Number is   1
   The Molecule is an Asymmetric Top
   Translational Enthalpy:        0.889 kcal/mol
   Rotational Enthalpy:           0.889 kcal/mol
   Vibrational Enthalpy:        192.080 kcal/mol
   gas constant (RT):             0.592 kcal/mol
   Translational Entropy:        42.354  cal/mol.K
   Rotational Entropy:           32.565  cal/mol.K
   Vibrational Entropy:          51.217  cal/mol.K

   Total Enthalpy:              194.450 kcal/mol
   Total Entropy:               126.136  cal/mol.K

 Total job time:  10739.63s(wall), 40287.37s(cpu)
        *  Thank you very much for using Q-Chem.  Have a nice day.  *
