 Q-Chem 5.0, Q-Chem, Inc., Pleasanton, CA (2017)
 Q-Chem 5.0.1 for Intel X86 EM64T Linux

User input:
--------------------------------------------------------------
$molecule
0 1
  C      0.43344262     -2.43764843     -0.05740962
  C     -0.49311428     -2.10646542      1.16608853
  C     -0.86220322     -0.65355617      1.38707544
  C      1.02688693     -1.21660409     -0.74279625
  O     -1.18296979     -0.02468304      0.24163478
  O     -0.92071975     -0.13205009      2.47502374
  O      1.71864308     -0.49814782      0.17608178
  O      0.97670907     -0.91555637     -1.90641627
  C      2.31633267      0.72142469     -0.29609063
  C     -1.58887094      1.34947608      0.35494956
  C     -0.47282330     -3.40270886     -0.89597426
  C     -0.47162376     -4.76451972     -0.14409730
  C     -1.36983466     -4.45968299      1.08106967
  C     -1.75712189     -2.98091639      0.82368529
  O     -1.79709225     -2.91256545     -0.60781187
  H      1.30528194     -2.98448279      0.31209113
  H     -0.04695159     -2.43240527      2.10349310
  H      1.55571557      1.37011886     -0.73366173
  H     -0.79833073      1.94433495      0.81546068
  H     -0.92059382     -5.52757361     -0.78204239
  H      0.53430113     -5.09830174      0.11907536
  H     -2.26820357     -5.07946213      1.07887830
  H     -0.86937304     -4.59710251      2.04167406
  H      2.76002844      1.18596957      0.58163148
  H      3.07909815      0.50857565     -1.04678138
  H     -2.49352656      1.43054723      0.95967476
  H     -1.77728012      1.67864959     -0.66430471
  C     -3.07189770     -2.53852657      1.42624773
  H     -3.86859627     -3.21470592      1.10925330
  H     -3.01455975     -2.55193047      2.51716345
  H     -3.33278154     -1.52865812      1.10516213
  C     -0.25650152     -3.51536404     -2.38962224
  H     -0.93835508     -4.26805299     -2.79288659
  H     -0.42849837     -2.56468977     -2.88747386
  H      0.76900390     -3.82875589     -2.60212518
$end

$rem
sym_ignore      true
jobtype         opt
method          b3lyp
basis           6-311++G(d,p)
dft_d           d3_op
mem_total       62000
MEM_STATIC      4000
ao2mo_disk      350000
max_scf_cycles  200
geom_opt_max_cycles 1000
geom_opt_tol_displacement 1
GEOM_OPT_TOL_GRADIENT       1
GEOM_OPT_TOL_ENERGY         1
geom_opt_dmax    50
$end

--------------------------------------------------------------

   15    -844.5293434896      3.31E-09 Convergence criterion met
 Total energy in the final basis set = -844.52934349
    9    -844.5293428649      6.31E-09 Convergence criterion met
 Total energy in the final basis set = -844.52934286
    9    -844.5293446670      9.68E-09 Convergence criterion met
 Total energy in the final basis set = -844.52934467
   10    -844.5293381582      5.67E-09 Convergence criterion met
 Total energy in the final basis set = -844.52933816
   10    -844.5293442395      5.25E-09 Convergence criterion met
 Total energy in the final basis set = -844.52934424
    9    -844.5293442181      7.28E-09 Convergence criterion met
 Total energy in the final basis set = -844.52934422
    9    -844.5293445381      5.11E-09 Convergence criterion met
 Total energy in the final basis set = -844.52934454
    8    -844.5293443330      6.60E-09 Convergence criterion met
 Total energy in the final basis set = -844.52934433
    8    -844.5293445137      5.32E-09 Convergence criterion met
 Total energy in the final basis set = -844.52934451
    6    -844.5293445204      8.61E-09 Convergence criterion met
 Total energy in the final basis set = -844.52934452
    6    -844.5293445239      6.78E-09 Convergence criterion met
 Total energy in the final basis set = -844.52934452
    6    -844.5293445250      4.66E-09 Convergence criterion met
 Total energy in the final basis set = -844.52934453
 Final energy is   -844.529344525038
 **  OPTIMIZATION CONVERGED  **
 Total job time:  815.74s(wall), 13581.92s(cpu)
        *  Thank you very much for using Q-Chem.  Have a nice day.  *

User input: 2 of 2

r0190.ten.osc.edu 10.25.155
Q-Chem Developer Version! Running on 10.25.155.*
                  Welcome to Q-Chem
     A Quantum Leap Into The Future Of Chemistry

 Q-Chem 5.0, Q-Chem, Inc., Pleasanton, CA (2017)

 Yihan Shao,  Zhengting Gan,  E. Epifanovsky,  A. T. B. Gilbert,  M. Wormit,
 J. Kussmann,  A. W. Lange,  A. Behn,  Jia Deng,  Xintian Feng,  D. Ghosh,
 M. Goldey,  P. R. Horn,  L. D. Jacobson,  I. Kaliman,  T. Kus,  A. Landau,
 Jie Liu,  E. I. Proynov,  R. M. Richard,  R. P. Steele,  E. J. Sundstrom,
 H. L. Woodcock III,  P. M. Zimmerman,  D. Zuev,  B. Albrecht,  E. Alguire,
 S. A. Baeppler,  Z. Benda,  Y. A. Bernard,  E. J. Berquist,  K. B. Bravaya,
 D. Casanova,  Chun-Min Chang,  Yunqing Chen,  A. Chien,  K. D. Closser,
 M. P. Coons,  S. Dasgupta,  M. Diedenhofen,  Hainam Do,  R. G. Edgar,
 Po-Tung Fang,  S. Fatehi,  Qingguo Feng,  Qinghui Ge,  A. Ghysels,
 J. Gomes,  J. Gonthier,  A. Gunina,  M. W. D. Hanson-Heine,
 P. H. P. Harbach,  A. W. Hauser,  J. E. Herr,  E. G. Hohenstein,
 Z. C. Holden,  Kerwin Hui,  T.-C. Jagau,  Hyunjun Ji,  B. Kaduk,
 K. Khistyaev,  Jaehoon Kim,  P. Klunzinger,  K. Koh,  D. Kosenkov,
 T. Kowalczyk,  C. M. Krauter,  A. Kunitsa,  Ka Un Lao,  A. Laurent,
 K. V. Lawler,  Joonho Lee,  D. Lefrancois,  S. Lehtola,  D. S. Levine,
 Yi-Pei Li,  You-Sheng Lin,  Fenglai Liu,  E. Livshits,  A. Luenser,
 P. Manohar,  E. Mansoor,  S. F. Manzer,  Shan-Ping Mao,  Yuezhi Mao,
 N. Mardirossian,  A. V. Marenich,  L. A. Martinez-Martinez,  S. A. Maurer,
 N. J. Mayhall,  S. C. McKenzie,  J.-M. Mewes,  A. F. Morrison,  K. Nanda,
 T. S. Nguyen-Beck,  R. Olivares-Amaya,  J. A. Parkhill,  T. M. Perrine,
 F. Plasser,  S. Prager,  A. Prociuk,  D. R. Rehn,  F. Rob,  M. Schneider,
 N. Sergueev,  S. M. Sharada,  S. Sharma,  D. W. Small,  T. Stauch,
 T. Stein,  Yu-Chuan Su,  A. J. W. Thom,  T. Tsuchimochi,  L. Vogt,
 O. Vydrov,  M. A. Watson,  J. Wenzel,  M. de Wergifosse,  T. A. Wesolowski,
 A. White,  J. Witte,  A. Yamada,  Jun Yang,  K. Yao,  S. Yeganeh,
 S. R. Yost,  Zhi-Qiang You,  A. Zech,  Igor Ying Zhang,  Xing Zhang,
 Yan Zhao,  Ying Zhu,  B. R. Brooks,  G. K. L. Chan,  C. J. Cramer,
 M. S. Gordon,  W. J. Hehre,  A. Klamt,  M. W. Schmidt,  C. D. Sherrill,
 D. G. Truhlar,  A. Aspuru-Guzik,  R. Baer,  A. T. Bell,  N. A. Besley,
 Jeng-Da Chai,  A. Dreuw,  B. D. Dunietz,  T. R. Furlani,  Chao-Ping Hsu,
 Yousung Jung,  Jing Kong,  D. S. Lambrecht,  WanZhen Liang,  C. Ochsenfeld,
 V. A. Rassolov,  L. V. Slipchenko,  J. E. Subotnik,  T. Van Voorhis,
 J. M. Herbert,  A. I. Krylov,  P. M. W. Gill,  M. Head-Gordon

 Contributors to earlier versions of Q-Chem not listed above:
 R. D. Adamson,  B. Austin,  J. Baker,  G. J. O. Beran,  K. Brandhorst,
 S. T. Brown,  E. F. C. Byrd,  A. K. Chakraborty,  C.-L. Cheng,
 Siu Hung Chien,  D. M. Chipman,  D. L. Crittenden,  H. Dachsel,
 R. A. DiStasio Jr.,  R. J. Doerksen,  A. D. Dutoi,  L. Fusti-Molnar,
 W. A. Goddard III,  A. Golubeva-Zadorozhnaya,  S. R. Gwaltney,  G. Hawkins,
 A. Heyden,  S. Hirata,  G. Kedziora,  F. J. Keil,  C. Kelley,  Jihan Kim,
 R. A. King,  R. Z. Khaliullin,  P. P. Korambath,  W. Kurlancheek,
 A. M. Lee,  M. S. Lee,  S. V. Levchenko,  Ching Yeh Lin,  D. Liotard,
 R. C. Lochan,  I. Lotan,  P. E. Maslen,  N. Nair,  D. P. O'Neill,
 D. Neuhauser,  E. Neuscamman,  C. M. Oana,  R. Olson,  B. Peters,
 R. Peverati,  P. A. Pieniazek,  Y. M. Rhee,  J. Ritchie,  M. A. Rohrdanz,
 E. Rosta,  N. J. Russ,  H. F. Schaefer III,  N. E. Schultz,  N. Shenvi,
 A. C. Simmonett,  A. Sodt,  D. Stuck,  K. S. Thanthiriwatte,  V. Vanovschi,
 Tao Wang,  A. Warshel,  C. F. Williams,  Q. Wu,  X. Xu,  W. Zhang

 Please cite Q-Chem as follows:
 Y. Shao et al., Mol. Phys. 113, 184-215 (2015)
 DOI: 10.1080/00268976.2014.952696

 Q-Chem 5.0.1 for Intel X86 EM64T Linux

 Parts of Q-Chem use Armadillo 5.200.1 (Boston Tea Smuggler).
 http://arma.sourceforge.net/

 Q-Chem begins on Tue Oct 17 15:13:36 2017

Host: r0190.ten.osc.edu
0

     Scratch files written to /tmp/pbstmp.1311789/3//
Processing $rem in /users/PAS0291/osu6415/.qchemrc.
molden_format             true
The previous job contains 0 fragments, simply inherited here

Checking the input file for inconsistencies... 	...done.

--------------------------------------------------------------
User input:
--------------------------------------------------------------

$molecule
read
$end

$rem
sym_ignore      true
scf_guess       read
jobtype         freq
method          b3lyp
basis           6-311++G(d,p)
dft_d           d3_op
mem_total       62000
MEM_STATIC      4000
ao2mo_disk      350000
max_scf_cycles  200
$end
--------------------------------------------------------------

             Standard Nuclear Orientation (Angstroms)
    I     Atom           X                Y                Z
 ----------------------------------------------------------------
    1      C       0.4335629652    -2.4377489233    -0.0566856780
    2      C      -0.4932487398    -2.1062355200     1.1665206202
    3      C      -0.8626937445    -0.6534357443     1.3873049490
    4      C       1.0270064680    -1.2172105010    -0.7427679823
    5      O      -1.1834300945    -0.0247051499     0.2418334944
    6      O      -0.9210655565    -0.1318724464     2.4752315903
    7      O       1.7200429618    -0.4989592211     0.1753496651
    8      O       0.9751293410    -0.9162372445    -1.9063010831
    9      C       2.3172077023     0.7206969303    -0.2972829167
   10      C      -1.5898227465     1.3493640984     0.3548829156
   11      C      -0.4726847864    -3.4022577056    -0.8954711382
   12      C      -0.4717091512    -4.7644051541    -0.1441563202
   13      C      -1.3698784044    -4.4597396639     1.0810166598
   14      C      -1.7571619357    -2.9808525874     0.8239571987
   15      O      -1.7969576316    -2.9119498312    -0.6075096333
   16      H       1.3053094138    -2.9846278495     0.3129009510
   17      H      -0.0472630756    -2.4320638801     2.1040259514
   18      H       1.5564096240     1.3687241948    -0.7354602965
   19      H      -0.7987036009     1.9449162669     0.8134798100
   20      H      -0.9206643458    -5.5272410482    -0.7823389941
   21      H       0.5341496829    -5.0983233777     0.1190351515
   22      H      -2.2682790889    -5.0794519555     1.0785309473
   23      H      -0.8695298095    -4.5975239578     2.0416081408
   24      H       2.7603681098     1.1858843681     0.5803501859
   25      H       3.0803633340     0.5078167329    -1.0475510159
   26      H      -2.4933667593     1.4304277273     0.9612100328
   27      H      -1.7801696265     1.6776459537    -0.6642761561
   28      C      -3.0720965997    -2.5388616865     1.4263522615
   29      H      -3.8687411521    -3.2142312393     1.1075430662
   30      H      -3.0155066716    -2.5542750957     2.5172632240
   31      H      -3.3324785622    -1.5283521117     1.1069342489
   32      C      -0.2556904984    -3.5140152990    -2.3890318187
   33      H      -0.9385325997    -4.2652241712    -2.7933250079
   34      H      -0.4256744358    -2.5626247048    -2.8862591337
   35      H       0.7694200143    -3.8290702429    -2.6009938996
 ----------------------------------------------------------------

    2    -844.5293445239      3.59E-09 Convergence criterion met
 Total energy in the final basis set = -844.52934452

                    Orbital Energies (a.u.)
 --------------------------------------------------------------

 Alpha MOs
 -- Occupied --
-19.173 -19.173 -19.126 -19.118 -19.116 -10.309 -10.305 -10.243
-10.238 -10.230 -10.230 -10.206 -10.203 -10.178 -10.176 -10.169
-10.157  -1.119  -1.112  -1.060  -1.029  -1.027  -0.832  -0.804
 -0.785  -0.747  -0.728  -0.722  -0.675  -0.643  -0.603  -0.581
 -0.569  -0.558  -0.522  -0.513  -0.508  -0.492  -0.486  -0.478
 -0.475  -0.471  -0.459  -0.442  -0.434  -0.429  -0.416  -0.411
 -0.406  -0.399  -0.396  -0.373  -0.372  -0.367  -0.360  -0.355
 -0.352  -0.347  -0.332  -0.329  -0.318  -0.314  -0.287  -0.278
 -0.272

          Ground-State Mulliken Net Atomic Charges

     Atom                 Charge (a.u.)
  ----------------------------------------
      1 C                     0.419756
      2 C                     0.755801
      3 C                    -1.118951
      4 C                    -0.797707
      5 O                    -0.014835
      6 O                    -0.129593
      7 O                     0.015415
      8 O                    -0.163862
      9 C                    -0.179088
     10 C                    -0.200517
     11 C                    -0.546846
     12 C                    -0.453816
     13 C                    -0.378501
     14 C                    -0.426352
     15 O                     0.032557
     16 H                     0.266560
     17 H                     0.285961
     18 H                     0.176187
     19 H                     0.186257
     20 H                     0.174741
     21 H                     0.137578
     22 H                     0.173976
     23 H                     0.139323
     24 H                     0.164441
     25 H                     0.172348
     26 H                     0.176051
     27 H                     0.175287
     28 C                    -0.010743
     29 H                     0.174361
     30 H                     0.172118
     31 H                     0.179407
     32 C                    -0.061241
     33 H                     0.141164
     34 H                     0.201697
     35 H                     0.161067
  ----------------------------------------
  Sum of atomic charges =     0.000000

                    Cartesian Multipole Moments
 -----------------------------------------------------------------
    Charge (ESU x 10^10)
                 0.0000
    Dipole Moment (Debye)
         X       0.9203      Y      -0.5435      Z       0.4354
       Tot       1.1541
    Quadrupole Moments (Debye-Ang)
        XX     -97.5252     XY      -0.7871     YY     -86.9721
        XZ      -0.7361     YZ      -5.4283     ZZ    -114.8805

 Frequency:        30.84                  61.76                  76.06
 Force Cnst:      0.0022                 0.0131                 0.0114
 Red. Mass:       3.9682                 5.8292                 3.3530
 IR Intens:        0.094                  2.626                  0.572
 Frequency:        85.49                 106.18                 136.27
 Force Cnst:      0.0275                 0.0178                 0.0175
 Red. Mass:       6.3816                 2.6763                 1.6014
 IR Intens:        0.787                  1.768                  0.936
 Frequency:       140.37                 156.89                 179.25
 Force Cnst:      0.0223                 0.0201                 0.0403
 Red. Mass:       1.9172                 1.3880                 2.1268
 IR Intens:        1.183                  0.605                  1.627
 Frequency:       218.07                 222.08                 229.80
 Force Cnst:      0.0351                 0.0704                 0.0787
 Red. Mass:       1.2539                 2.4212                 2.5309
 IR Intens:        0.625                  3.155                  0.944
 Frequency:       239.11                 255.33                 264.37
 Force Cnst:      0.0584                 0.0802                 0.1229
 Red. Mass:       1.7345                 2.0870                 2.9847
 IR Intens:        1.592                  4.089                  1.446
 Frequency:       290.51                 317.23                 325.35
 Force Cnst:      0.2045                 0.2173                 0.1532
 Red. Mass:       4.1119                 3.6656                 2.4562
 IR Intens:        1.917                  7.887                  0.739
 Frequency:       341.42                 364.22                 374.70
 Force Cnst:      0.2436                 0.2781                 0.4333
 Red. Mass:       3.5468                 3.5583                 5.2376
 IR Intens:        2.146                  2.675                 15.454
 Frequency:       420.32                 492.93                 571.37
 Force Cnst:      0.3326                 0.4899                 0.7255
 Red. Mass:       3.1955                 3.4218                 3.7718
 IR Intens:        1.064                 11.965                 10.608
 Frequency:       594.05                 614.93                 647.23
 Force Cnst:      1.0020                 0.8663                 1.0681
 Red. Mass:       4.8193                 3.8885                 4.3276
 IR Intens:        8.408                  5.503                  2.233
 Frequency:       670.42                 714.14                 756.92
 Force Cnst:      1.3128                 1.7610                 1.5899
 Red. Mass:       4.9576                 5.8605                 4.7099
 IR Intens:        0.884                  4.606                  3.010
 Frequency:       805.81                 833.43                 840.61
 Force Cnst:      1.1428                 1.2599                 1.1906
 Red. Mass:       2.9872                 3.0786                 2.8597
 IR Intens:        1.572                 18.488                  6.725
 Frequency:       863.61                 877.15                 885.13
 Force Cnst:      1.8072                 1.9565                 1.4836
 Red. Mass:       4.1126                 4.3161                 3.2140
 IR Intens:        4.910                 10.000                  9.326
 Frequency:       887.88                 904.32                 923.57
 Force Cnst:      1.1167                 1.0544                 1.1907
 Red. Mass:       2.4042                 2.1883                 2.3693
 IR Intens:       13.428                 15.429                 21.881
 Frequency:       937.78                 982.69                 999.12
 Force Cnst:      1.7755                 1.5071                 1.9691
 Red. Mass:       3.4267                 2.6489                 3.3480
 IR Intens:       19.831                  0.534                  3.489
 Frequency:      1013.45                1056.07                1064.72
 Force Cnst:      0.9351                 2.4237                 3.5145
 Red. Mass:       1.5452                 3.6885                 5.2619
 IR Intens:        1.283                 76.307                 48.872
 Frequency:      1110.40                1125.13                1137.42
 Force Cnst:      1.0526                 1.3506                 1.8295
 Red. Mass:       1.4490                 1.8108                 2.4001
 IR Intens:       10.851                 32.623                 36.284
 Frequency:      1171.14                1171.28                1173.17
 Force Cnst:      1.0504                 1.0967                 1.4839
 Red. Mass:       1.2999                 1.3567                 1.8300
 IR Intens:        2.099                  6.503                 17.609
 Frequency:      1192.20                1205.83                1207.01
 Force Cnst:      2.7690                 1.8382                 1.4613
 Red. Mass:       3.3066                 2.1457                 1.7024
 IR Intens:      209.252                 46.474                 21.410
 Frequency:      1209.04                1217.26                1240.57
 Force Cnst:      1.3928                 1.5842                 1.8906
 Red. Mass:       1.6172                 1.8146                 2.0850
 IR Intens:       29.631                 26.303                 81.252
 Frequency:      1246.27                1258.81                1290.98
 Force Cnst:      2.1357                 1.1502                 1.5520
 Red. Mass:       2.3339                 1.2320                 1.5805
 IR Intens:      146.388                  2.147                  2.948
 Frequency:      1294.68                1329.62                1337.70
 Force Cnst:      2.3716                 1.6827                 2.0351
 Red. Mass:       2.4015                 1.6155                 1.9302
 IR Intens:      131.388                 22.852                  3.182
 Frequency:      1351.10                1380.65                1415.24
 Force Cnst:      1.6932                 1.7907                 1.5707
 Red. Mass:       1.5743                 1.5944                 1.3310
 IR Intens:        8.854                 35.253                 16.913
 Frequency:      1422.26                1467.76                1468.25
 Force Cnst:      1.6040                 1.5185                 1.5110
 Red. Mass:       1.3459                 1.1963                 1.1896
 IR Intens:       11.010                  4.732                 22.092
 Frequency:      1480.67                1482.32                1485.57
 Force Cnst:      1.3632                 1.3556                 1.3707
 Red. Mass:       1.0554                 1.0471                 1.0542
 IR Intens:        0.344                  4.111                  4.055
 Frequency:      1485.98                1493.60                1494.59
 Force Cnst:      1.3594                 1.3762                 1.4062
 Red. Mass:       1.0449                 1.0470                 1.0685
 IR Intens:       10.712                 16.736                  2.117
 Frequency:      1498.49                1500.68                1507.10
 Force Cnst:      1.3921                 1.3921                 1.4045
 Red. Mass:       1.0522                 1.0492                 1.0495
 IR Intens:        7.629                  3.145                  6.351
 Frequency:      1513.58                1779.66                1804.06
 Force Cnst:      1.4868                20.0291                22.1940
 Red. Mass:       1.1015                10.7334                11.5739
 IR Intens:        9.490                271.081                249.879
 Frequency:      3042.38                3042.95                3047.37
 Force Cnst:      5.6480                 5.6711                 5.6354
 Red. Mass:       1.0357                 1.0395                 1.0300
 IR Intens:       15.835                 14.145                 12.863
 Frequency:      3048.21                3054.25                3061.44
 Force Cnst:      5.6392                 5.8282                 5.9354
 Red. Mass:       1.0301                 1.0604                 1.0749
 IR Intens:       52.836                 29.565                 17.531
 Frequency:      3066.78                3091.31                3100.84
 Force Cnst:      5.9077                 6.2362                 6.2436
 Red. Mass:       1.0661                 1.1076                 1.1021
 IR Intens:       34.044                  0.064                 12.281
 Frequency:      3109.71                3112.98                3117.53
 Force Cnst:      6.2956                 6.2944                 6.3114
 Red. Mass:       1.1050                 1.1024                 1.1022
 IR Intens:       16.358                 39.117                 15.128
 Frequency:      3118.47                3120.11                3125.04
 Force Cnst:      6.3416                 6.3487                 6.2572
 Red. Mass:       1.1068                 1.1069                 1.0875
 IR Intens:       36.692                  7.733                 16.174
 Frequency:      3157.42                3159.20                3159.76
 Force Cnst:      6.4970                 6.5029                 6.4545
 Red. Mass:       1.1061                 1.1059                 1.0972
 IR Intens:       10.404                  9.963                  3.813

 STANDARD THERMODYNAMIC QUANTITIES AT   298.15 K  AND     1.00 ATM

   This Molecule has  0 Imaginary Frequencies
   Zero point vibrational energy:      183.641 kcal/mol

   Atom    1 Element C  Has Mass   12.00000
   Atom    2 Element C  Has Mass   12.00000
   Atom    3 Element C  Has Mass   12.00000
   Atom    4 Element C  Has Mass   12.00000
   Atom    5 Element O  Has Mass   15.99491
   Atom    6 Element O  Has Mass   15.99491
   Atom    7 Element O  Has Mass   15.99491
   Atom    8 Element O  Has Mass   15.99491
   Atom    9 Element C  Has Mass   12.00000
   Atom   10 Element C  Has Mass   12.00000
   Atom   11 Element C  Has Mass   12.00000
   Atom   12 Element C  Has Mass   12.00000
   Atom   13 Element C  Has Mass   12.00000
   Atom   14 Element C  Has Mass   12.00000
   Atom   15 Element O  Has Mass   15.99491
   Atom   16 Element H  Has Mass    1.00783
   Atom   17 Element H  Has Mass    1.00783
   Atom   18 Element H  Has Mass    1.00783
   Atom   19 Element H  Has Mass    1.00783
   Atom   20 Element H  Has Mass    1.00783
   Atom   21 Element H  Has Mass    1.00783
   Atom   22 Element H  Has Mass    1.00783
   Atom   23 Element H  Has Mass    1.00783
   Atom   24 Element H  Has Mass    1.00783
   Atom   25 Element H  Has Mass    1.00783
   Atom   26 Element H  Has Mass    1.00783
   Atom   27 Element H  Has Mass    1.00783
   Atom   28 Element C  Has Mass   12.00000
   Atom   29 Element H  Has Mass    1.00783
   Atom   30 Element H  Has Mass    1.00783
   Atom   31 Element H  Has Mass    1.00783
   Atom   32 Element C  Has Mass   12.00000
   Atom   33 Element H  Has Mass    1.00783
   Atom   34 Element H  Has Mass    1.00783
   Atom   35 Element H  Has Mass    1.00783
   Molecular Mass:   242.115490 amu
   Principal axes and moments of inertia in amu*Bohr^2:
                             1           2           3
    Eigenvalues --     2752.55575  3741.12910  5162.54722
          X               0.42545    -0.65120     0.62844
          Y               0.90492     0.29791    -0.30393
          Z               0.01070     0.69799     0.71602
   Rotational Symmetry Number is   1
   The Molecule is an Asymmetric Top
   Translational Enthalpy:        0.889 kcal/mol
   Rotational Enthalpy:           0.889 kcal/mol
   Vibrational Enthalpy:        192.692 kcal/mol
   gas constant (RT):             0.592 kcal/mol
   Translational Entropy:        42.354  cal/mol.K
   Rotational Entropy:           32.341  cal/mol.K
   Vibrational Entropy:          57.357  cal/mol.K

   Total Enthalpy:              195.062 kcal/mol
   Total Entropy:               132.052  cal/mol.K

 Total job time:  10999.13s(wall), 42366.76s(cpu)
        *  Thank you very much for using Q-Chem.  Have a nice day.  *
