 Q-Chem 5.0, Q-Chem, Inc., Pleasanton, CA (2017)
 Q-Chem 5.0.1 for Intel X86 EM64T Linux

User input:
--------------------------------------------------------------
$molecule
0 1
  C      0.57593216      0.81545569      0.77447623
  C      0.07816963     -0.66215426      0.69377923
  C     -0.48616498      1.86412050      0.48440275
  C     -1.21275606     -0.92299583     -0.06472391
  O      0.04810592      3.08532267      0.29063344
  O     -1.67631778      1.67152069      0.53582985
  O     -1.20626111     -0.40341088     -1.30520963
  O     -2.11064606     -1.60147881      0.37312539
  C     -2.41820023     -0.56823540     -2.05922018
  C     -0.89200542      4.16182660      0.10687147
  C      1.92555050      0.74999632     -0.05124436
  C      2.97692198      0.13132997      0.90773254
  C      2.48907292     -1.33814318      1.00157350
  C      1.30331931     -1.34615783     -0.00402040
  O      1.69144593     -0.34297518     -0.95457409
  H      0.83559258      1.03646099      1.81558184
  H     -0.09016886     -1.08083634      1.68468388
  H     -3.24475150     -0.07205214     -1.54802629
  H     -1.52989496      4.26521809      0.98575622
  H      3.96388849      0.19041647      0.44530950
  H      3.02480888      0.64310821      1.87126134
  H      3.25954355     -2.03791439      0.67283734
  H      2.17848093     -1.63265323      2.00614572
  H     -2.22552176     -0.10136917     -3.02291500
  H     -2.65363643     -1.62632735     -2.18595077
  H     -1.51561047      3.97527198     -0.76850252
  H     -0.28539207      5.05311117     -0.03688356
  C      1.04393540     -2.67221340     -0.68468464
  H      1.96483256     -3.03786931     -1.14372613
  H      0.69914677     -3.41205960      0.04206351
  H      0.28718391     -2.57252984     -1.46362037
  C      2.40290067      1.95815111     -0.82529820
  H      3.32324090      1.69401860     -1.35156623
  H      1.66384950      2.28042621     -1.55848948
  H      2.60622521      2.79424084     -0.15508796
$end

$rem
sym_ignore      true
jobtype         ts
method          b3lyp
basis           6-311++G(d,p)
dft_d           d3_op
mem_total       62000
MEM_STATIC      4000
ao2mo_disk      350000
max_scf_cycles  200
geom_opt_max_cycles 1000
geom_opt_tol_displacement 1
GEOM_OPT_TOL_GRADIENT       1
GEOM_OPT_TOL_ENERGY         1
geom_opt_dmax    50
$end

--------------------------------------------------------------

   15    -844.5255765227      3.26E-09 Convergence criterion met
 Total energy in the final basis set = -844.52557652
   10    -844.5255669842      7.02E-09 Convergence criterion met
 Total energy in the final basis set = -844.52556698
   10    -844.5255771855      9.99E-09 Convergence criterion met
 Total energy in the final basis set = -844.52557719
   10    -844.5255748584      4.44E-09 Convergence criterion met
 Total energy in the final basis set = -844.52557486
    9    -844.5255770862      8.33E-09 Convergence criterion met
 Total energy in the final basis set = -844.52557709
   10    -844.5255776212      8.42E-09 Convergence criterion met
 Total energy in the final basis set = -844.52557762
   10    -844.5255798382      9.74E-09 Convergence criterion met
 Total energy in the final basis set = -844.52557984
   10    -844.5255804870      8.87E-09 Convergence criterion met
    6    -844.5255797539      6.50E-09 Convergence criterion met
 Total energy in the final basis set = -844.52557975
    6    -844.5255797258      5.10E-09 Convergence criterion met
 Total energy in the final basis set = -844.52557973
    6    -844.5255797475      3.33E-09 Convergence criterion met
 Total energy in the final basis set = -844.52557975
    6    -844.5255797269      2.75E-09 Convergence criterion met
 Total energy in the final basis set = -844.52557973
    5    -844.5255797387      7.40E-09 Convergence criterion met
 Total energy in the final basis set = -844.52557974
    5    -844.5255797305      6.93E-09 Convergence criterion met
 Total energy in the final basis set = -844.52557973
 Final energy is   -844.525579730470
 **  OPTIMIZATION CONVERGED  **
 Total job time:  3683.47s(wall), 62049.14s(cpu)
        *  Thank you very much for using Q-Chem.  Have a nice day.  *

User input: 2 of 2

r0191.ten.osc.edu 10.25.155
Q-Chem Developer Version! Running on 10.25.155.*
                  Welcome to Q-Chem
     A Quantum Leap Into The Future Of Chemistry

 Q-Chem 5.0, Q-Chem, Inc., Pleasanton, CA (2017)

 Yihan Shao,  Zhengting Gan,  E. Epifanovsky,  A. T. B. Gilbert,  M. Wormit,
 J. Kussmann,  A. W. Lange,  A. Behn,  Jia Deng,  Xintian Feng,  D. Ghosh,
 M. Goldey,  P. R. Horn,  L. D. Jacobson,  I. Kaliman,  T. Kus,  A. Landau,
 Jie Liu,  E. I. Proynov,  R. M. Richard,  R. P. Steele,  E. J. Sundstrom,
 H. L. Woodcock III,  P. M. Zimmerman,  D. Zuev,  B. Albrecht,  E. Alguire,
 S. A. Baeppler,  Z. Benda,  Y. A. Bernard,  E. J. Berquist,  K. B. Bravaya,
 D. Casanova,  Chun-Min Chang,  Yunqing Chen,  A. Chien,  K. D. Closser,
 M. P. Coons,  S. Dasgupta,  M. Diedenhofen,  Hainam Do,  R. G. Edgar,
 Po-Tung Fang,  S. Fatehi,  Qingguo Feng,  Qinghui Ge,  A. Ghysels,
 J. Gomes,  J. Gonthier,  A. Gunina,  M. W. D. Hanson-Heine,
 P. H. P. Harbach,  A. W. Hauser,  J. E. Herr,  E. G. Hohenstein,
 Z. C. Holden,  Kerwin Hui,  T.-C. Jagau,  Hyunjun Ji,  B. Kaduk,
 K. Khistyaev,  Jaehoon Kim,  P. Klunzinger,  K. Koh,  D. Kosenkov,
 T. Kowalczyk,  C. M. Krauter,  A. Kunitsa,  Ka Un Lao,  A. Laurent,
 K. V. Lawler,  Joonho Lee,  D. Lefrancois,  S. Lehtola,  D. S. Levine,
 Yi-Pei Li,  You-Sheng Lin,  Fenglai Liu,  E. Livshits,  A. Luenser,
 P. Manohar,  E. Mansoor,  S. F. Manzer,  Shan-Ping Mao,  Yuezhi Mao,
 N. Mardirossian,  A. V. Marenich,  L. A. Martinez-Martinez,  S. A. Maurer,
 N. J. Mayhall,  S. C. McKenzie,  J.-M. Mewes,  A. F. Morrison,  K. Nanda,
 T. S. Nguyen-Beck,  R. Olivares-Amaya,  J. A. Parkhill,  T. M. Perrine,
 F. Plasser,  S. Prager,  A. Prociuk,  D. R. Rehn,  F. Rob,  M. Schneider,
 N. Sergueev,  S. M. Sharada,  S. Sharma,  D. W. Small,  T. Stauch,
 T. Stein,  Yu-Chuan Su,  A. J. W. Thom,  T. Tsuchimochi,  L. Vogt,
 O. Vydrov,  M. A. Watson,  J. Wenzel,  M. de Wergifosse,  T. A. Wesolowski,
 A. White,  J. Witte,  A. Yamada,  Jun Yang,  K. Yao,  S. Yeganeh,
 S. R. Yost,  Zhi-Qiang You,  A. Zech,  Igor Ying Zhang,  Xing Zhang,
 Yan Zhao,  Ying Zhu,  B. R. Brooks,  G. K. L. Chan,  C. J. Cramer,
 M. S. Gordon,  W. J. Hehre,  A. Klamt,  M. W. Schmidt,  C. D. Sherrill,
 D. G. Truhlar,  A. Aspuru-Guzik,  R. Baer,  A. T. Bell,  N. A. Besley,
 Jeng-Da Chai,  A. Dreuw,  B. D. Dunietz,  T. R. Furlani,  Chao-Ping Hsu,
 Yousung Jung,  Jing Kong,  D. S. Lambrecht,  WanZhen Liang,  C. Ochsenfeld,
 V. A. Rassolov,  L. V. Slipchenko,  J. E. Subotnik,  T. Van Voorhis,
 J. M. Herbert,  A. I. Krylov,  P. M. W. Gill,  M. Head-Gordon

 Contributors to earlier versions of Q-Chem not listed above:
 R. D. Adamson,  B. Austin,  J. Baker,  G. J. O. Beran,  K. Brandhorst,
 S. T. Brown,  E. F. C. Byrd,  A. K. Chakraborty,  C.-L. Cheng,
 Siu Hung Chien,  D. M. Chipman,  D. L. Crittenden,  H. Dachsel,
 R. A. DiStasio Jr.,  R. J. Doerksen,  A. D. Dutoi,  L. Fusti-Molnar,
 W. A. Goddard III,  A. Golubeva-Zadorozhnaya,  S. R. Gwaltney,  G. Hawkins,
 A. Heyden,  S. Hirata,  G. Kedziora,  F. J. Keil,  C. Kelley,  Jihan Kim,
 R. A. King,  R. Z. Khaliullin,  P. P. Korambath,  W. Kurlancheek,
 A. M. Lee,  M. S. Lee,  S. V. Levchenko,  Ching Yeh Lin,  D. Liotard,
 R. C. Lochan,  I. Lotan,  P. E. Maslen,  N. Nair,  D. P. O'Neill,
 D. Neuhauser,  E. Neuscamman,  C. M. Oana,  R. Olson,  B. Peters,
 R. Peverati,  P. A. Pieniazek,  Y. M. Rhee,  J. Ritchie,  M. A. Rohrdanz,
 E. Rosta,  N. J. Russ,  H. F. Schaefer III,  N. E. Schultz,  N. Shenvi,
 A. C. Simmonett,  A. Sodt,  D. Stuck,  K. S. Thanthiriwatte,  V. Vanovschi,
 Tao Wang,  A. Warshel,  C. F. Williams,  Q. Wu,  X. Xu,  W. Zhang

 Please cite Q-Chem as follows:
 Y. Shao et al., Mol. Phys. 113, 184-215 (2015)
 DOI: 10.1080/00268976.2014.952696

 Q-Chem 5.0.1 for Intel X86 EM64T Linux

 Parts of Q-Chem use Armadillo 5.200.1 (Boston Tea Smuggler).
 http://arma.sourceforge.net/

 Q-Chem begins on Tue Oct 17 16:01:24 2017

Host: r0191.ten.osc.edu
0

     Scratch files written to /tmp/pbstmp.1311790/4//
Processing $rem in /users/PAS0291/osu6415/.qchemrc.
molden_format             true
The previous job contains 0 fragments, simply inherited here

Checking the input file for inconsistencies... 	...done.

--------------------------------------------------------------
User input:
--------------------------------------------------------------

$molecule
read
$end

$rem
sym_ignore      true
scf_guess       read
jobtype         freq
method          b3lyp
basis           6-311++G(d,p)
dft_d           d3_op
mem_total       62000
MEM_STATIC      4000
ao2mo_disk      350000
max_scf_cycles  200
$end
--------------------------------------------------------------

             Standard Nuclear Orientation (Angstroms)
    I     Atom           X                Y                Z
 ----------------------------------------------------------------
    1      C       0.5748730084     0.8144255552     0.7746571556
    2      C       0.0768528342    -0.6629250286     0.6928883130
    3      C      -0.4867719605     1.8638474735     0.4861488568
    4      C      -1.2129399312    -0.9231616768    -0.0677501317
    5      O       0.0481612929     3.0856629534     0.2973032683
    6      O      -1.6770995711     1.6716272908     0.5345018523
    7      O      -1.2047750675    -0.4024190102    -1.3076334952
    8      O      -2.1114046429    -1.6019962104     0.3684947311
    9      C      -2.4150332133    -0.5674305382    -2.0642906432
   10      C      -0.8913010359     4.1627003433     0.1137216283
   11      C       1.9242257961     0.7495510196    -0.0525307905
   12      C       2.9766457447     0.1325887619     0.9061140490
   13      C       2.4883255703    -1.3365595266     1.0031233267
   14      C       1.3029627040    -1.3467545290    -0.0031652783
   15      O       1.6906023079    -0.3443627402    -0.9546828291
   16      H       0.8357529767     1.0340474184     1.8156999162
   17      H      -0.0931850819    -1.0815755202     1.6835262304
   18      H      -3.2400073344    -0.0604322228    -1.5610614402
   19      H      -1.5266624670     4.2685640241     0.9942069385
   20      H       3.9629290229     0.1903948784     0.4420676252
   21      H       3.0260912628     0.6460125296     1.8686918752
   22      H       3.2587939629    -2.0374288755     0.6767240984
   23      H       2.1768746637    -1.6284513974     2.0081987249
   24      H      -2.2160552524    -0.1115142482    -3.0319430464
   25      H      -2.6570231909    -1.6251209970    -2.1808635867
   26      H      -1.5175744775     3.9750645330    -0.7594591164
   27      H      -0.2842205827     5.0531499386    -0.0332269505
   28      C       1.0458409756    -2.6740801562    -0.6822021137
   29      H       1.9661664829    -3.0352492379    -1.1459405708
   30      H       0.7087868283    -3.4152984628     0.0467758270
   31      H       0.2844707046    -2.5788041456    -1.4571546967
   32      C       2.3994422884     1.9576118042    -0.8279938113
   33      H       3.3194940424     1.6941640350    -1.3551417647
   34      H       1.6591543286     2.2782513484    -1.5607071458
   35      H       2.6024270208     2.7945205860    -0.1587769756
 ----------------------------------------------------------------

    2    -844.5255797314      2.39E-09 Convergence criterion met
 Total energy in the final basis set = -844.52557973

                    Orbital Energies (a.u.)
 --------------------------------------------------------------

 Alpha MOs
 -- Occupied --
-19.179 -19.160 -19.126 -19.120 -19.103 -10.312 -10.295 -10.243
-10.240 -10.234 -10.218 -10.208 -10.197 -10.178 -10.178 -10.166
-10.164  -1.122  -1.103  -1.061  -1.033  -1.015  -0.829  -0.805
 -0.782  -0.748  -0.726  -0.721  -0.674  -0.643  -0.600  -0.581
 -0.570  -0.559  -0.517  -0.511  -0.500  -0.494  -0.487  -0.480
 -0.473  -0.465  -0.458  -0.442  -0.428  -0.424  -0.418  -0.411
 -0.405  -0.401  -0.387  -0.373  -0.366  -0.364  -0.360  -0.354
 -0.352  -0.347  -0.331  -0.328  -0.321  -0.300  -0.292  -0.271
 -0.269

          Ground-State Mulliken Net Atomic Charges

     Atom                 Charge (a.u.)
  ----------------------------------------
      1 C                     0.404367
      2 C                     0.633207
      3 C                    -0.698710
      4 C                    -1.072775
      5 O                    -0.065894
      6 O                    -0.197162
      7 O                    -0.036184
      8 O                    -0.148270
      9 C                    -0.209154
     10 C                    -0.227505
     11 C                    -0.420406
     12 C                    -0.576675
     13 C                    -0.299154
     14 C                    -0.345439
     15 O                     0.062332
     16 H                     0.262195
     17 H                     0.280916
     18 H                     0.192617
     19 H                     0.179841
     20 H                     0.170027
     21 H                     0.139655
     22 H                     0.171196
     23 H                     0.147543
     24 H                     0.154574
     25 H                     0.173996
     26 H                     0.187032
     27 H                     0.151190
     28 C                     0.091574
     29 H                     0.175253
     30 H                     0.164328
     31 H                     0.179844
     32 C                    -0.146415
     33 H                     0.153594
     34 H                     0.179551
     35 H                     0.188912
  ----------------------------------------
  Sum of atomic charges =     0.000000

                    Cartesian Multipole Moments
 -----------------------------------------------------------------
    Charge (ESU x 10^10)
                 0.0000
    Dipole Moment (Debye)
         X       2.5504      Y       2.3397      Z      -0.0165
       Tot       3.4610
    Quadrupole Moments (Debye-Ang)
        XX    -105.7202     XY      -5.3212     YY     -91.4585
        XZ       9.7873     YZ       1.0740     ZZ     -99.0171

 Frequency:       -28.43                  32.50                  82.64
 Force Cnst:      0.0027                 0.0025                 0.0119
 Red. Mass:       5.5779                 3.9440                 2.9568
 IR Intens:        0.848                  0.207                  1.636
 Frequency:        92.51                 113.14                 129.34
 Force Cnst:      0.0238                 0.0139                 0.0167
 Red. Mass:       4.7145                 1.8448                 1.6952
 IR Intens:        1.540                  1.867                  1.432
 Frequency:       137.81                 144.26                 163.43
 Force Cnst:      0.0128                 0.0448                 0.0376
 Red. Mass:       1.1457                 3.6516                 2.3887
 IR Intens:        0.108                  0.939                  1.189
 Frequency:       182.19                 230.70                 237.09
 Force Cnst:      0.0241                 0.0803                 0.0916
 Red. Mass:       1.2347                 2.5622                 2.7670
 IR Intens:        0.186                  0.745                  4.141
 Frequency:       243.58                 251.23                 270.71
 Force Cnst:      0.0625                 0.0642                 0.1462
 Red. Mass:       1.7893                 1.7266                 3.3866
 IR Intens:        1.164                  1.659                  4.542
 Frequency:       289.81                 298.53                 323.25
 Force Cnst:      0.1813                 0.1949                 0.1676
 Red. Mass:       3.6646                 3.7111                 2.7217
 IR Intens:        6.103                  2.040                  5.467
 Frequency:       338.20                 366.73                 386.03
 Force Cnst:      0.2525                 0.3157                 0.5708
 Red. Mass:       3.7474                 3.9848                 6.5014
 IR Intens:        8.843                  6.365                  9.379
 Frequency:       418.63                 477.22                 567.84
 Force Cnst:      0.3185                 0.4403                 0.8421
 Red. Mass:       3.0846                 3.2817                 4.4326
 IR Intens:        2.353                  2.161                  4.411
 Frequency:       583.86                 611.13                 633.37
 Force Cnst:      0.9466                 0.8108                 1.0404
 Red. Mass:       4.7129                 3.6848                 4.4017
 IR Intens:       18.753                  3.152                  4.351
 Frequency:       650.08                 731.76                 761.79
 Force Cnst:      0.9875                 1.7436                 1.9297
 Red. Mass:       3.9661                 5.5265                 5.6437
 IR Intens:        3.880                  2.326                  4.401
 Frequency:       790.59                 828.47                 841.61
 Force Cnst:      1.2530                 1.2989                 0.8568
 Red. Mass:       3.4024                 3.2121                 2.0530
 IR Intens:        7.827                  8.273                 10.516
 Frequency:       863.06                 873.62                 880.94
 Force Cnst:      2.0500                 1.7997                 1.3464
 Red. Mass:       4.6711                 4.0023                 2.9447
 IR Intens:        9.775                  5.978                 18.902
 Frequency:       885.59                 907.07                 923.42
 Force Cnst:      1.1707                 1.1308                 1.2051
 Red. Mass:       2.5335                 2.3328                 2.3986
 IR Intens:       17.436                 16.838                 24.363
 Frequency:       964.20                 978.32                 982.44
 Force Cnst:      2.1727                 1.5081                 2.0740
 Red. Mass:       3.9666                 2.6744                 3.6472
 IR Intens:        4.503                  0.835                  6.867
 Frequency:      1005.70                1050.83                1070.08
 Force Cnst:      0.9339                 2.4117                 2.0842
 Red. Mass:       1.5671                 3.7068                 3.0893
 IR Intens:        0.487                 51.766                 86.375
 Frequency:      1108.12                1125.57                1131.68
 Force Cnst:      1.1030                 1.3799                 1.8542
 Red. Mass:       1.5246                 1.8486                 2.4573
 IR Intens:       32.749                 31.258                 12.273
 Frequency:      1166.98                1171.60                1173.27
 Force Cnst:      1.7037                 1.0478                 1.0379
 Red. Mass:       2.1233                 1.2956                 1.2798
 IR Intens:        9.008                  0.653                  0.731
 Frequency:      1195.12                1207.67                1207.98
 Force Cnst:      2.1794                 1.4176                 1.3250
 Red. Mass:       2.5897                 1.6498                 1.5412
 IR Intens:       64.880                 23.972                 10.149
 Frequency:      1209.58                1230.53                1236.47
 Force Cnst:      1.6198                 1.7347                 2.0364
 Red. Mass:       1.8791                 1.9444                 2.2607
 IR Intens:       12.066                 97.153                 60.261
 Frequency:      1256.43                1261.68                1277.21
 Force Cnst:      3.0511                 1.1616                 1.5071
 Red. Mass:       3.2804                 1.2386                 1.5681
 IR Intens:      287.451                  9.481                 23.056
 Frequency:      1295.82                1325.27                1345.30
 Force Cnst:      2.5170                 1.5281                 2.2778
 Red. Mass:       2.5441                 1.4767                 2.1361
 IR Intens:      142.310                  1.745                 24.402
 Frequency:      1352.45                1367.97                1411.73
 Force Cnst:      1.6940                 1.7739                 1.5649
 Red. Mass:       1.5719                 1.6089                 1.3327
 IR Intens:       32.529                 23.155                 16.016
 Frequency:      1420.09                1468.34                1470.88
 Force Cnst:      1.6243                 1.5284                 1.5062
 Red. Mass:       1.3670                 1.2032                 1.1816
 IR Intens:        9.742                 15.149                 10.042
 Frequency:      1477.81                1479.69                1482.61
 Force Cnst:      1.3679                 1.3615                 1.3540
 Red. Mass:       1.0631                 1.0554                 1.0455
 IR Intens:        3.118                  6.325                  6.344
 Frequency:      1483.66                1490.20                1497.69
 Force Cnst:      1.3547                 1.4027                 1.3828
 Red. Mass:       1.0446                 1.0721                 1.0463
 IR Intens:       11.973                  1.338                 10.881
 Frequency:      1499.03                1499.68                1502.90
 Force Cnst:      1.3889                 1.3925                 1.4024
 Red. Mass:       1.0491                 1.0508                 1.0538
 IR Intens:       10.242                  4.072                  4.856
 Frequency:      1509.22                1777.05                1781.87
 Force Cnst:      1.4712                20.8225                20.6447
 Red. Mass:       1.0963                11.1913                11.0359
 IR Intens:       10.020                 52.311                493.716
 Frequency:      3036.81                3042.58                3046.88
 Force Cnst:      5.8782                 5.6478                 5.6618
 Red. Mass:       1.0818                 1.0355                 1.0351
 IR Intens:        5.121                 13.719                 18.793
 Frequency:      3047.02                3051.69                3054.78
 Force Cnst:      5.6471                 5.6494                 5.8145
 Red. Mass:       1.0323                 1.0296                 1.0575
 IR Intens:       29.600                 36.190                 42.236
 Frequency:      3064.65                3090.64                3107.36
 Force Cnst:      5.8683                 6.2319                 6.2811
 Red. Mass:       1.0605                 1.1073                 1.1041
 IR Intens:       34.382                  1.160                  2.605
 Frequency:      3109.46                3115.09                3117.04
 Force Cnst:      6.2722                 6.2795                 6.2500
 Red. Mass:       1.1010                 1.0983                 1.0918
 IR Intens:       23.959                 18.920                 34.042
 Frequency:      3119.98                3121.62                3125.15
 Force Cnst:      6.3478                 6.3254                 6.3699
 Red. Mass:       1.1068                 1.1017                 1.1070
 IR Intens:       15.908                 18.298                 16.593
 Frequency:      3130.76                3151.67                3158.14
 Force Cnst:      6.3652                 6.4729                 6.5031
 Red. Mass:       1.1022                 1.1060                 1.1066
 IR Intens:       15.541                 13.830                 12.862

 STANDARD THERMODYNAMIC QUANTITIES AT   298.15 K  AND     1.00 ATM

   This Molecule has  1 Imaginary Frequencies
   Zero point vibrational energy:      183.251 kcal/mol

   Atom    1 Element C  Has Mass   12.00000
   Atom    2 Element C  Has Mass   12.00000
   Atom    3 Element C  Has Mass   12.00000
   Atom    4 Element C  Has Mass   12.00000
   Atom    5 Element O  Has Mass   15.99491
   Atom    6 Element O  Has Mass   15.99491
   Atom    7 Element O  Has Mass   15.99491
   Atom    8 Element O  Has Mass   15.99491
   Atom    9 Element C  Has Mass   12.00000
   Atom   10 Element C  Has Mass   12.00000
   Atom   11 Element C  Has Mass   12.00000
   Atom   12 Element C  Has Mass   12.00000
   Atom   13 Element C  Has Mass   12.00000
   Atom   14 Element C  Has Mass   12.00000
   Atom   15 Element O  Has Mass   15.99491
   Atom   16 Element H  Has Mass    1.00783
   Atom   17 Element H  Has Mass    1.00783
   Atom   18 Element H  Has Mass    1.00783
   Atom   19 Element H  Has Mass    1.00783
   Atom   20 Element H  Has Mass    1.00783
   Atom   21 Element H  Has Mass    1.00783
   Atom   22 Element H  Has Mass    1.00783
   Atom   23 Element H  Has Mass    1.00783
   Atom   24 Element H  Has Mass    1.00783
   Atom   25 Element H  Has Mass    1.00783
   Atom   26 Element H  Has Mass    1.00783
   Atom   27 Element H  Has Mass    1.00783
   Atom   28 Element C  Has Mass   12.00000
   Atom   29 Element H  Has Mass    1.00783
   Atom   30 Element H  Has Mass    1.00783
   Atom   31 Element H  Has Mass    1.00783
   Atom   32 Element C  Has Mass   12.00000
   Atom   33 Element H  Has Mass    1.00783
   Atom   34 Element H  Has Mass    1.00783
   Atom   35 Element H  Has Mass    1.00783
   Molecular Mass:   242.115490 amu
   Principal axes and moments of inertia in amu*Bohr^2:
                             1           2           3
    Eigenvalues --     3102.09905  3526.53689  5424.22052
          X              -0.36263     0.91483    -0.17773
          Y               0.93111     0.34767    -0.11025
          Z               0.03907     0.20547     0.97788
   Rotational Symmetry Number is   1
   The Molecule is an Asymmetric Top
   Translational Enthalpy:        0.889 kcal/mol
   Rotational Enthalpy:           0.889 kcal/mol
   Vibrational Enthalpy:        191.857 kcal/mol
   gas constant (RT):             0.592 kcal/mol
   Translational Entropy:        42.354  cal/mol.K
   Rotational Entropy:           32.450  cal/mol.K
   Vibrational Entropy:          53.242  cal/mol.K

   Total Enthalpy:              194.226 kcal/mol
   Total Entropy:               128.046  cal/mol.K

 Total job time:  11139.30s(wall), 41439.81s(cpu)
        *  Thank you very much for using Q-Chem.  Have a nice day.  *
