 Q-Chem 5.0, Q-Chem, Inc., Pleasanton, CA (2017)
 Q-Chem 5.0.1 for Intel X86 EM64T Linux

User input:
--------------------------------------------------------------
$molecule
0 1
C -0.37493764 0.80525769 -0.86913065
C -0.43051431 -0.77091904 -0.83358461
C 0.98388390 1.39870877 -0.52659392
C 0.90563606 -1.48660685 -0.75219311
O 1.24685106 1.43479630 0.78720971
O 1.74704976 1.81153489 -1.36989429
O 1.50694600 -1.37737337 0.44616409
O 1.38999164 -2.08518605 -1.68351579
C 2.79402969 -2.00971793 0.56883448
C 2.55443717 1.89962781 1.15857785
C -1.54649716 1.14731514 0.11175697
C -2.87267576 0.71891473 -0.58479211
C -2.87707682 -0.81424355 -0.36151050
C -1.49289364 -1.02622229 0.30195631
O -1.38791820 0.14346548 1.12812002
H -0.58205027 1.15687788 -1.87885536
H -0.83300062 -1.11757058 -1.78447630
H 3.48666638 -1.60960588 -0.17296923
H 2.72065857 2.91687016 0.80102886
H -3.72012999 1.19848636 -0.09212371
H -2.89555610 1.00610119 -1.63829286
H -3.66043548 -1.10978238 0.33909836
H -3.00339105 -1.39349943 -1.27837544
H 3.13140448 -1.78036620 1.57723468
H 2.70470806 -3.08834492 0.42933286
H 3.31987506 1.24414145 0.73940230
H 2.57440716 1.86386574 2.24549441
C -1.35072624 -2.28915802 1.12072945
H -2.16880241 -2.35673764 1.84123389
H -1.39240363 -3.16787983 0.47069225
H -0.40549020 -2.29576924 1.66153780
C -1.57926043 2.54155268 0.69993181
H -2.43520576 2.63554197 1.37195611
H -0.67224950 2.75962703 1.26052608
H -1.69001520 3.28086994 -0.09862623
$end

$rem
sym_ignore      true
jobtype         opt
method          b3lyp
basis           6-311++G(d,p)
dft_d           d3_op
mem_total       62000
MEM_STATIC      4000
ao2mo_disk      350000
max_scf_cycles  200
geom_opt_max_cycles 1000
geom_opt_tol_displacement 1
GEOM_OPT_TOL_GRADIENT       1
GEOM_OPT_TOL_ENERGY         1
$end

--------------------------------------------------------------

   15    -844.5242702635      3.37E-09 Convergence criterion met
 Total energy in the final basis set = -844.52427026
   12    -844.5246523770      5.98E-09 Convergence criterion met
 Total energy in the final basis set = -844.52465238
   12    -844.5253075840      6.14E-09 Convergence criterion met
 Total energy in the final basis set = -844.52530758
   12    -844.5259929856      8.76E-09 Convergence criterion met
 Total energy in the final basis set = -844.52599299
   12    -844.5262671457      8.81E-09 Convergence criterion met
 Total energy in the final basis set = -844.52626715
   12    -844.5264854710      6.74E-09 Convergence criterion met
 Total energy in the final basis set = -844.52648547
   12    -844.5266242745      6.23E-09 Convergence criterion met
 Total energy in the final basis set = -844.52662427
   11    -844.5266592409      5.86E-09 Convergence criterion met
    8    -844.5266916823      8.44E-09 Convergence criterion met
 Total energy in the final basis set = -844.52669168
    8    -844.5266917310      3.33E-09 Convergence criterion met
 Total energy in the final basis set = -844.52669173
    8    -844.5266917625      3.63E-09 Convergence criterion met
 Total energy in the final basis set = -844.52669176
    6    -844.5266917623      4.44E-09 Convergence criterion met
 Total energy in the final basis set = -844.52669176
    5    -844.5266917563      9.29E-09 Convergence criterion met
 Total energy in the final basis set = -844.52669176
    4    -844.5266917559      9.60E-09 Convergence criterion met
 Total energy in the final basis set = -844.52669176
 Final energy is   -844.526691755855
 **  OPTIMIZATION CONVERGED  **
 Total job time:  1354.73s(wall), 23145.17s(cpu)
        *  Thank you very much for using Q-Chem.  Have a nice day.  *

User input: 2 of 2

r0176.ten.osc.edu 10.25.155
Q-Chem Developer Version! Running on 10.25.155.*
                  Welcome to Q-Chem
     A Quantum Leap Into The Future Of Chemistry

 Q-Chem 5.0, Q-Chem, Inc., Pleasanton, CA (2017)

 Yihan Shao,  Zhengting Gan,  E. Epifanovsky,  A. T. B. Gilbert,  M. Wormit,
 J. Kussmann,  A. W. Lange,  A. Behn,  Jia Deng,  Xintian Feng,  D. Ghosh,
 M. Goldey,  P. R. Horn,  L. D. Jacobson,  I. Kaliman,  T. Kus,  A. Landau,
 Jie Liu,  E. I. Proynov,  R. M. Richard,  R. P. Steele,  E. J. Sundstrom,
 H. L. Woodcock III,  P. M. Zimmerman,  D. Zuev,  B. Albrecht,  E. Alguire,
 S. A. Baeppler,  Z. Benda,  Y. A. Bernard,  E. J. Berquist,  K. B. Bravaya,
 D. Casanova,  Chun-Min Chang,  Yunqing Chen,  A. Chien,  K. D. Closser,
 M. P. Coons,  S. Dasgupta,  M. Diedenhofen,  Hainam Do,  R. G. Edgar,
 Po-Tung Fang,  S. Fatehi,  Qingguo Feng,  Qinghui Ge,  A. Ghysels,
 J. Gomes,  J. Gonthier,  A. Gunina,  M. W. D. Hanson-Heine,
 P. H. P. Harbach,  A. W. Hauser,  J. E. Herr,  E. G. Hohenstein,
 Z. C. Holden,  Kerwin Hui,  T.-C. Jagau,  Hyunjun Ji,  B. Kaduk,
 K. Khistyaev,  Jaehoon Kim,  P. Klunzinger,  K. Koh,  D. Kosenkov,
 T. Kowalczyk,  C. M. Krauter,  A. Kunitsa,  Ka Un Lao,  A. Laurent,
 K. V. Lawler,  Joonho Lee,  D. Lefrancois,  S. Lehtola,  D. S. Levine,
 Yi-Pei Li,  You-Sheng Lin,  Fenglai Liu,  E. Livshits,  A. Luenser,
 P. Manohar,  E. Mansoor,  S. F. Manzer,  Shan-Ping Mao,  Yuezhi Mao,
 N. Mardirossian,  A. V. Marenich,  L. A. Martinez-Martinez,  S. A. Maurer,
 N. J. Mayhall,  S. C. McKenzie,  J.-M. Mewes,  A. F. Morrison,  K. Nanda,
 T. S. Nguyen-Beck,  R. Olivares-Amaya,  J. A. Parkhill,  T. M. Perrine,
 F. Plasser,  S. Prager,  A. Prociuk,  D. R. Rehn,  F. Rob,  M. Schneider,
 N. Sergueev,  S. M. Sharada,  S. Sharma,  D. W. Small,  T. Stauch,
 T. Stein,  Yu-Chuan Su,  A. J. W. Thom,  T. Tsuchimochi,  L. Vogt,
 O. Vydrov,  M. A. Watson,  J. Wenzel,  M. de Wergifosse,  T. A. Wesolowski,
 A. White,  J. Witte,  A. Yamada,  Jun Yang,  K. Yao,  S. Yeganeh,
 S. R. Yost,  Zhi-Qiang You,  A. Zech,  Igor Ying Zhang,  Xing Zhang,
 Yan Zhao,  Ying Zhu,  B. R. Brooks,  G. K. L. Chan,  C. J. Cramer,
 M. S. Gordon,  W. J. Hehre,  A. Klamt,  M. W. Schmidt,  C. D. Sherrill,
 D. G. Truhlar,  A. Aspuru-Guzik,  R. Baer,  A. T. Bell,  N. A. Besley,
 Jeng-Da Chai,  A. Dreuw,  B. D. Dunietz,  T. R. Furlani,  Chao-Ping Hsu,
 Yousung Jung,  Jing Kong,  D. S. Lambrecht,  WanZhen Liang,  C. Ochsenfeld,
 V. A. Rassolov,  L. V. Slipchenko,  J. E. Subotnik,  T. Van Voorhis,
 J. M. Herbert,  A. I. Krylov,  P. M. W. Gill,  M. Head-Gordon

 Contributors to earlier versions of Q-Chem not listed above:
 R. D. Adamson,  B. Austin,  J. Baker,  G. J. O. Beran,  K. Brandhorst,
 S. T. Brown,  E. F. C. Byrd,  A. K. Chakraborty,  C.-L. Cheng,
 Siu Hung Chien,  D. M. Chipman,  D. L. Crittenden,  H. Dachsel,
 R. A. DiStasio Jr.,  R. J. Doerksen,  A. D. Dutoi,  L. Fusti-Molnar,
 W. A. Goddard III,  A. Golubeva-Zadorozhnaya,  S. R. Gwaltney,  G. Hawkins,
 A. Heyden,  S. Hirata,  G. Kedziora,  F. J. Keil,  C. Kelley,  Jihan Kim,
 R. A. King,  R. Z. Khaliullin,  P. P. Korambath,  W. Kurlancheek,
 A. M. Lee,  M. S. Lee,  S. V. Levchenko,  Ching Yeh Lin,  D. Liotard,
 R. C. Lochan,  I. Lotan,  P. E. Maslen,  N. Nair,  D. P. O'Neill,
 D. Neuhauser,  E. Neuscamman,  C. M. Oana,  R. Olson,  B. Peters,
 R. Peverati,  P. A. Pieniazek,  Y. M. Rhee,  J. Ritchie,  M. A. Rohrdanz,
 E. Rosta,  N. J. Russ,  H. F. Schaefer III,  N. E. Schultz,  N. Shenvi,
 A. C. Simmonett,  A. Sodt,  D. Stuck,  K. S. Thanthiriwatte,  V. Vanovschi,
 Tao Wang,  A. Warshel,  C. F. Williams,  Q. Wu,  X. Xu,  W. Zhang

 Please cite Q-Chem as follows:
 Y. Shao et al., Mol. Phys. 113, 184-215 (2015)
 DOI: 10.1080/00268976.2014.952696

 Q-Chem 5.0.1 for Intel X86 EM64T Linux

 Parts of Q-Chem use Armadillo 5.200.1 (Boston Tea Smuggler).
 http://arma.sourceforge.net/

 Q-Chem begins on Sat Oct 14 19:21:41 2017

Host: r0176.ten.osc.edu
0

     Scratch files written to /tmp/pbstmp.1310479/10//
Processing $rem in /users/PAS0291/osu6415/.qchemrc.
molden_format             true
The previous job contains 0 fragments, simply inherited here

Checking the input file for inconsistencies... 	...done.

--------------------------------------------------------------
User input:
--------------------------------------------------------------

$molecule
read
$end

$rem
sym_ignore      true
scf_guess       read
jobtype         freq
method          b3lyp
basis           6-311++G(d,p)
dft_d           d3_op
mem_total       62000
MEM_STATIC      4000
ao2mo_disk      350000
max_scf_cycles  200
$end
--------------------------------------------------------------

             Standard Nuclear Orientation (Angstroms)
    I     Atom           X                Y                Z
 ----------------------------------------------------------------
    1      C      -0.3620292971     0.8023483498    -0.8084909110
    2      C      -0.4292085599    -0.7696643012    -0.8766116916
    3      C       1.0454851927     1.3136463313    -0.5296549518
    4      C       0.8484732641    -1.5581416809    -0.6815527142
    5      O       1.2634905517     1.7202794006     0.7272162837
    6      O       1.8921942777     1.3396932574    -1.3934686656
    7      O       1.5534642179    -1.1688122164     0.3971957171
    8      O       1.1734682870    -2.4809238219    -1.3896951137
    9      C       2.7815029180    -1.8783670449     0.6393221009
   10      C       2.6126623812     2.1116215900     1.0335746171
   11      C      -1.5220679599     1.1051979352     0.1936052851
   12      C      -2.8539676510     0.7592817066    -0.5420656821
   13      C      -2.8942244758    -0.7851267836    -0.4444985567
   14      C      -1.5285810202    -1.0796464327     0.2173896438
   15      O      -1.3956799400     0.0192275040     1.1311456805
   16      H      -0.5934170901     1.2035362198    -1.7962930010
   17      H      -0.7886427251    -1.0862031488    -1.8540016344
   18      H       3.4684655244    -1.7355433139    -0.1960086760
   19      H       2.9147855117     2.9641231006     0.4235739233
   20      H      -3.6937896125     1.2144496494    -0.0149775022
   21      H      -2.8670302036     1.1291949315    -1.5693074918
   22      H      -3.6968988134    -1.1207752225     0.2153635951
   23      H      -3.0145526988    -1.2869229768    -1.4066550967
   24      H       3.1884727202    -1.4484982410     1.5520627296
   25      H       2.5877418012    -2.9438591206     0.7700505284
   26      H       3.2946556665     1.2802926294     0.8495462285
   27      H       2.6041828182     2.3755790908     2.0887693189
   28      C      -1.4210057605    -2.4035317047     0.9394528357
   29      H      -2.2315220010    -2.4930992062     1.6658740418
   30      H      -1.4962585166    -3.2313499959     0.2300476768
   31      H      -0.4722330547    -2.4830998850     1.4717802014
   32      C      -1.5533485640     2.4463361735     0.8959847988
   33      H      -2.4548143764     2.5148531234     1.5090544302
   34      H      -0.6817085988     2.5842849613     1.5295947761
   35      H      -1.5827496332     3.2541911522     0.1585614559
 ----------------------------------------------------------------

    2    -844.5266917559      9.95E-09 Convergence criterion met
 Total energy in the final basis set = -844.52669176

                    Orbital Energies (a.u.)
 --------------------------------------------------------------

 Alpha MOs
 -- Occupied --
-19.175 -19.174 -19.128 -19.116 -19.113 -10.307 -10.306 -10.244
-10.241 -10.230 -10.230 -10.205 -10.204 -10.178 -10.178 -10.169
-10.164  -1.120  -1.114  -1.061  -1.028  -1.026  -0.831  -0.806
 -0.784  -0.746  -0.730  -0.727  -0.677  -0.645  -0.603  -0.582
 -0.571  -0.568  -0.514  -0.512  -0.510  -0.496  -0.488  -0.481
 -0.476  -0.469  -0.461  -0.443  -0.432  -0.424  -0.423  -0.414
 -0.406  -0.400  -0.395  -0.374  -0.373  -0.368  -0.359  -0.356
 -0.354  -0.347  -0.334  -0.327  -0.316  -0.313  -0.291  -0.278
 -0.271

          Ground-State Mulliken Net Atomic Charges

     Atom                 Charge (a.u.)
  ----------------------------------------
      1 C                     0.467245
      2 C                     0.645070
      3 C                    -1.093804
      4 C                    -0.691652
      5 O                     0.031401
      6 O                    -0.150325
      7 O                    -0.067778
      8 O                    -0.169481
      9 C                    -0.234818
     10 C                    -0.201886
     11 C                    -0.327506
     12 C                    -0.304089
     13 C                    -0.563916
     14 C                    -0.482060
     15 O                     0.031947
     16 H                     0.271319
     17 H                     0.295058
     18 H                     0.209806
     19 H                     0.182841
     20 H                     0.168318
     21 H                     0.139496
     22 H                     0.171499
     23 H                     0.141297
     24 H                     0.152654
     25 H                     0.177371
     26 H                     0.173616
     27 H                     0.157170
     28 C                     0.015822
     29 H                     0.179983
     30 H                     0.175091
     31 H                     0.163100
     32 C                    -0.161457
     33 H                     0.151273
     34 H                     0.181387
     35 H                     0.166007
  ----------------------------------------
  Sum of atomic charges =    -0.000000

                    Cartesian Multipole Moments
 -----------------------------------------------------------------
    Charge (ESU x 10^10)
                -0.0000
    Dipole Moment (Debye)
         X      -1.0249      Y       1.1810      Z       2.0522
       Tot       2.5801
    Quadrupole Moments (Debye-Ang)
        XX     -92.6507     XY       1.0492     YY    -101.1575
        XZ      12.6612     YZ      -3.1470     ZZ    -108.3946

 Frequency:        32.48                  56.95                  67.22
 Force Cnst:      0.0024                 0.0105                 0.0126
 Red. Mass:       3.8886                 5.5103                 4.7376
 IR Intens:        1.167                  0.981                  4.197
 Frequency:        90.81                 122.29                 139.56
 Force Cnst:      0.0154                 0.0256                 0.0142
 Red. Mass:       3.1636                 2.9063                 1.2354
 IR Intens:        0.724                  0.091                  0.491
 Frequency:       141.70                 152.41                 168.92
 Force Cnst:      0.0395                 0.0169                 0.0454
 Red. Mass:       3.3364                 1.2327                 2.7013
 IR Intens:        2.388                  0.461                  0.425
 Frequency:       189.02                 226.47                 228.52
 Force Cnst:      0.0265                 0.0801                 0.0486
 Red. Mass:       1.2568                 2.6493                 1.5810
 IR Intens:        0.547                  1.324                  2.335
 Frequency:       232.96                 254.43                 262.17
 Force Cnst:      0.0939                 0.0975                 0.0795
 Red. Mass:       2.9367                 2.5553                 1.9643
 IR Intens:        2.577                  0.566                  3.882
 Frequency:       302.30                 313.57                 332.19
 Force Cnst:      0.2141                 0.2171                 0.1698
 Red. Mass:       3.9760                 3.7482                 2.6112
 IR Intens:        0.920                 12.657                  6.033
 Frequency:       340.81                 375.10                 383.75
 Force Cnst:      0.2565                 0.4733                 0.3464
 Red. Mass:       3.7482                 5.7088                 3.9924
 IR Intens:        3.483                  4.184                  7.160
 Frequency:       426.14                 469.84                 576.52
 Force Cnst:      0.3483                 0.4708                 0.7362
 Red. Mass:       3.2556                 3.6201                 3.7596
 IR Intens:        0.543                  6.859                 12.563
 Frequency:       600.84                 618.81                 648.38
 Force Cnst:      0.9194                 0.9065                 0.9713
 Red. Mass:       4.3223                 4.0181                 3.9213
 IR Intens:        4.107                  7.160                  0.323
 Frequency:       690.34                 699.00                 760.57
 Force Cnst:      1.8167                 1.5950                 1.5126
 Red. Mass:       6.4700                 5.5406                 4.4379
 IR Intens:        5.165                  2.219                  4.202
 Frequency:       809.99                 827.84                 841.32
 Force Cnst:      1.2622                 1.7862                 0.8565
 Red. Mass:       3.2654                 4.4237                 2.0537
 IR Intens:        9.235                 26.366                  6.037
 Frequency:       870.57                 875.54                 883.56
 Force Cnst:      2.1527                 1.7629                 1.9596
 Red. Mass:       4.8209                 3.9031                 4.2605
 IR Intens:        1.574                  0.479                 26.076
 Frequency:       887.41                 907.81                 921.46
 Force Cnst:      1.0149                 1.1623                 1.1176
 Red. Mass:       2.1873                 2.3937                 2.2341
 IR Intens:       12.864                 16.268                 16.336
 Frequency:       959.36                 975.20                 989.00
 Force Cnst:      1.4510                 2.0665                 1.6940
 Red. Mass:       2.6759                 3.6880                 2.9394
 IR Intens:        4.713                  3.579                  1.530
 Frequency:      1011.88                1055.88                1061.24
 Force Cnst:      0.8934                 2.8715                 3.3814
 Red. Mass:       1.4810                 4.3714                 5.0958
 IR Intens:        0.893                 64.045                 64.570
 Frequency:      1108.69                1127.44                1137.50
 Force Cnst:      1.0408                 1.2812                 1.8230
 Red. Mass:       1.4372                 1.7107                 2.3914
 IR Intens:       26.744                 13.906                 27.277
 Frequency:      1167.15                1170.34                1172.43
 Force Cnst:      1.7873                 1.0466                 1.0408
 Red. Mass:       2.2268                 1.2969                 1.2852
 IR Intens:        1.738                  1.006                  1.066
 Frequency:      1198.42                1210.10                1210.41
 Force Cnst:      1.8496                 1.3723                 1.2932
 Red. Mass:       2.1858                 1.5905                 1.4981
 IR Intens:        4.934                  3.561                  4.956
 Frequency:      1219.41                1231.52                1250.89
 Force Cnst:      1.5478                 1.8087                 2.0032
 Red. Mass:       1.7667                 2.0241                 2.1728
 IR Intens:       29.920                 55.695                161.846
 Frequency:      1263.87                1272.62                1290.46
 Force Cnst:      1.2586                 2.6080                 1.8716
 Red. Mass:       1.3374                 2.7332                 1.9076
 IR Intens:        4.554                 64.608                 91.153
 Frequency:      1305.94                1332.26                1340.53
 Force Cnst:      2.3304                 1.6656                 2.2467
 Red. Mass:       2.3192                 1.5927                 2.1220
 IR Intens:      218.353                 18.943                 12.972
 Frequency:      1366.68                1375.36                1417.34
 Force Cnst:      1.6221                 1.6506                 1.5459
 Red. Mass:       1.4740                 1.4810                 1.3061
 IR Intens:       44.892                  6.313                 16.285
 Frequency:      1423.98                1469.07                1471.56
 Force Cnst:      1.6499                 1.5321                 1.5294
 Red. Mass:       1.3810                 1.2049                 1.1987
 IR Intens:        8.684                  9.682                 22.600
 Frequency:      1482.52                1483.57                1486.14
 Force Cnst:      1.3556                 1.3569                 1.3800
 Red. Mass:       1.0469                 1.0463                 1.0605
 IR Intens:        5.898                 10.136                  1.189
 Frequency:      1489.48                1496.20                1497.36
 Force Cnst:      1.3781                 1.4073                 1.3850
 Red. Mass:       1.0543                 1.0670                 1.0484
 IR Intens:        1.240                  3.493                 16.612
 Frequency:      1499.31                1507.18                1508.70
 Force Cnst:      1.3860                 1.4103                 1.4123
 Red. Mass:       1.0465                 1.0538                 1.0531
 IR Intens:        0.080                  4.145                  9.008
 Frequency:      1515.48                1762.76                1779.46
 Force Cnst:      1.4856                19.5352                19.8160
 Red. Mass:       1.0979                10.6704                10.6216
 IR Intens:       15.704                185.062                370.504
 Frequency:      3040.09                3043.76                3050.42
 Force Cnst:      5.6731                 5.6551                 5.6427
 Red. Mass:       1.0418                 1.0360                 1.0292
 IR Intens:       18.368                  9.448                 18.926
 Frequency:      3051.33                3055.21                3065.01
 Force Cnst:      5.6478                 5.8192                 5.8735
 Red. Mass:       1.0295                 1.0581                 1.0612
 IR Intens:       47.645                 37.925                 33.179
 Frequency:      3087.81                3092.87                3097.36
 Force Cnst:      6.1193                 6.2057                 6.2238
 Red. Mass:       1.0893                 1.1011                 1.1011
 IR Intens:        7.652                  1.317                 13.227
 Frequency:      3108.96                3111.77                3119.79
 Force Cnst:      6.2835                 6.2817                 6.2509
 Red. Mass:       1.1034                 1.1011                 1.0900
 IR Intens:        9.384                 32.057                 23.269
 Frequency:      3122.63                3123.51                3125.35
 Force Cnst:      6.3292                 6.3614                 6.3721
 Red. Mass:       1.1017                 1.1067                 1.1072
 IR Intens:       15.041                 21.649                 14.074
 Frequency:      3155.53                3156.55                3164.17
 Force Cnst:      6.4912                 6.4950                 6.4647
 Red. Mass:       1.1064                 1.1064                 1.0959
 IR Intens:       15.848                  9.753                  5.289

 STANDARD THERMODYNAMIC QUANTITIES AT   298.15 K  AND     1.00 ATM

   This Molecule has  0 Imaginary Frequencies
   Zero point vibrational energy:      183.838 kcal/mol

   Atom    1 Element C  Has Mass   12.00000
   Atom    2 Element C  Has Mass   12.00000
   Atom    3 Element C  Has Mass   12.00000
   Atom    4 Element C  Has Mass   12.00000
   Atom    5 Element O  Has Mass   15.99491
   Atom    6 Element O  Has Mass   15.99491
   Atom    7 Element O  Has Mass   15.99491
   Atom    8 Element O  Has Mass   15.99491
   Atom    9 Element C  Has Mass   12.00000
   Atom   10 Element C  Has Mass   12.00000
   Atom   11 Element C  Has Mass   12.00000
   Atom   12 Element C  Has Mass   12.00000
   Atom   13 Element C  Has Mass   12.00000
   Atom   14 Element C  Has Mass   12.00000
   Atom   15 Element O  Has Mass   15.99491
   Atom   16 Element H  Has Mass    1.00783
   Atom   17 Element H  Has Mass    1.00783
   Atom   18 Element H  Has Mass    1.00783
   Atom   19 Element H  Has Mass    1.00783
   Atom   20 Element H  Has Mass    1.00783
   Atom   21 Element H  Has Mass    1.00783
   Atom   22 Element H  Has Mass    1.00783
   Atom   23 Element H  Has Mass    1.00783
   Atom   24 Element H  Has Mass    1.00783
   Atom   25 Element H  Has Mass    1.00783
   Atom   26 Element H  Has Mass    1.00783
   Atom   27 Element H  Has Mass    1.00783
   Atom   28 Element C  Has Mass   12.00000
   Atom   29 Element H  Has Mass    1.00783
   Atom   30 Element H  Has Mass    1.00783
   Atom   31 Element H  Has Mass    1.00783
   Atom   32 Element C  Has Mass   12.00000
   Atom   33 Element H  Has Mass    1.00783
   Atom   34 Element H  Has Mass    1.00783
   Atom   35 Element H  Has Mass    1.00783
   Molecular Mass:   242.115490 amu
   Principal axes and moments of inertia in amu*Bohr^2:
                             1           2           3
    Eigenvalues --     2925.84210  3523.58221  5117.96861
          X               0.99983     0.00801     0.01670
          Y              -0.00587     0.99215    -0.12488
          Z              -0.01757     0.12476     0.99203
   Rotational Symmetry Number is   1
   The Molecule is an Asymmetric Top
   Translational Enthalpy:        0.889 kcal/mol
   Rotational Enthalpy:           0.889 kcal/mol
   Vibrational Enthalpy:        192.894 kcal/mol
   gas constant (RT):             0.592 kcal/mol
   Translational Entropy:        42.354  cal/mol.K
   Rotational Entropy:           32.334  cal/mol.K
   Vibrational Entropy:          57.496  cal/mol.K

   Total Enthalpy:              195.264 kcal/mol
   Total Entropy:               132.183  cal/mol.K

 Total job time:  11104.75s(wall), 42004.51s(cpu)
        *  Thank you very much for using Q-Chem.  Have a nice day.  *
