 Q-Chem 5.0, Q-Chem, Inc., Pleasanton, CA (2017)
 Q-Chem 5.0.1 for Intel X86 EM64T Linux

User input:
--------------------------------------------------------------
$molecule
0 1
C 0.11708084 0.80938261 0.62380660
C 0.45186229 -0.72183709 0.70864867
C -1.15402069 1.18629294 -0.12006225
C -0.58092556 -1.77926707 0.35502155
O -2.11499651 1.54874019 0.76475714
O -1.30514189 1.24046154 -1.31332413
O -1.80160882 -1.29182293 0.08577602
O -0.33606899 -2.96260456 0.37434214
C -2.82125192 -2.25598644 -0.23678144
C -3.38706555 1.89231011 0.19338325
C 1.40765830 1.35115891 -0.07394098
C 2.58663311 1.19970399 0.93300528
C 2.92300293 -0.30848472 0.81606046
C 1.80087985 -0.79801796 -0.13127117
O 1.67349709 0.31383802 -1.02960014
H 0.01648774 1.21530990 1.63034803
H 0.68997858 -0.96590898 1.74690465
H -2.98799311 -2.92787038 0.60618167
H -3.78354675 1.05269164 -0.38019229
H 3.42419858 1.82259607 0.61496799
H 2.30919663 1.50940196 1.94290163
H 3.89157501 -0.46095059 0.33600524
H 2.93144372 -0.83821162 1.77069011
H -3.71409587 -1.67150990 -0.44649757
H -2.52924031 -2.83746379 -1.11172739
H -3.29424629 2.75892861 -0.46335205
H -4.03523674 2.11949641 1.03727585
C 2.10638481 -2.05741943 -0.90858143
H 3.04872015 -1.91961321 -1.44386309
H 2.19242932 -2.91599568 -0.24248850
H 1.32244632 -2.27176806 -1.63556603
C 1.32517956 2.70695976 -0.74214792
H 2.29644307 2.96155276 -1.17200736
H 0.57944420 2.71116343 -1.53518552
H 1.06710920 3.47362408 -0.00533914
$end

$rem
sym_ignore      true
jobtype         ts
method          b3lyp
basis           6-311++G(d,p)
dft_d           d3_op
mem_total       62000
MEM_STATIC      4000
ao2mo_disk      350000
max_scf_cycles  200
geom_opt_max_cycles 1000
geom_opt_tol_displacement 1
GEOM_OPT_TOL_GRADIENT       1
GEOM_OPT_TOL_ENERGY         1
$end

--------------------------------------------------------------

   15    -844.5235071405      3.59E-09 Convergence criterion met
 Total energy in the final basis set = -844.52350714
   12    -844.5233667549      9.15E-09 Convergence criterion met
 Total energy in the final basis set = -844.52336675
   12    -844.5229920737      9.21E-09 Convergence criterion met
 Total energy in the final basis set = -844.52299207
   12    -844.5230219714      2.78E-09 Convergence criterion met
 Total energy in the final basis set = -844.52302197
   12    -844.5229607407      3.68E-09 Convergence criterion met
 Total energy in the final basis set = -844.52296074
   12    -844.5230748276      3.73E-09 Convergence criterion met
 Total energy in the final basis set = -844.52307483
   12    -844.5229840616      3.62E-09 Convergence criterion met
 Total energy in the final basis set = -844.52298406
   11    -844.5230393129      9.94E-09 Convergence criterion met
    6    -844.5236532445      9.39E-09 Convergence criterion met
 Total energy in the final basis set = -844.52365324
    6    -844.5236532110      8.57E-09 Convergence criterion met
 Total energy in the final basis set = -844.52365321
    6    -844.5236532426      5.24E-09 Convergence criterion met
 Total energy in the final basis set = -844.52365324
    6    -844.5236532286      4.80E-09 Convergence criterion met
 Total energy in the final basis set = -844.52365323
    5    -844.5236532429      9.97E-09 Convergence criterion met
 Total energy in the final basis set = -844.52365324
    5    -844.5236532357      8.88E-09 Convergence criterion met
 Total energy in the final basis set = -844.52365324
 Final energy is   -844.523653235729
 **  OPTIMIZATION CONVERGED  **
 Total job time:  3004.20s(wall), 51380.77s(cpu)
        *  Thank you very much for using Q-Chem.  Have a nice day.  *

User input: 2 of 2

r0157.ten.osc.edu 10.25.154
Q-Chem Developer Version! Running on 10.25.154.*
                  Welcome to Q-Chem
     A Quantum Leap Into The Future Of Chemistry

 Q-Chem 5.0, Q-Chem, Inc., Pleasanton, CA (2017)

 Yihan Shao,  Zhengting Gan,  E. Epifanovsky,  A. T. B. Gilbert,  M. Wormit,
 J. Kussmann,  A. W. Lange,  A. Behn,  Jia Deng,  Xintian Feng,  D. Ghosh,
 M. Goldey,  P. R. Horn,  L. D. Jacobson,  I. Kaliman,  T. Kus,  A. Landau,
 Jie Liu,  E. I. Proynov,  R. M. Richard,  R. P. Steele,  E. J. Sundstrom,
 H. L. Woodcock III,  P. M. Zimmerman,  D. Zuev,  B. Albrecht,  E. Alguire,
 S. A. Baeppler,  Z. Benda,  Y. A. Bernard,  E. J. Berquist,  K. B. Bravaya,
 D. Casanova,  Chun-Min Chang,  Yunqing Chen,  A. Chien,  K. D. Closser,
 M. P. Coons,  S. Dasgupta,  M. Diedenhofen,  Hainam Do,  R. G. Edgar,
 Po-Tung Fang,  S. Fatehi,  Qingguo Feng,  Qinghui Ge,  A. Ghysels,
 J. Gomes,  J. Gonthier,  A. Gunina,  M. W. D. Hanson-Heine,
 P. H. P. Harbach,  A. W. Hauser,  J. E. Herr,  E. G. Hohenstein,
 Z. C. Holden,  Kerwin Hui,  T.-C. Jagau,  Hyunjun Ji,  B. Kaduk,
 K. Khistyaev,  Jaehoon Kim,  P. Klunzinger,  K. Koh,  D. Kosenkov,
 T. Kowalczyk,  C. M. Krauter,  A. Kunitsa,  Ka Un Lao,  A. Laurent,
 K. V. Lawler,  Joonho Lee,  D. Lefrancois,  S. Lehtola,  D. S. Levine,
 Yi-Pei Li,  You-Sheng Lin,  Fenglai Liu,  E. Livshits,  A. Luenser,
 P. Manohar,  E. Mansoor,  S. F. Manzer,  Shan-Ping Mao,  Yuezhi Mao,
 N. Mardirossian,  A. V. Marenich,  L. A. Martinez-Martinez,  S. A. Maurer,
 N. J. Mayhall,  S. C. McKenzie,  J.-M. Mewes,  A. F. Morrison,  K. Nanda,
 T. S. Nguyen-Beck,  R. Olivares-Amaya,  J. A. Parkhill,  T. M. Perrine,
 F. Plasser,  S. Prager,  A. Prociuk,  D. R. Rehn,  F. Rob,  M. Schneider,
 N. Sergueev,  S. M. Sharada,  S. Sharma,  D. W. Small,  T. Stauch,
 T. Stein,  Yu-Chuan Su,  A. J. W. Thom,  T. Tsuchimochi,  L. Vogt,
 O. Vydrov,  M. A. Watson,  J. Wenzel,  M. de Wergifosse,  T. A. Wesolowski,
 A. White,  J. Witte,  A. Yamada,  Jun Yang,  K. Yao,  S. Yeganeh,
 S. R. Yost,  Zhi-Qiang You,  A. Zech,  Igor Ying Zhang,  Xing Zhang,
 Yan Zhao,  Ying Zhu,  B. R. Brooks,  G. K. L. Chan,  C. J. Cramer,
 M. S. Gordon,  W. J. Hehre,  A. Klamt,  M. W. Schmidt,  C. D. Sherrill,
 D. G. Truhlar,  A. Aspuru-Guzik,  R. Baer,  A. T. Bell,  N. A. Besley,
 Jeng-Da Chai,  A. Dreuw,  B. D. Dunietz,  T. R. Furlani,  Chao-Ping Hsu,
 Yousung Jung,  Jing Kong,  D. S. Lambrecht,  WanZhen Liang,  C. Ochsenfeld,
 V. A. Rassolov,  L. V. Slipchenko,  J. E. Subotnik,  T. Van Voorhis,
 J. M. Herbert,  A. I. Krylov,  P. M. W. Gill,  M. Head-Gordon

 Contributors to earlier versions of Q-Chem not listed above:
 R. D. Adamson,  B. Austin,  J. Baker,  G. J. O. Beran,  K. Brandhorst,
 S. T. Brown,  E. F. C. Byrd,  A. K. Chakraborty,  C.-L. Cheng,
 Siu Hung Chien,  D. M. Chipman,  D. L. Crittenden,  H. Dachsel,
 R. A. DiStasio Jr.,  R. J. Doerksen,  A. D. Dutoi,  L. Fusti-Molnar,
 W. A. Goddard III,  A. Golubeva-Zadorozhnaya,  S. R. Gwaltney,  G. Hawkins,
 A. Heyden,  S. Hirata,  G. Kedziora,  F. J. Keil,  C. Kelley,  Jihan Kim,
 R. A. King,  R. Z. Khaliullin,  P. P. Korambath,  W. Kurlancheek,
 A. M. Lee,  M. S. Lee,  S. V. Levchenko,  Ching Yeh Lin,  D. Liotard,
 R. C. Lochan,  I. Lotan,  P. E. Maslen,  N. Nair,  D. P. O'Neill,
 D. Neuhauser,  E. Neuscamman,  C. M. Oana,  R. Olson,  B. Peters,
 R. Peverati,  P. A. Pieniazek,  Y. M. Rhee,  J. Ritchie,  M. A. Rohrdanz,
 E. Rosta,  N. J. Russ,  H. F. Schaefer III,  N. E. Schultz,  N. Shenvi,
 A. C. Simmonett,  A. Sodt,  D. Stuck,  K. S. Thanthiriwatte,  V. Vanovschi,
 Tao Wang,  A. Warshel,  C. F. Williams,  Q. Wu,  X. Xu,  W. Zhang

 Please cite Q-Chem as follows:
 Y. Shao et al., Mol. Phys. 113, 184-215 (2015)
 DOI: 10.1080/00268976.2014.952696

 Q-Chem 5.0.1 for Intel X86 EM64T Linux

 Parts of Q-Chem use Armadillo 5.200.1 (Boston Tea Smuggler).
 http://arma.sourceforge.net/

 Q-Chem begins on Sun Oct 15 23:59:06 2017

Host: r0157.ten.osc.edu
0

     Scratch files written to /tmp/pbstmp.1310578/01//
Processing $rem in /users/PAS0291/osu6415/.qchemrc.
molden_format             true
The previous job contains 0 fragments, simply inherited here

Checking the input file for inconsistencies... 	...done.

--------------------------------------------------------------
User input:
--------------------------------------------------------------

$molecule
read
$end

$rem
sym_ignore      true
scf_guess       read
jobtype         freq
method          b3lyp
basis           6-311++G(d,p)
dft_d           d3_op
mem_total       62000
MEM_STATIC      4000
ao2mo_disk      350000
max_scf_cycles  200
$end
--------------------------------------------------------------

             Standard Nuclear Orientation (Angstroms)
    I     Atom           X                Y                Z
 ----------------------------------------------------------------
    1      C       0.1096279918     0.8064470068     0.6388524941
    2      C       0.4643208698    -0.7176642272     0.7137441697
    3      C      -1.1481114138     1.1723762533    -0.1334499686
    4      C      -0.5663213232    -1.7900378654     0.4066930310
    5      O      -2.1122717926     1.5836363103     0.7267747666
    6      O      -1.2921151876     1.1668686215    -1.3283811689
    7      O      -1.7826152176    -1.3184094649     0.0946047352
    8      O      -0.3209981244    -2.9703738094     0.4967959673
    9      C      -2.7996732055    -2.2976671160    -0.1870792149
   10      C      -3.3752465846     1.9172810201     0.1288173020
   11      C       1.4011128483     1.3619995375    -0.0481532286
   12      C       2.5855635200     1.1815006853     0.9492939353
   13      C       2.9355928011    -0.3185054893     0.7719595347
   14      C       1.7921952162    -0.7841740799    -0.1602591170
   15      O       1.6558627097     0.3476974332    -1.0310835124
   16      H      -0.0083023323     1.2097574480     1.6442965463
   17      H       0.7389740500    -0.9522101927     1.7448828597
   18      H      -2.9796863659    -2.9213964443     0.6896235411
   19      H      -3.7800000736     1.0552114967    -0.4044325823
   20      H       3.4170815241     1.8254183747     0.6586216052
   21      H       2.3045098163     1.4451295273     1.9713747898
   22      H       3.8909995929    -0.4430550435     0.2585219598
   23      H       2.9755941037    -0.8790153409     1.7079496820
   24      H      -3.6880662211    -1.7242842998    -0.4416773908
   25      H      -2.4972553044    -2.9278874221    -1.0240214057
   26      H      -3.2645293189     2.7476438486    -0.5705253795
   27      H      -4.0255762245     2.1965764248     0.9551700947
   28      C       2.0611813764    -2.0323884743    -0.9673698494
   29      H       2.9905356160    -1.9003210064    -1.5261113313
   30      H       2.1510284640    -2.9036540492    -0.3183125783
   31      H       1.2540181618    -2.2196214380    -1.6770484860
   32      C       1.3157663762     2.7336888380    -0.6822035218
   33      H       2.2798651267     2.9923165958    -1.1255751520
   34      H       0.5558257015     2.7620643222    -1.4617284313
   35      H       1.0773251231     3.4839325393     0.0775831840
 ----------------------------------------------------------------

    2    -844.5236532366      4.68E-09 Convergence criterion met
 Total energy in the final basis set = -844.52365324

                    Orbital Energies (a.u.)
 --------------------------------------------------------------

 Alpha MOs
 -- Occupied --
-19.179 -19.169 -19.124 -19.117 -19.108 -10.311 -10.301 -10.240
-10.239 -10.233 -10.227 -10.207 -10.200 -10.177 -10.175 -10.163
-10.159  -1.122  -1.108  -1.060  -1.031  -1.022  -0.829  -0.802
 -0.782  -0.748  -0.729  -0.721  -0.674  -0.642  -0.601  -0.581
 -0.569  -0.554  -0.526  -0.508  -0.505  -0.492  -0.487  -0.477
 -0.476  -0.469  -0.459  -0.439  -0.432  -0.425  -0.418  -0.410
 -0.405  -0.397  -0.392  -0.373  -0.369  -0.366  -0.358  -0.354
 -0.351  -0.346  -0.329  -0.322  -0.321  -0.306  -0.288  -0.280
 -0.266

          Ground-State Mulliken Net Atomic Charges

     Atom                 Charge (a.u.)
  ----------------------------------------
      1 C                     0.469638
      2 C                     0.383655
      3 C                    -1.117670
      4 C                    -0.591655
      5 O                     0.037978
      6 O                    -0.169757
      7 O                    -0.078367
      8 O                    -0.214986
      9 C                    -0.204178
     10 C                    -0.177341
     11 C                    -0.171067
     12 C                    -0.367217
     13 C                    -0.451604
     14 C                    -0.494427
     15 O                     0.053117
     16 H                     0.297544
     17 H                     0.246632
     18 H                     0.186792
     19 H                     0.173422
     20 H                     0.173869
     21 H                     0.142115
     22 H                     0.172528
     23 H                     0.148070
     24 H                     0.133944
     25 H                     0.189013
     26 H                     0.173664
     27 H                     0.151776
     28 C                    -0.090912
     29 H                     0.147184
     30 H                     0.202055
     31 H                     0.184550
     32 C                    -0.043996
     33 H                     0.167032
     34 H                     0.192987
     35 H                     0.145609
  ----------------------------------------
  Sum of atomic charges =    -0.000000

                    Cartesian Multipole Moments
 -----------------------------------------------------------------
    Charge (ESU x 10^10)
                -0.0000
    Dipole Moment (Debye)
         X      -1.1665      Y       1.2093      Z       2.3924
       Tot       2.9234
    Quadrupole Moments (Debye-Ang)
        XX     -87.0315     XY       2.2842     YY    -104.1841
        XZ       1.9734     YZ       4.2397     ZZ    -106.5800

 Frequency:       -40.34                  41.07                  64.94
 Force Cnst:      0.0052                 0.0038                 0.0076
 Red. Mass:       5.4578                 3.8736                 3.0743
 IR Intens:        1.972                  0.469                  2.261
 Frequency:       100.76                 111.84                 122.34
 Force Cnst:      0.0082                 0.0127                 0.0138
 Red. Mass:       1.3638                 1.7229                 1.5622
 IR Intens:        0.228                  1.960                  0.878
 Frequency:       143.17                 160.08                 173.58
 Force Cnst:      0.0332                 0.0659                 0.0623
 Red. Mass:       2.7492                 4.3681                 3.5078
 IR Intens:        0.544                  0.351                  0.078
 Frequency:       205.48                 225.35                 228.02
 Force Cnst:      0.0296                 0.0955                 0.0794
 Red. Mass:       1.1907                 3.1930                 2.5921
 IR Intens:        0.767                  1.231                  1.878
 Frequency:       245.74                 254.09                 261.77
 Force Cnst:      0.1113                 0.0514                 0.0874
 Red. Mass:       3.1278                 1.3526                 2.1660
 IR Intens:        4.312                  1.782                  1.315
 Frequency:       276.26                 311.44                 326.23
 Force Cnst:      0.1648                 0.1851                 0.2085
 Red. Mass:       3.6640                 3.2387                 3.3256
 IR Intens:        6.728                  5.328                  1.735
 Frequency:       335.32                 365.87                 375.69
 Force Cnst:      0.2704                 0.2875                 0.3893
 Red. Mass:       4.0817                 3.6447                 4.6809
 IR Intens:        1.120                 11.984                  6.635
 Frequency:       421.78                 481.42                 577.20
 Force Cnst:      0.3186                 0.4754                 0.7130
 Red. Mass:       3.0400                 3.4815                 3.6324
 IR Intens:        2.043                  9.360                 12.747
 Frequency:       588.64                 611.71                 621.38
 Force Cnst:      1.2176                 0.8085                 1.0678
 Red. Mass:       5.9640                 3.6674                 4.6939
 IR Intens:        7.193                  4.315                  5.540
 Frequency:       654.58                 730.60                 772.35
 Force Cnst:      1.1187                 1.6741                 1.7798
 Red. Mass:       4.4313                 5.3233                 5.0640
 IR Intens:        4.525                  1.004                  1.903
 Frequency:       795.39                 830.11                 844.28
 Force Cnst:      1.0610                 1.5092                 0.9985
 Red. Mass:       2.8466                 3.7174                 2.3775
 IR Intens:        1.072                 10.160                  9.185
 Frequency:       858.99                 880.19                 891.52
 Force Cnst:      2.1363                 1.8856                 1.2360
 Red. Mass:       4.9141                 4.1309                 2.6394
 IR Intens:       33.343                  6.704                 22.137
 Frequency:       895.03                 902.35                 924.48
 Force Cnst:      1.1740                 1.1033                 1.4673
 Red. Mass:       2.4874                 2.2998                 2.9139
 IR Intens:        5.877                 10.693                 30.355
 Frequency:       943.18                 978.00                 997.29
 Force Cnst:      1.5546                 1.5266                 2.9328
 Red. Mass:       2.9661                 2.7089                 5.0048
 IR Intens:        1.922                  0.854                  7.323
 Frequency:      1010.17                1054.22                1070.28
 Force Cnst:      0.9283                 3.1032                 1.8134
 Red. Mass:       1.5440                 4.7391                 2.6869
 IR Intens:        0.633                 58.533                 60.587
 Frequency:      1109.93                1125.03                1136.51
 Force Cnst:      1.1285                 1.3049                 1.8325
 Red. Mass:       1.5547                 1.7498                 2.4079
 IR Intens:       11.096                 24.387                 19.055
 Frequency:      1165.88                1169.61                1170.29
 Force Cnst:      1.7314                 1.0609                 1.0408
 Red. Mass:       2.1619                 1.3163                 1.2898
 IR Intens:      155.779                  6.228                  1.408
 Frequency:      1180.40                1201.33                1206.89
 Force Cnst:      1.9839                 1.9888                 1.3416
 Red. Mass:       2.4166                 2.3389                 1.5632
 IR Intens:       68.735                 85.051                 33.373
 Frequency:      1210.84                1214.62                1240.35
 Force Cnst:      1.3120                 1.6227                 1.8417
 Red. Mass:       1.5189                 1.8668                 2.0318
 IR Intens:       10.599                 19.846                 32.510
 Frequency:      1258.73                1272.95                1275.75
 Force Cnst:      1.1815                 2.4630                 1.6733
 Red. Mass:       1.2657                 2.5798                 1.7450
 IR Intens:        1.264                244.945                 21.272
 Frequency:      1286.17                1319.48                1338.90
 Force Cnst:      2.2291                 1.4727                 1.6328
 Red. Mass:       2.2871                 1.4357                 1.5459
 IR Intens:      197.017                  8.728                 24.303
 Frequency:      1343.51                1396.80                1420.55
 Force Cnst:      2.5141                 1.7529                 1.5789
 Red. Mass:       2.3641                 1.5249                 1.3280
 IR Intens:        7.474                 51.193                 23.114
 Frequency:      1426.58                1466.71                1471.91
 Force Cnst:      1.6604                 1.5314                 1.5354
 Red. Mass:       1.3847                 1.2082                 1.2028
 IR Intens:        9.638                 12.962                 19.381
 Frequency:      1479.38                1481.77                1482.56
 Force Cnst:      1.3469                 1.3767                 1.3537
 Red. Mass:       1.0445                 1.0642                 1.0453
 IR Intens:        6.003                  0.981                  8.752
 Frequency:      1485.48                1491.17                1494.93
 Force Cnst:      1.3685                 1.3929                 1.3811
 Red. Mass:       1.0526                 1.0632                 1.0489
 IR Intens:        9.189                  4.162                 12.080
 Frequency:      1497.93                1498.64                1509.03
 Force Cnst:      1.3839                 1.3876                 1.4653
 Red. Mass:       1.0468                 1.0486                 1.0922
 IR Intens:        4.938                  6.266                  8.693
 Frequency:      1512.92                1768.84                1800.11
 Force Cnst:      1.4250                20.7993                20.7202
 Red. Mass:       1.0566                11.2829                10.8529
 IR Intens:       10.112                271.916                179.951
 Frequency:      3039.15                3046.76                3047.97
 Force Cnst:      5.6555                 5.6317                 5.6825
 Red. Mass:       1.0392                 1.0297                 1.0382
 IR Intens:       15.045                 33.996                  7.704
 Frequency:      3053.18                3053.37                3061.68
 Force Cnst:      5.6553                 5.8058                 5.8651
 Red. Mass:       1.0297                 1.0569                 1.0620
 IR Intens:       35.263                 41.549                 28.628
 Frequency:      3067.68                3089.75                3100.04
 Force Cnst:      5.9986                 6.2234                 6.2338
 Red. Mass:       1.0819                 1.1064                 1.1010
 IR Intens:       10.026                  2.083                 11.157
 Frequency:      3102.56                3109.87                3115.86
 Force Cnst:      6.1798                 6.2787                 6.3040
 Red. Mass:       1.0896                 1.1019                 1.1021
 IR Intens:        5.925                 40.313                 30.592
 Frequency:      3116.75                3128.18                3133.04
 Force Cnst:      6.3321                 6.3835                 6.3690
 Red. Mass:       1.1064                 1.1072                 1.1013
 IR Intens:       24.783                 14.490                  8.665
 Frequency:      3140.17                3151.98                3159.74
 Force Cnst:      6.3874                 6.4731                 6.5076
 Red. Mass:       1.0994                 1.1058                 1.1063
 IR Intens:        5.837                 16.800                 12.359

 STANDARD THERMODYNAMIC QUANTITIES AT   298.15 K  AND     1.00 ATM

   This Molecule has  1 Imaginary Frequencies
   Zero point vibrational energy:      183.406 kcal/mol

   Atom    1 Element C  Has Mass   12.00000
   Atom    2 Element C  Has Mass   12.00000
   Atom    3 Element C  Has Mass   12.00000
   Atom    4 Element C  Has Mass   12.00000
   Atom    5 Element O  Has Mass   15.99491
   Atom    6 Element O  Has Mass   15.99491
   Atom    7 Element O  Has Mass   15.99491
   Atom    8 Element O  Has Mass   15.99491
   Atom    9 Element C  Has Mass   12.00000
   Atom   10 Element C  Has Mass   12.00000
   Atom   11 Element C  Has Mass   12.00000
   Atom   12 Element C  Has Mass   12.00000
   Atom   13 Element C  Has Mass   12.00000
   Atom   14 Element C  Has Mass   12.00000
   Atom   15 Element O  Has Mass   15.99491
   Atom   16 Element H  Has Mass    1.00783
   Atom   17 Element H  Has Mass    1.00783
   Atom   18 Element H  Has Mass    1.00783
   Atom   19 Element H  Has Mass    1.00783
   Atom   20 Element H  Has Mass    1.00783
   Atom   21 Element H  Has Mass    1.00783
   Atom   22 Element H  Has Mass    1.00783
   Atom   23 Element H  Has Mass    1.00783
   Atom   24 Element H  Has Mass    1.00783
   Atom   25 Element H  Has Mass    1.00783
   Atom   26 Element H  Has Mass    1.00783
   Atom   27 Element H  Has Mass    1.00783
   Atom   28 Element C  Has Mass   12.00000
   Atom   29 Element H  Has Mass    1.00783
   Atom   30 Element H  Has Mass    1.00783
   Atom   31 Element H  Has Mass    1.00783
   Atom   32 Element C  Has Mass   12.00000
   Atom   33 Element H  Has Mass    1.00783
   Atom   34 Element H  Has Mass    1.00783
   Atom   35 Element H  Has Mass    1.00783
   Molecular Mass:   242.115490 amu
   Principal axes and moments of inertia in amu*Bohr^2:
                             1           2           3
    Eigenvalues --     2915.20217  3678.79766  5659.87685
          X               0.99982    -0.01862     0.00209
          Y               0.01852     0.99899     0.04085
          Z              -0.00285    -0.04081     0.99916
   Rotational Symmetry Number is   1
   The Molecule is an Asymmetric Top
   Translational Enthalpy:        0.889 kcal/mol
   Rotational Enthalpy:           0.889 kcal/mol
   Vibrational Enthalpy:        191.978 kcal/mol
   gas constant (RT):             0.592 kcal/mol
   Translational Entropy:        42.354  cal/mol.K
   Rotational Entropy:           32.473  cal/mol.K
   Vibrational Entropy:          52.738  cal/mol.K

   Total Enthalpy:              194.348 kcal/mol
   Total Entropy:               127.564  cal/mol.K

 Total job time:  11097.56s(wall), 41760.95s(cpu)
        *  Thank you very much for using Q-Chem.  Have a nice day.  *
