 Q-Chem 5.0, Q-Chem, Inc., Pleasanton, CA (2017)
 Q-Chem 5.0.1 for Intel X86 EM64T Linux

User input:
--------------------------------------------------------------
$molecule
0 1
C 0.28807272 0.88912223 0.70619150
C 0.38455896 -0.66012358 0.90480461
C -1.03144945 1.59641051 0.46454964
C -0.82079641 -1.50435486 0.51927498
O -2.06602688 0.79190984 0.18059932
O -1.13430617 2.79889256 0.54818694
O -1.02371883 -1.58303609 -0.80571869
O -1.49332707 -2.09509048 1.33236377
C -2.17416467 -2.33375797 -1.22075444
C -3.34236266 1.43071547 -0.01167143
C 1.38816155 1.14523620 -0.41528132
C 2.74301655 1.18966678 0.32728634
C 2.87770018 -0.28545138 0.78698614
C 1.67196685 -0.96534742 0.06573552
O 1.47227158 -0.12351530 -1.07959025
H 0.63967436 1.36968347 1.62070910
H 0.54142118 -0.88659461 1.95900893
H -3.08197712 -1.89555749 -0.80232295
H -3.30970694 2.08711251 -0.88228269
H 3.53113086 1.45752624 -0.37927850
H 2.75630809 1.91287024 1.14482202
H 3.81553329 -0.72858915 0.44864270
H 2.82531824 -0.40662520 1.87111136
H -2.18421591 -2.27235493 -2.30696326
H -2.09765907 -3.37248593 -0.89457303
H -3.61355001 2.01220208 0.87001418
H -4.04922916 0.61909836 -0.16819502
C 1.91176479 -2.40489888 -0.33621464
H 2.83759858 -2.47882811 -0.91080850
H 2.00972318 -3.03228980 0.55406991
H 1.09478612 -2.78586809 -0.94771960
C 1.13137932 2.24845792 -1.41350260
H 1.95552455 2.28966305 -2.12932246
H 0.20622331 2.06759297 -1.96504929
H 1.04554573 3.21234104 -0.91040705
$end

$rem
sym_ignore      true
jobtype         ts
method          b3lyp
basis           6-311++G(d,p)
dft_d           d3_op
mem_total       62000
MEM_STATIC      4000
ao2mo_disk      350000
max_scf_cycles  200
geom_opt_max_cycles 1000
geom_opt_tol_displacement 1
GEOM_OPT_TOL_GRADIENT       1
GEOM_OPT_TOL_ENERGY         1
$end

--------------------------------------------------------------

   15    -844.5240350287      3.58E-09 Convergence criterion met
 Total energy in the final basis set = -844.52403503
   12    -844.5237922751      7.19E-09 Convergence criterion met
 Total energy in the final basis set = -844.52379228
   12    -844.5236967620      5.44E-09 Convergence criterion met
 Total energy in the final basis set = -844.52369676
   12    -844.5238350383      4.21E-09 Convergence criterion met
 Total energy in the final basis set = -844.52383504
   12    -844.5236324247      4.54E-09 Convergence criterion met
 Total energy in the final basis set = -844.52363242
   12    -844.5230421350      5.03E-09 Convergence criterion met
 Total energy in the final basis set = -844.52304213
   12    -844.5235153739      6.83E-09 Convergence criterion met
 Total energy in the final basis set = -844.52351537
   12    -844.5232948069      6.15E-09 Convergence criterion met
    5    -844.5240414493      6.24E-09 Convergence criterion met
 Total energy in the final basis set = -844.52404145
    5    -844.5240414285      5.69E-09 Convergence criterion met
 Total energy in the final basis set = -844.52404143
    4    -844.5240414230      7.27E-09 Convergence criterion met
 Total energy in the final basis set = -844.52404142
    4    -844.5240414150      7.91E-09 Convergence criterion met
 Total energy in the final basis set = -844.52404142
    4    -844.5240414086      6.28E-09 Convergence criterion met
 Total energy in the final basis set = -844.52404141
    4    -844.5240414032      5.22E-09 Convergence criterion met
 Total energy in the final basis set = -844.52404140
 Final energy is   -844.524041403163
 **  OPTIMIZATION CONVERGED  **
 Total job time:  4074.73s(wall), 69382.24s(cpu)
        *  Thank you very much for using Q-Chem.  Have a nice day.  *

User input: 2 of 2

r0165.ten.osc.edu 10.25.155
Q-Chem Developer Version! Running on 10.25.155.*
                  Welcome to Q-Chem
     A Quantum Leap Into The Future Of Chemistry

 Q-Chem 5.0, Q-Chem, Inc., Pleasanton, CA (2017)

 Yihan Shao,  Zhengting Gan,  E. Epifanovsky,  A. T. B. Gilbert,  M. Wormit,
 J. Kussmann,  A. W. Lange,  A. Behn,  Jia Deng,  Xintian Feng,  D. Ghosh,
 M. Goldey,  P. R. Horn,  L. D. Jacobson,  I. Kaliman,  T. Kus,  A. Landau,
 Jie Liu,  E. I. Proynov,  R. M. Richard,  R. P. Steele,  E. J. Sundstrom,
 H. L. Woodcock III,  P. M. Zimmerman,  D. Zuev,  B. Albrecht,  E. Alguire,
 S. A. Baeppler,  Z. Benda,  Y. A. Bernard,  E. J. Berquist,  K. B. Bravaya,
 D. Casanova,  Chun-Min Chang,  Yunqing Chen,  A. Chien,  K. D. Closser,
 M. P. Coons,  S. Dasgupta,  M. Diedenhofen,  Hainam Do,  R. G. Edgar,
 Po-Tung Fang,  S. Fatehi,  Qingguo Feng,  Qinghui Ge,  A. Ghysels,
 J. Gomes,  J. Gonthier,  A. Gunina,  M. W. D. Hanson-Heine,
 P. H. P. Harbach,  A. W. Hauser,  J. E. Herr,  E. G. Hohenstein,
 Z. C. Holden,  Kerwin Hui,  T.-C. Jagau,  Hyunjun Ji,  B. Kaduk,
 K. Khistyaev,  Jaehoon Kim,  P. Klunzinger,  K. Koh,  D. Kosenkov,
 T. Kowalczyk,  C. M. Krauter,  A. Kunitsa,  Ka Un Lao,  A. Laurent,
 K. V. Lawler,  Joonho Lee,  D. Lefrancois,  S. Lehtola,  D. S. Levine,
 Yi-Pei Li,  You-Sheng Lin,  Fenglai Liu,  E. Livshits,  A. Luenser,
 P. Manohar,  E. Mansoor,  S. F. Manzer,  Shan-Ping Mao,  Yuezhi Mao,
 N. Mardirossian,  A. V. Marenich,  L. A. Martinez-Martinez,  S. A. Maurer,
 N. J. Mayhall,  S. C. McKenzie,  J.-M. Mewes,  A. F. Morrison,  K. Nanda,
 T. S. Nguyen-Beck,  R. Olivares-Amaya,  J. A. Parkhill,  T. M. Perrine,
 F. Plasser,  S. Prager,  A. Prociuk,  D. R. Rehn,  F. Rob,  M. Schneider,
 N. Sergueev,  S. M. Sharada,  S. Sharma,  D. W. Small,  T. Stauch,
 T. Stein,  Yu-Chuan Su,  A. J. W. Thom,  T. Tsuchimochi,  L. Vogt,
 O. Vydrov,  M. A. Watson,  J. Wenzel,  M. de Wergifosse,  T. A. Wesolowski,
 A. White,  J. Witte,  A. Yamada,  Jun Yang,  K. Yao,  S. Yeganeh,
 S. R. Yost,  Zhi-Qiang You,  A. Zech,  Igor Ying Zhang,  Xing Zhang,
 Yan Zhao,  Ying Zhu,  B. R. Brooks,  G. K. L. Chan,  C. J. Cramer,
 M. S. Gordon,  W. J. Hehre,  A. Klamt,  M. W. Schmidt,  C. D. Sherrill,
 D. G. Truhlar,  A. Aspuru-Guzik,  R. Baer,  A. T. Bell,  N. A. Besley,
 Jeng-Da Chai,  A. Dreuw,  B. D. Dunietz,  T. R. Furlani,  Chao-Ping Hsu,
 Yousung Jung,  Jing Kong,  D. S. Lambrecht,  WanZhen Liang,  C. Ochsenfeld,
 V. A. Rassolov,  L. V. Slipchenko,  J. E. Subotnik,  T. Van Voorhis,
 J. M. Herbert,  A. I. Krylov,  P. M. W. Gill,  M. Head-Gordon

 Contributors to earlier versions of Q-Chem not listed above:
 R. D. Adamson,  B. Austin,  J. Baker,  G. J. O. Beran,  K. Brandhorst,
 S. T. Brown,  E. F. C. Byrd,  A. K. Chakraborty,  C.-L. Cheng,
 Siu Hung Chien,  D. M. Chipman,  D. L. Crittenden,  H. Dachsel,
 R. A. DiStasio Jr.,  R. J. Doerksen,  A. D. Dutoi,  L. Fusti-Molnar,
 W. A. Goddard III,  A. Golubeva-Zadorozhnaya,  S. R. Gwaltney,  G. Hawkins,
 A. Heyden,  S. Hirata,  G. Kedziora,  F. J. Keil,  C. Kelley,  Jihan Kim,
 R. A. King,  R. Z. Khaliullin,  P. P. Korambath,  W. Kurlancheek,
 A. M. Lee,  M. S. Lee,  S. V. Levchenko,  Ching Yeh Lin,  D. Liotard,
 R. C. Lochan,  I. Lotan,  P. E. Maslen,  N. Nair,  D. P. O'Neill,
 D. Neuhauser,  E. Neuscamman,  C. M. Oana,  R. Olson,  B. Peters,
 R. Peverati,  P. A. Pieniazek,  Y. M. Rhee,  J. Ritchie,  M. A. Rohrdanz,
 E. Rosta,  N. J. Russ,  H. F. Schaefer III,  N. E. Schultz,  N. Shenvi,
 A. C. Simmonett,  A. Sodt,  D. Stuck,  K. S. Thanthiriwatte,  V. Vanovschi,
 Tao Wang,  A. Warshel,  C. F. Williams,  Q. Wu,  X. Xu,  W. Zhang

 Please cite Q-Chem as follows:
 Y. Shao et al., Mol. Phys. 113, 184-215 (2015)
 DOI: 10.1080/00268976.2014.952696

 Q-Chem 5.0.1 for Intel X86 EM64T Linux

 Parts of Q-Chem use Armadillo 5.200.1 (Boston Tea Smuggler).
 http://arma.sourceforge.net/

 Q-Chem begins on Mon Oct 16 00:17:37 2017

Host: r0165.ten.osc.edu
0

     Scratch files written to /tmp/pbstmp.1310579/03//
Processing $rem in /users/PAS0291/osu6415/.qchemrc.
molden_format             true
The previous job contains 0 fragments, simply inherited here

Checking the input file for inconsistencies... 	...done.

--------------------------------------------------------------
User input:
--------------------------------------------------------------

$molecule
read
$end

$rem
sym_ignore      true
scf_guess       read
jobtype         freq
method          b3lyp
basis           6-311++G(d,p)
dft_d           d3_op
mem_total       62000
MEM_STATIC      4000
ao2mo_disk      350000
max_scf_cycles  200
$end
--------------------------------------------------------------

             Standard Nuclear Orientation (Angstroms)
    I     Atom           X                Y                Z
 ----------------------------------------------------------------
    1      C       0.2837040211     0.8957830110     0.6845619850
    2      C       0.3787268478    -0.6518604343     0.8947923881
    3      C      -1.0372259589     1.5966479760     0.4273902996
    4      C      -0.8204818245    -1.5008023465     0.5019056745
    5      O      -2.0867248870     0.7802368163     0.2521542321
    6      O      -1.1318639415     2.8024531263     0.4229099682
    7      O      -1.0280465757    -1.5573165630    -0.8240985137
    8      O      -1.4859008294    -2.1096479873     1.3070163865
    9      C      -2.1723678082    -2.3125172340    -1.2480670292
   10      C      -3.3669484268     1.4102452573     0.0582115021
   11      C       1.3984383816     1.1452064185    -0.4234548262
   12      C       2.7447883456     1.1888074679     0.3355289291
   13      C       2.8734700446    -0.2853003349     0.8000621063
   14      C       1.6732598330    -0.9644508460     0.0700374274
   15      O       1.4876725510    -0.1275427126    -1.0809183866
   16      H       0.6230210142     1.3822739005     1.6012900298
   17      H       0.5261858656    -0.8729110524     1.9514847878
   18      H      -3.0839218053    -1.8858115897    -0.8256994396
   19      H      -3.3636839400     1.9975770147    -0.8609637285
   20      H       3.5414369766     1.4547648948    -0.3620700729
   21      H       2.7498533362     1.9137429107     1.1517022485
   22      H       3.8135352866    -0.7306409359     0.4708561514
   23      H       2.8112306125    -0.4039095755     1.8839569667
   24      H      -2.1822952195    -2.2396017989    -2.3335540871
   25      H      -2.0880825397    -3.3539925483    -0.9328732560
   26      H      -3.6030778677     2.0599586076     0.9015867139
   27      H      -4.0816957563     0.5932287956    -0.0089227733
   28      C       1.9106859265    -2.4067103057    -0.3232898580
   29      H       2.8384400007    -2.4859435609    -0.8940453517
   30      H       2.0030401783    -3.0298797630     0.5704785340
   31      H       1.0951860291    -2.7887186256    -0.9364162319
   32      C       1.1634880959     2.2427632026    -1.4334023418
   33      H       1.9994711098     2.2718505600    -2.1360977795
   34      H       0.2459586511     2.0648746315    -1.9980036434
   35      H       1.0759139126     3.2108758232    -0.9393477715
 ----------------------------------------------------------------

    2    -844.5240414041      3.64E-09 Convergence criterion met
 Total energy in the final basis set = -844.52404140

                    Orbital Energies (a.u.)
 --------------------------------------------------------------

 Alpha MOs
 -- Occupied --
-19.180 -19.166 -19.127 -19.118 -19.110 -10.312 -10.301 -10.243
-10.242 -10.234 -10.226 -10.207 -10.201 -10.179 -10.177 -10.167
-10.163  -1.123  -1.109  -1.062  -1.031  -1.021  -0.830  -0.805
 -0.783  -0.746  -0.729  -0.726  -0.677  -0.645  -0.601  -0.581
 -0.571  -0.564  -0.520  -0.512  -0.507  -0.491  -0.490  -0.477
 -0.475  -0.470  -0.462  -0.442  -0.430  -0.427  -0.416  -0.411
 -0.409  -0.397  -0.396  -0.376  -0.369  -0.367  -0.358  -0.356
 -0.353  -0.346  -0.332  -0.328  -0.322  -0.305  -0.288  -0.277
 -0.271

          Ground-State Mulliken Net Atomic Charges

     Atom                 Charge (a.u.)
  ----------------------------------------
      1 C                     0.432932
      2 C                     0.549980
      3 C                    -0.636491
      4 C                    -1.007286
      5 O                    -0.086114
      6 O                    -0.215874
      7 O                    -0.008205
      8 O                    -0.156965
      9 C                    -0.202176
     10 C                    -0.216347
     11 C                    -0.472937
     12 C                    -0.545818
     13 C                    -0.337609
     14 C                    -0.248072
     15 O                     0.060148
     16 H                     0.261826
     17 H                     0.280526
     18 H                     0.171525
     19 H                     0.189368
     20 H                     0.172715
     21 H                     0.144839
     22 H                     0.170525
     23 H                     0.147660
     24 H                     0.164404
     25 H                     0.180124
     26 H                     0.185552
     27 H                     0.142686
     28 C                    -0.021517
     29 H                     0.172803
     30 H                     0.158105
     31 H                     0.163834
     32 C                    -0.121850
     33 H                     0.151185
     34 H                     0.175357
     35 H                     0.201167
  ----------------------------------------
  Sum of atomic charges =    -0.000000

                    Cartesian Multipole Moments
 -----------------------------------------------------------------
    Charge (ESU x 10^10)
                -0.0000
    Dipole Moment (Debye)
         X       0.3242      Y      -0.3627      Z      -0.6930
       Tot       0.8467
    Quadrupole Moments (Debye-Ang)
        XX     -89.7959     XY      -1.0630     YY    -109.0174
        XZ       8.5397     YZ       4.1213     ZZ    -103.9433

 Frequency:       -36.25                  45.08                  86.99
 Force Cnst:      0.0046                 0.0046                 0.0182
 Red. Mass:       5.9698                 3.8777                 4.0836
 IR Intens:        3.017                  0.582                  2.757
 Frequency:        93.34                 112.31                 127.57
 Force Cnst:      0.0191                 0.0109                 0.0248
 Red. Mass:       3.7227                 1.4612                 2.5863
 IR Intens:        0.117                  1.446                  1.306
 Frequency:       150.64                 160.18                 169.19
 Force Cnst:      0.0362                 0.0394                 0.0213
 Red. Mass:       2.7054                 2.6065                 1.2603
 IR Intens:        0.298                  0.600                  0.035
 Frequency:       207.54                 225.12                 228.44
 Force Cnst:      0.0293                 0.1027                 0.0753
 Red. Mass:       1.1528                 3.4411                 2.4490
 IR Intens:        0.439                  1.701                  2.575
 Frequency:       245.42                 254.49                 262.84
 Force Cnst:      0.0694                 0.0572                 0.1114
 Red. Mass:       1.9543                 1.4990                 2.7361
 IR Intens:        3.890                  1.448                  1.600
 Frequency:       292.23                 312.12                 324.70
 Force Cnst:      0.1715                 0.1847                 0.2035
 Red. Mass:       3.4078                 3.2186                 3.2766
 IR Intens:        5.227                  1.902                  9.521
 Frequency:       336.63                 365.20                 392.36
 Force Cnst:      0.2689                 0.2753                 0.5829
 Red. Mass:       4.0274                 3.5030                 6.4266
 IR Intens:        2.144                  6.340                  5.952
 Frequency:       422.10                 475.72                 576.98
 Force Cnst:      0.3251                 0.4667                 0.7172
 Red. Mass:       3.0969                 3.5005                 3.6567
 IR Intens:        0.502                  9.183                 11.973
 Frequency:       594.56                 615.73                 620.16
 Force Cnst:      1.2258                 0.8469                 1.0308
 Red. Mass:       5.8857                 3.7916                 4.5490
 IR Intens:        6.647                  6.149                  3.498
 Frequency:       658.16                 727.34                 776.17
 Force Cnst:      1.0662                 1.6593                 1.7697
 Red. Mass:       4.1777                 5.3237                 4.9857
 IR Intens:        4.875                  0.729                  0.711
 Frequency:       797.36                 831.99                 844.04
 Force Cnst:      1.0577                 1.8449                 0.9018
 Red. Mass:       2.8236                 4.5237                 2.1485
 IR Intens:        3.258                  8.787                  8.460
 Frequency:       852.95                 870.43                 884.31
 Force Cnst:      1.8921                 1.9142                 1.3731
 Red. Mass:       4.4141                 4.2881                 2.9802
 IR Intens:       25.585                  4.688                 30.533
 Frequency:       890.06                 899.92                 925.15
 Force Cnst:      1.3391                 1.1127                 1.1521
 Red. Mass:       2.8689                 2.3320                 2.2847
 IR Intens:       12.159                 11.908                 14.647
 Frequency:       937.30                 977.59                1001.02
 Force Cnst:      1.5619                 1.5493                 2.3383
 Red. Mass:       3.0175                 2.7516                 3.9606
 IR Intens:       14.951                  0.458                  5.359
 Frequency:      1008.27                1055.47                1070.26
 Force Cnst:      0.9144                 3.2305                 2.0554
 Red. Mass:       1.5266                 4.9219                 3.0455
 IR Intens:        0.324                 51.866                 75.413
 Frequency:      1109.09                1129.96                1136.04
 Force Cnst:      1.1535                 1.3918                 1.6971
 Red. Mass:       1.5916                 1.8501                 2.2319
 IR Intens:       32.903                 27.364                 15.443
 Frequency:      1168.36                1169.97                1170.43
 Force Cnst:      1.4020                 1.0436                 1.1698
 Red. Mass:       1.7432                 1.2940                 1.4493
 IR Intens:       10.328                  1.085                  0.967
 Frequency:      1198.91                1207.39                1211.53
 Force Cnst:      2.2341                 1.3139                 1.3475
 Red. Mass:       2.6380                 1.5298                 1.5581
 IR Intens:       27.355                 10.012                 10.934
 Frequency:      1217.39                1236.28                1252.01
 Force Cnst:      1.3800                 1.8547                 2.6440
 Red. Mass:       1.5804                 2.0597                 2.8628
 IR Intens:       30.929                 17.359                159.327
 Frequency:      1260.13                1270.70                1284.88
 Force Cnst:      1.1667                 2.0496                 2.2857
 Red. Mass:       1.2471                 2.1545                 2.3499
 IR Intens:        1.332                139.595                131.930
 Frequency:      1302.63                1328.26                1344.32
 Force Cnst:      2.3387                 1.6230                 2.4515
 Red. Mass:       2.3393                 1.5614                 2.3024
 IR Intens:      176.908                 10.993                 11.951
 Frequency:      1367.33                1383.33                1412.98
 Force Cnst:      1.5352                 1.5892                 1.5749
 Red. Mass:       1.3937                 1.4095                 1.3389
 IR Intens:       39.376                  7.841                 16.982
 Frequency:      1426.15                1466.93                1471.28
 Force Cnst:      1.6507                 1.5283                 1.5408
 Red. Mass:       1.3775                 1.2054                 1.2081
 IR Intens:        9.240                  8.186                 24.976
 Frequency:      1482.32                1483.03                1484.81
 Force Cnst:      1.3579                 1.3699                 1.3666
 Red. Mass:       1.0489                 1.0572                 1.0521
 IR Intens:        5.261                  2.683                  5.404
 Frequency:      1485.47                1493.64                1495.23
 Force Cnst:      1.3622                 1.4102                 1.3782
 Red. Mass:       1.0478                 1.0728                 1.0462
 IR Intens:        6.597                  3.443                  9.017
 Frequency:      1498.09                1498.87                1509.61
 Force Cnst:      1.3856                 1.3866                 1.4469
 Red. Mass:       1.0478                 1.0475                 1.0776
 IR Intens:        3.339                 11.381                  6.143
 Frequency:      1513.89                1766.23                1772.84
 Force Cnst:      1.4513                20.2101                19.3658
 Red. Mass:       1.0748                10.9957                10.4579
 IR Intens:       10.506                313.012                253.709
 Frequency:      3041.71                3045.08                3046.23
 Force Cnst:      5.6566                 5.6628                 5.6302
 Red. Mass:       1.0377                 1.0365                 1.0298
 IR Intens:       15.306                 10.589                 34.783
 Frequency:      3053.07                3055.27                3063.83
 Force Cnst:      5.6539                 5.8209                 5.8741
 Red. Mass:       1.0295                 1.0584                 1.0621
 IR Intens:       35.163                 35.047                 29.030
 Frequency:      3072.29                3093.38                3103.61
 Force Cnst:      6.0306                 6.2287                 6.2529
 Red. Mass:       1.0844                 1.1048                 1.1018
 IR Intens:        5.890                  4.489                 10.553
 Frequency:      3105.18                3109.70                3113.89
 Force Cnst:      6.1977                 6.2749                 6.2972
 Red. Mass:       1.0910                 1.1013                 1.1023
 IR Intens:        4.596                 16.937                 51.700
 Frequency:      3116.00                3127.79                3129.83
 Force Cnst:      6.3295                 6.3820                 6.3546
 Red. Mass:       1.1064                 1.1072                 1.1010
 IR Intens:       24.338                 14.572                  8.673
 Frequency:      3134.64                3152.38                3159.72
 Force Cnst:      6.3673                 6.4742                 6.5080
 Red. Mass:       1.0998                 1.1057                 1.1064
 IR Intens:       12.017                 13.297                 11.690

 STANDARD THERMODYNAMIC QUANTITIES AT   298.15 K  AND     1.00 ATM

   This Molecule has  1 Imaginary Frequencies
   Zero point vibrational energy:      183.613 kcal/mol

   Atom    1 Element C  Has Mass   12.00000
   Atom    2 Element C  Has Mass   12.00000
   Atom    3 Element C  Has Mass   12.00000
   Atom    4 Element C  Has Mass   12.00000
   Atom    5 Element O  Has Mass   15.99491
   Atom    6 Element O  Has Mass   15.99491
   Atom    7 Element O  Has Mass   15.99491
   Atom    8 Element O  Has Mass   15.99491
   Atom    9 Element C  Has Mass   12.00000
   Atom   10 Element C  Has Mass   12.00000
   Atom   11 Element C  Has Mass   12.00000
   Atom   12 Element C  Has Mass   12.00000
   Atom   13 Element C  Has Mass   12.00000
   Atom   14 Element C  Has Mass   12.00000
   Atom   15 Element O  Has Mass   15.99491
   Atom   16 Element H  Has Mass    1.00783
   Atom   17 Element H  Has Mass    1.00783
   Atom   18 Element H  Has Mass    1.00783
   Atom   19 Element H  Has Mass    1.00783
   Atom   20 Element H  Has Mass    1.00783
   Atom   21 Element H  Has Mass    1.00783
   Atom   22 Element H  Has Mass    1.00783
   Atom   23 Element H  Has Mass    1.00783
   Atom   24 Element H  Has Mass    1.00783
   Atom   25 Element H  Has Mass    1.00783
   Atom   26 Element H  Has Mass    1.00783
   Atom   27 Element H  Has Mass    1.00783
   Atom   28 Element C  Has Mass   12.00000
   Atom   29 Element H  Has Mass    1.00783
   Atom   30 Element H  Has Mass    1.00783
   Atom   31 Element H  Has Mass    1.00783
   Atom   32 Element C  Has Mass   12.00000
   Atom   33 Element H  Has Mass    1.00783
   Atom   34 Element H  Has Mass    1.00783
   Atom   35 Element H  Has Mass    1.00783
   Molecular Mass:   242.115490 amu
   Principal axes and moments of inertia in amu*Bohr^2:
                             1           2           3
    Eigenvalues --     2965.04578  3541.75860  5303.22777
          X               0.99973     0.00144     0.02335
          Y              -0.00123     0.99996    -0.00870
          Z              -0.02336     0.00866     0.99969
   Rotational Symmetry Number is   1
   The Molecule is an Asymmetric Top
   Translational Enthalpy:        0.889 kcal/mol
   Rotational Enthalpy:           0.889 kcal/mol
   Vibrational Enthalpy:        192.122 kcal/mol
   gas constant (RT):             0.592 kcal/mol
   Translational Entropy:        42.354  cal/mol.K
   Rotational Entropy:           32.387  cal/mol.K
   Vibrational Entropy:          51.795  cal/mol.K

   Total Enthalpy:              194.492 kcal/mol
   Total Entropy:               126.536  cal/mol.K

 Total job time:  11079.29s(wall), 41641.73s(cpu)
        *  Thank you very much for using Q-Chem.  Have a nice day.  *
