 Q-Chem 5.0, Q-Chem, Inc., Pleasanton, CA (2017)
 Q-Chem 5.0.1 for Intel X86 EM64T Linux

User input:
--------------------------------------------------------------
$molecule
0 1
C -0.39324825 0.59153871 -0.89144305
C -0.10350258 -0.92344623 -0.55158007
C 0.71585168 1.53510340 -0.45045703
C 1.29126046 -1.16343394 -0.00730772
O 0.70534876 1.79317715 0.86203117
O 1.53504504 1.98844684 -1.21812910
O 2.10794901 -1.54935897 -1.01423137
O 1.66549521 -1.02405619 1.13043487
C 3.49846600 -1.70689429 -0.67762663
C 1.78877942 2.59224210 1.36774562
C -1.78714982 0.77373438 -0.20331794
C -2.81545352 -0.05457059 -1.03124173
C -2.52585548 -1.49857617 -0.54846034
C -1.31129511 -1.27268132 0.38949731
O -1.64197423 -0.01035930 0.98951795
H -0.46058839 0.72372225 -1.97038841
H -0.16927977 -1.50357319 -1.47130105
H 3.61928959 -2.44073391 0.12032005
H 1.80690342 3.56831870 0.88038181
H -3.83022341 0.25724002 -0.77821637
H -2.68407243 0.08106830 -2.10682378
H -3.35815492 -1.89508156 0.03591432
H -2.31207622 -2.20216227 -1.35545485
H 3.98020760 -2.04743642 -1.59131509
H 3.91756032 -0.75099163 -0.35937208
H 2.73927875 2.08405349 1.20025021
H 1.59594966 2.69348106 2.43304668
C -1.09692385 -2.33800305 1.44084144
H -2.02057791 -2.48940635 2.00425234
H -0.82682770 -3.28619293 0.96671428
H -0.30314141 -2.05311304 2.12970796
C -2.22830623 2.18777362 0.10818089
H -3.22095611 2.17177285 0.56336582
H -1.53738806 2.67226137 0.79595330
H -2.28286481 2.77497662 -0.81296814
$end

$rem
sym_ignore      true
jobtype         ts
method          b3lyp
basis           6-311++G(d,p)
dft_d           d3_op
mem_total       62000
MEM_STATIC      4000
ao2mo_disk      350000
max_scf_cycles  200
geom_opt_max_cycles 1000
geom_opt_tol_displacement 1
GEOM_OPT_TOL_GRADIENT       1
GEOM_OPT_TOL_ENERGY         1
$end

--------------------------------------------------------------

   15    -844.5262598596      3.66E-09 Convergence criterion met
 Total energy in the final basis set = -844.52625986
   13    -844.5260789262      4.03E-09 Convergence criterion met
 Total energy in the final basis set = -844.52607893
   13    -844.5258123710      4.11E-09 Convergence criterion met
 Total energy in the final basis set = -844.52581237
   13    -844.5254962124      4.76E-09 Convergence criterion met
 Total energy in the final basis set = -844.52549621
   13    -844.5261694121      4.60E-09 Convergence criterion met
 Total energy in the final basis set = -844.52616941
   12    -844.5264475773      6.81E-09 Convergence criterion met
 Total energy in the final basis set = -844.52644758
   12    -844.5268809557      5.97E-09 Convergence criterion met
 Total energy in the final basis set = -844.52688096
   12    -844.5271038074      5.67E-09 Convergence criterion met
    8    -844.5262622572      8.34E-09 Convergence criterion met
 Total energy in the final basis set = -844.52626226
    8    -844.5262621271      3.14E-09 Convergence criterion met
 Total energy in the final basis set = -844.52626213
    7    -844.5262620826      9.00E-09 Convergence criterion met
 Total energy in the final basis set = -844.52626208
    8    -844.5262622141      8.31E-09 Convergence criterion met
 Total energy in the final basis set = -844.52626221
    8    -844.5262621313      5.42E-09 Convergence criterion met
 Total energy in the final basis set = -844.52626213
    5    -844.5262621309      6.64E-09 Convergence criterion met
 Total energy in the final basis set = -844.52626213
 Final energy is   -844.526262130910
 **  OPTIMIZATION CONVERGED  **
 Total job time:  3518.53s(wall), 60287.92s(cpu)
        *  Thank you very much for using Q-Chem.  Have a nice day.  *

User input: 2 of 2

r0168.ten.osc.edu 10.25.155
Q-Chem Developer Version! Running on 10.25.155.*
                  Welcome to Q-Chem
     A Quantum Leap Into The Future Of Chemistry

 Q-Chem 5.0, Q-Chem, Inc., Pleasanton, CA (2017)

 Yihan Shao,  Zhengting Gan,  E. Epifanovsky,  A. T. B. Gilbert,  M. Wormit,
 J. Kussmann,  A. W. Lange,  A. Behn,  Jia Deng,  Xintian Feng,  D. Ghosh,
 M. Goldey,  P. R. Horn,  L. D. Jacobson,  I. Kaliman,  T. Kus,  A. Landau,
 Jie Liu,  E. I. Proynov,  R. M. Richard,  R. P. Steele,  E. J. Sundstrom,
 H. L. Woodcock III,  P. M. Zimmerman,  D. Zuev,  B. Albrecht,  E. Alguire,
 S. A. Baeppler,  Z. Benda,  Y. A. Bernard,  E. J. Berquist,  K. B. Bravaya,
 D. Casanova,  Chun-Min Chang,  Yunqing Chen,  A. Chien,  K. D. Closser,
 M. P. Coons,  S. Dasgupta,  M. Diedenhofen,  Hainam Do,  R. G. Edgar,
 Po-Tung Fang,  S. Fatehi,  Qingguo Feng,  Qinghui Ge,  A. Ghysels,
 J. Gomes,  J. Gonthier,  A. Gunina,  M. W. D. Hanson-Heine,
 P. H. P. Harbach,  A. W. Hauser,  J. E. Herr,  E. G. Hohenstein,
 Z. C. Holden,  Kerwin Hui,  T.-C. Jagau,  Hyunjun Ji,  B. Kaduk,
 K. Khistyaev,  Jaehoon Kim,  P. Klunzinger,  K. Koh,  D. Kosenkov,
 T. Kowalczyk,  C. M. Krauter,  A. Kunitsa,  Ka Un Lao,  A. Laurent,
 K. V. Lawler,  Joonho Lee,  D. Lefrancois,  S. Lehtola,  D. S. Levine,
 Yi-Pei Li,  You-Sheng Lin,  Fenglai Liu,  E. Livshits,  A. Luenser,
 P. Manohar,  E. Mansoor,  S. F. Manzer,  Shan-Ping Mao,  Yuezhi Mao,
 N. Mardirossian,  A. V. Marenich,  L. A. Martinez-Martinez,  S. A. Maurer,
 N. J. Mayhall,  S. C. McKenzie,  J.-M. Mewes,  A. F. Morrison,  K. Nanda,
 T. S. Nguyen-Beck,  R. Olivares-Amaya,  J. A. Parkhill,  T. M. Perrine,
 F. Plasser,  S. Prager,  A. Prociuk,  D. R. Rehn,  F. Rob,  M. Schneider,
 N. Sergueev,  S. M. Sharada,  S. Sharma,  D. W. Small,  T. Stauch,
 T. Stein,  Yu-Chuan Su,  A. J. W. Thom,  T. Tsuchimochi,  L. Vogt,
 O. Vydrov,  M. A. Watson,  J. Wenzel,  M. de Wergifosse,  T. A. Wesolowski,
 A. White,  J. Witte,  A. Yamada,  Jun Yang,  K. Yao,  S. Yeganeh,
 S. R. Yost,  Zhi-Qiang You,  A. Zech,  Igor Ying Zhang,  Xing Zhang,
 Yan Zhao,  Ying Zhu,  B. R. Brooks,  G. K. L. Chan,  C. J. Cramer,
 M. S. Gordon,  W. J. Hehre,  A. Klamt,  M. W. Schmidt,  C. D. Sherrill,
 D. G. Truhlar,  A. Aspuru-Guzik,  R. Baer,  A. T. Bell,  N. A. Besley,
 Jeng-Da Chai,  A. Dreuw,  B. D. Dunietz,  T. R. Furlani,  Chao-Ping Hsu,
 Yousung Jung,  Jing Kong,  D. S. Lambrecht,  WanZhen Liang,  C. Ochsenfeld,
 V. A. Rassolov,  L. V. Slipchenko,  J. E. Subotnik,  T. Van Voorhis,
 J. M. Herbert,  A. I. Krylov,  P. M. W. Gill,  M. Head-Gordon

 Contributors to earlier versions of Q-Chem not listed above:
 R. D. Adamson,  B. Austin,  J. Baker,  G. J. O. Beran,  K. Brandhorst,
 S. T. Brown,  E. F. C. Byrd,  A. K. Chakraborty,  C.-L. Cheng,
 Siu Hung Chien,  D. M. Chipman,  D. L. Crittenden,  H. Dachsel,
 R. A. DiStasio Jr.,  R. J. Doerksen,  A. D. Dutoi,  L. Fusti-Molnar,
 W. A. Goddard III,  A. Golubeva-Zadorozhnaya,  S. R. Gwaltney,  G. Hawkins,
 A. Heyden,  S. Hirata,  G. Kedziora,  F. J. Keil,  C. Kelley,  Jihan Kim,
 R. A. King,  R. Z. Khaliullin,  P. P. Korambath,  W. Kurlancheek,
 A. M. Lee,  M. S. Lee,  S. V. Levchenko,  Ching Yeh Lin,  D. Liotard,
 R. C. Lochan,  I. Lotan,  P. E. Maslen,  N. Nair,  D. P. O'Neill,
 D. Neuhauser,  E. Neuscamman,  C. M. Oana,  R. Olson,  B. Peters,
 R. Peverati,  P. A. Pieniazek,  Y. M. Rhee,  J. Ritchie,  M. A. Rohrdanz,
 E. Rosta,  N. J. Russ,  H. F. Schaefer III,  N. E. Schultz,  N. Shenvi,
 A. C. Simmonett,  A. Sodt,  D. Stuck,  K. S. Thanthiriwatte,  V. Vanovschi,
 Tao Wang,  A. Warshel,  C. F. Williams,  Q. Wu,  X. Xu,  W. Zhang

 Please cite Q-Chem as follows:
 Y. Shao et al., Mol. Phys. 113, 184-215 (2015)
 DOI: 10.1080/00268976.2014.952696

 Q-Chem 5.0.1 for Intel X86 EM64T Linux

 Parts of Q-Chem use Armadillo 5.200.1 (Boston Tea Smuggler).
 http://arma.sourceforge.net/

 Q-Chem begins on Mon Oct 16 00:08:52 2017

Host: r0168.ten.osc.edu
0

     Scratch files written to /tmp/pbstmp.1310582/08//
Processing $rem in /users/PAS0291/osu6415/.qchemrc.
molden_format             true
The previous job contains 0 fragments, simply inherited here

Checking the input file for inconsistencies... 	...done.

--------------------------------------------------------------
User input:
--------------------------------------------------------------

$molecule
read
$end

$rem
sym_ignore      true
scf_guess       read
jobtype         freq
method          b3lyp
basis           6-311++G(d,p)
dft_d           d3_op
mem_total       62000
MEM_STATIC      4000
ao2mo_disk      350000
max_scf_cycles  200
$end
--------------------------------------------------------------

             Standard Nuclear Orientation (Angstroms)
    I     Atom           X                Y                Z
 ----------------------------------------------------------------
    1      C      -0.3982427113     0.5500458362    -0.8967411770
    2      C      -0.1183474865    -0.9615111885    -0.5304893162
    3      C       0.7243065322     1.4954611678    -0.4971445720
    4      C       1.2718895482    -1.1917985294     0.0315499417
    5      O       0.7535076063     1.7580506605     0.8157146012
    6      O       1.5237610293     1.9422120698    -1.2883208958
    7      O       2.1209587717    -1.4675984491    -0.9850761038
    8      O       1.6195442188    -1.1241743729     1.1836121983
    9      C       3.5118181613    -1.5896980832    -0.6364279600
   10      C       1.8425572348     2.5722751252     1.2837799132
   11      C      -1.7823328022     0.7626441792    -0.1971286899
   12      C      -2.8307865899    -0.0490198334    -1.0142201087
   13      C      -2.5515054231    -1.4977556146    -0.5405504122
   14      C      -1.3360734228    -1.2895067128     0.4020413381
   15      O      -1.6458948619    -0.0189564778     0.9982124098
   16      H      -0.4797359218     0.6597296260    -1.9771874489
   17      H      -0.1740068405    -1.5552656790    -1.4423941108
   18      H       3.6528079895    -2.3698372403     0.1127065406
   19      H       1.8317800708     3.5469934891     0.7934426189
   20      H      -3.8380101838     0.2736561844    -0.7448329067
   21      H      -2.7130630378     0.0896885698    -2.0909647292
   22      H      -3.3880827644    -1.8937269474     0.0379476400
   23      H      -2.3405666873    -2.1965099517    -1.3525239183
   24      H       4.0206517574    -1.8465933207    -1.5626416373
   25      H       3.8855584550    -0.6408036429    -0.2480349199
   26      H       2.7948319430     2.0782572174     1.0860504483
   27      H       1.6836694000     2.6741537825     2.3545603579
   28      C      -1.1500684932    -2.3563324822     1.4579301841
   29      H      -2.0829810649    -2.4919533558     2.0099139059
   30      H      -0.8892866380    -3.3094496959     0.9884203740
   31      H      -0.3591313294    -2.0829539110     2.1539427622
   32      C      -2.1923941864     2.1864142709     0.1128736179
   33      H      -3.1839189690     2.1925303088     0.5706547582
   34      H      -1.4893196613     2.6563085041     0.7985494828
   35      H      -2.2363689329     2.7738640067    -0.8087029163
 ----------------------------------------------------------------

    2    -844.5262621323      3.35E-09 Convergence criterion met
 Total energy in the final basis set = -844.52626213

                    Orbital Energies (a.u.)
 --------------------------------------------------------------

 Alpha MOs
 -- Occupied --
-19.174 -19.170 -19.124 -19.119 -19.115 -10.308 -10.305 -10.241
-10.239 -10.229 -10.226 -10.205 -10.205 -10.177 -10.176 -10.166
-10.161  -1.117  -1.113  -1.059  -1.029  -1.025  -0.831  -0.804
 -0.783  -0.747  -0.726  -0.723  -0.672  -0.643  -0.604  -0.581
 -0.567  -0.558  -0.518  -0.511  -0.504  -0.494  -0.484  -0.481
 -0.478  -0.470  -0.457  -0.438  -0.431  -0.427  -0.420  -0.411
 -0.406  -0.397  -0.395  -0.371  -0.369  -0.367  -0.359  -0.355
 -0.352  -0.348  -0.332  -0.327  -0.319  -0.308  -0.288  -0.277
 -0.269

          Ground-State Mulliken Net Atomic Charges

     Atom                 Charge (a.u.)
  ----------------------------------------
      1 C                     0.580964
      2 C                     0.558721
      3 C                    -1.050522
      4 C                    -0.815415
      5 O                     0.009862
      6 O                    -0.147661
      7 O                     0.042925
      8 O                    -0.150290
      9 C                    -0.178096
     10 C                    -0.215818
     11 C                    -0.481234
     12 C                    -0.293572
     13 C                    -0.499816
     14 C                    -0.725747
     15 O                     0.047152
     16 H                     0.277260
     17 H                     0.300348
     18 H                     0.171161
     19 H                     0.182625
     20 H                     0.170448
     21 H                     0.138060
     22 H                     0.173242
     23 H                     0.138739
     24 H                     0.159526
     25 H                     0.173344
     26 H                     0.177694
     27 H                     0.166243
     28 C                     0.049215
     29 H                     0.162495
     30 H                     0.147669
     31 H                     0.203697
     32 C                     0.037786
     33 H                     0.163804
     34 H                     0.165792
     35 H                     0.159396
  ----------------------------------------
  Sum of atomic charges =    -0.000000

                    Cartesian Multipole Moments
 -----------------------------------------------------------------
    Charge (ESU x 10^10)
                -0.0000
    Dipole Moment (Debye)
         X      -0.6056      Y      -0.8262      Z      -0.9292
       Tot       1.3831
    Quadrupole Moments (Debye-Ang)
        XX     -93.2106     XY      -1.9431     YY     -96.3220
        XZ       5.1145     YZ       6.8325     ZZ    -107.9229

 Frequency:       -46.10                  38.68                  58.21
 Force Cnst:      0.0078                 0.0035                 0.0112
 Red. Mass:       6.1975                 3.9390                 5.6171
 IR Intens:        0.419                  0.214                  4.184
 Frequency:        80.17                 108.06                 136.22
 Force Cnst:      0.0116                 0.0093                 0.0358
 Red. Mass:       3.0595                 1.3494                 3.2751
 IR Intens:        2.315                  0.340                  1.637
 Frequency:       143.96                 154.87                 175.99
 Force Cnst:      0.0326                 0.0155                 0.0454
 Red. Mass:       2.6674                 1.0949                 2.4854
 IR Intens:        0.424                  0.054                  1.120
 Frequency:       194.17                 213.82                 227.72
 Force Cnst:      0.0288                 0.1291                 0.0769
 Red. Mass:       1.2962                 4.7935                 2.5185
 IR Intens:        0.550                  2.159                  2.469
 Frequency:       236.57                 239.07                 276.04
 Force Cnst:      0.0572                 0.0843                 0.0902
 Red. Mass:       1.7348                 2.5030                 2.0099
 IR Intens:        3.604                  0.818                  3.868
 Frequency:       282.83                 306.03                 322.32
 Force Cnst:      0.1555                 0.1807                 0.1632
 Red. Mass:       3.2992                 3.2757                 2.6656
 IR Intens:        0.825                 11.202                  3.178
 Frequency:       341.28                 359.78                 394.93
 Force Cnst:      0.2372                 0.3934                 0.2795
 Red. Mass:       3.4565                 5.1581                 3.0415
 IR Intens:        5.606                 10.353                  0.087
 Frequency:       411.46                 458.15                 577.36
 Force Cnst:      0.5061                 0.3713                 0.7406
 Red. Mass:       5.0736                 3.0023                 3.7707
 IR Intens:        2.093                 10.581                 13.764
 Frequency:       600.53                 610.68                 644.57
 Force Cnst:      0.9403                 0.8148                 0.9925
 Red. Mass:       4.4255                 3.7084                 4.0543
 IR Intens:        2.163                  4.601                  0.863
 Frequency:       709.59                 733.54                 758.86
 Force Cnst:      1.6058                 2.5328                 1.7027
 Red. Mass:       5.4129                 7.9891                 5.0184
 IR Intens:        3.695                  0.310                  1.928
 Frequency:       807.93                 833.73                 850.31
 Force Cnst:      1.0378                 1.9016                 0.9262
 Red. Mass:       2.6986                 4.6433                 2.1742
 IR Intens:        5.791                 26.928                  1.501
 Frequency:       861.16                 875.99                 886.22
 Force Cnst:      1.7754                 1.9965                 1.3979
 Red. Mass:       4.0633                 4.4159                 3.0210
 IR Intens:        5.373                  2.220                 13.943
 Frequency:       888.25                 909.75                 927.73
 Force Cnst:      1.0252                 1.1876                 1.2006
 Red. Mass:       2.2054                 2.4355                 2.3676
 IR Intens:       13.427                 12.539                 19.940
 Frequency:       957.41                 970.96                 985.45
 Force Cnst:      1.9859                 1.8384                 1.8798
 Red. Mass:       3.6771                 3.3097                 3.2854
 IR Intens:        6.663                  2.651                  3.655
 Frequency:      1010.36                1053.20                1062.77
 Force Cnst:      0.9172                 2.7688                 2.8986
 Red. Mass:       1.5250                 4.2365                 4.3557
 IR Intens:        0.808                 62.036                 45.789
 Frequency:      1106.87                1130.43                1140.63
 Force Cnst:      1.0289                 1.2750                 1.9501
 Red. Mass:       1.4255                 1.6934                 2.5439
 IR Intens:       10.625                 28.783                 24.815
 Frequency:      1166.00                1170.29                1172.87
 Force Cnst:      1.4988                 1.1480                 1.0552
 Red. Mass:       1.8711                 1.4227                 1.3019
 IR Intens:       58.959                  4.420                  2.113
 Frequency:      1186.05                1204.48                1208.70
 Force Cnst:      2.2183                 1.5740                 1.5487
 Red. Mass:       2.6765                 1.8415                 1.7992
 IR Intens:      236.392                  4.408                 52.910
 Frequency:      1209.94                1217.03                1239.89
 Force Cnst:      1.4141                 1.5065                 1.8983
 Red. Mass:       1.6395                 1.7263                 2.0958
 IR Intens:       49.167                  4.480                 15.580
 Frequency:      1252.96                1259.45                1286.18
 Force Cnst:      2.1038                 1.2441                 1.5543
 Red. Mass:       2.2745                 1.3312                 1.5947
 IR Intens:      135.952                 12.550                 14.767
 Frequency:      1301.91                1332.62                1341.13
 Force Cnst:      2.3849                 1.7618                 2.2054
 Red. Mass:       2.3881                 1.6838                 2.0811
 IR Intens:      130.424                 17.799                 16.624
 Frequency:      1362.61                1408.36                1414.40
 Force Cnst:      1.5569                 1.5944                 1.6964
 Red. Mass:       1.4232                 1.3643                 1.4393
 IR Intens:        7.137                 27.552                 54.305
 Frequency:      1424.64                1467.93                1469.39
 Force Cnst:      1.6330                 1.5387                 1.5233
 Red. Mass:       1.3656                 1.2120                 1.1975
 IR Intens:       14.918                 16.687                 15.935
 Frequency:      1482.75                1483.03                1485.40
 Force Cnst:      1.3546                 1.3709                 1.3617
 Red. Mass:       1.0457                 1.0579                 1.0475
 IR Intens:       11.075                  1.200                  6.102
 Frequency:      1489.09                1493.67                1496.08
 Force Cnst:      1.3822                 1.3784                 1.3952
 Red. Mass:       1.0580                 1.0486                 1.0580
 IR Intens:        2.461                  3.393                  6.271
 Frequency:      1496.67                1509.94                1510.45
 Force Cnst:      1.3980                 1.4118                 1.4149
 Red. Mass:       1.0593                 1.0510                 1.0526
 IR Intens:        6.150                  3.148                 13.902
 Frequency:      1517.59                1764.97                1795.15
 Force Cnst:      1.4893                19.2408                20.2554
 Red. Mass:       1.0976                10.4833                10.6682
 IR Intens:        9.550                227.169                254.630
 Frequency:      3039.28                3041.29                3049.56
 Force Cnst:      5.6588                 5.6607                 5.6434
 Red. Mass:       1.0398                 1.0387                 1.0300
 IR Intens:       17.818                 14.463                 14.128
 Frequency:      3050.01                3055.59                3065.30
 Force Cnst:      5.6457                 5.8220                 5.8707
 Red. Mass:       1.0301                 1.0584                 1.0605
 IR Intens:       52.657                 38.654                 35.183
 Frequency:      3090.08                3098.82                3100.07
 Force Cnst:      6.2160                 6.2277                 6.1825
 Red. Mass:       1.1049                 1.1007                 1.0919
 IR Intens:        1.324                 14.934                  3.083
 Frequency:      3102.25                3109.41                3118.95
 Force Cnst:      6.2244                 6.2679                 6.2485
 Red. Mass:       1.0977                 1.1003                 1.0902
 IR Intens:        9.711                 34.246                 30.384
 Frequency:      3123.07                3123.42                3141.66
 Force Cnst:      6.3613                 6.3633                 6.3897
 Red. Mass:       1.1070                 1.1071                 1.0988
 IR Intens:       31.780                  6.576                  9.272
 Frequency:      3148.19                3158.39                3161.28
 Force Cnst:      6.4154                 6.4999                 6.5113
 Red. Mass:       1.0986                 1.1059                 1.1058
 IR Intens:        3.483                 12.860                 10.491

 STANDARD THERMODYNAMIC QUANTITIES AT   298.15 K  AND     1.00 ATM

   This Molecule has  1 Imaginary Frequencies
   Zero point vibrational energy:      183.632 kcal/mol

   Atom    1 Element C  Has Mass   12.00000
   Atom    2 Element C  Has Mass   12.00000
   Atom    3 Element C  Has Mass   12.00000
   Atom    4 Element C  Has Mass   12.00000
   Atom    5 Element O  Has Mass   15.99491
   Atom    6 Element O  Has Mass   15.99491
   Atom    7 Element O  Has Mass   15.99491
   Atom    8 Element O  Has Mass   15.99491
   Atom    9 Element C  Has Mass   12.00000
   Atom   10 Element C  Has Mass   12.00000
   Atom   11 Element C  Has Mass   12.00000
   Atom   12 Element C  Has Mass   12.00000
   Atom   13 Element C  Has Mass   12.00000
   Atom   14 Element C  Has Mass   12.00000
   Atom   15 Element O  Has Mass   15.99491
   Atom   16 Element H  Has Mass    1.00783
   Atom   17 Element H  Has Mass    1.00783
   Atom   18 Element H  Has Mass    1.00783
   Atom   19 Element H  Has Mass    1.00783
   Atom   20 Element H  Has Mass    1.00783
   Atom   21 Element H  Has Mass    1.00783
   Atom   22 Element H  Has Mass    1.00783
   Atom   23 Element H  Has Mass    1.00783
   Atom   24 Element H  Has Mass    1.00783
   Atom   25 Element H  Has Mass    1.00783
   Atom   26 Element H  Has Mass    1.00783
   Atom   27 Element H  Has Mass    1.00783
   Atom   28 Element C  Has Mass   12.00000
   Atom   29 Element H  Has Mass    1.00783
   Atom   30 Element H  Has Mass    1.00783
   Atom   31 Element H  Has Mass    1.00783
   Atom   32 Element C  Has Mass   12.00000
   Atom   33 Element H  Has Mass    1.00783
   Atom   34 Element H  Has Mass    1.00783
   Atom   35 Element H  Has Mass    1.00783
   Molecular Mass:   242.115490 amu
   Principal axes and moments of inertia in amu*Bohr^2:
                             1           2           3
    Eigenvalues --     2880.56969  3779.92664  5164.87370
          X               0.99973    -0.00295     0.02306
          Y               0.00278     0.99997     0.00750
          Z              -0.02308    -0.00744     0.99971
   Rotational Symmetry Number is   1
   The Molecule is an Asymmetric Top
   Translational Enthalpy:        0.889 kcal/mol
   Rotational Enthalpy:           0.889 kcal/mol
   Vibrational Enthalpy:        192.243 kcal/mol
   gas constant (RT):             0.592 kcal/mol
   Translational Entropy:        42.354  cal/mol.K
   Rotational Entropy:           32.397  cal/mol.K
   Vibrational Entropy:          53.587  cal/mol.K

   Total Enthalpy:              194.613 kcal/mol
   Total Entropy:               128.338  cal/mol.K

 Total job time:  10940.45s(wall), 41333.22s(cpu)
        *  Thank you very much for using Q-Chem.  Have a nice day.  *
