 Q-Chem 5.0, Q-Chem, Inc., Pleasanton, CA (2017)
 Q-Chem 5.0.1 for Intel X86 EM64T Linux

User input:
--------------------------------------------------------------
$molecule
0  1
--
0  1
C        +0.22270000        +1.04488000        +0.58595000
C        +0.62626000        -0.41353000        +0.99871000
C        -1.18200000        +1.23223000        +0.04377000
C        -0.37457000        -1.51643000        +0.72333000
O        -2.09172000        +0.78832000        +0.93966000
O        -1.47336000        +1.75939000        -0.99882000
O        -0.91364000        -1.42792000        -0.50620000
O        -0.62208000        -2.40877000        +1.49911000
C        -1.86134000        -2.44741000        -0.86560000
C        -3.47068000        +0.87492000        +0.53920000
C        +1.33008000        +1.39974000        -0.43491000
C        +2.63070000        +1.71700000        +0.32855000
C        +3.04336000        +0.29351000        +0.80300000
C        +1.94423000        -0.59299000        +0.15262000
O        +1.62840000        +0.13663000        -1.04376000
H        +0.27811000        +1.68786000        +1.46900000
H        +0.83923000        -0.48042000        +2.06408000
H        -2.68749000        -2.46677000        -0.15296000
H        -3.76076000        +1.91522000        +0.38406000
H        +3.37234000        +2.13782000        -0.35195000
H        +2.48236000        +2.42488000        +1.14651000
H        +4.02182000        +0.00994000        +0.41161000
H        +3.07359000        +0.18738000        +1.88928000
H        -2.21148000        -2.17765000        -1.85937000
H        -1.38062000        -3.42697000        -0.88096000
H        -4.03855000        +0.43623000        +1.35671000
H        -3.63120000        +0.31700000        -0.38495000
H        +1.03270000        +2.19943000        -1.08064000
H        +2.24339000        -1.61496000        +0.04786000
--
0  1
C        +0.25348000        +2.78827000        +6.22241000
C        +0.65704000        +1.32986000        +6.63517000
C        -1.15122000        +2.97562000        +5.68023000
C        -0.34379000        +0.22696000        +6.35979000
O        -2.06094000        +2.53171000        +6.57612000
O        -1.44258000        +3.50278000        +4.63764000
O        -0.88286000        +0.31547000        +5.13026000
O        -0.59130000        -0.66538000        +7.13557000
C        -1.83056000        -0.70402000        +4.77086000
C        -3.43990000        +2.61831000        +6.17566000
C        +1.36086000        +3.14313000        +5.20155000
C        +2.66148000        +3.46039000        +5.96501000
C        +3.07414000        +2.03690000        +6.43946000
C        +1.97501000        +1.15040000        +5.78908000
O        +1.65918000        +1.88002000        +4.59270000
H        +0.30889000        +3.43125000        +7.10546000
H        +0.87001000        +1.26297000        +7.70054000
H        -2.65671000        -0.72338000        +5.48350000
H        -3.72998000        +3.65861000        +6.02052000
H        +3.40312000        +3.88121000        +5.28451000
H        +2.51314000        +4.16827000        +6.78297000
H        +4.05260000        +1.75333000        +6.04807000
H        +3.10437000        +1.93077000        +7.52574000
H        -2.18070000        -0.43426000        +3.77709000
H        -1.34984000        -1.68358000        +4.75550000
H        -4.00777000        +2.17962000        +6.99317000
H        -3.60042000        +2.06039000        +5.25151000
H        +1.06348000        +3.94282000        +4.55582000
H        +2.27417000        +0.12843000        +5.68432000
$end

$rem
JOBTYPE                   SP
METHOD                    B3LYP
DFT_D                     d3_op
BASIS                     6-311++G(d,p)
SYMMETRY                  False
THRESH                    12
SCF_CONVERGENCE           8
MAX_SUB_FILE_NUM          128
MEM_STATIC                400
MEM_TOTAL                 4000
$end
--------------------------------------------------------------

             Standard Nuclear Orientation (Angstroms)
    I     Atom           X                Y                Z
 ----------------------------------------------------------------
    1      C      -2.1986115708     0.6005505854     0.8584218185
    2      C      -2.2835249108     0.6813486716    -0.7056921842
    3      C      -2.7121277241    -0.6746437661     1.5006225590
    4      C      -2.9624047205    -0.4653103561    -1.4255383632
    5      O      -2.0631217717    -1.7469224990     0.9943863975
    6      O      -3.5282697784    -0.7431779652     2.3832308720
    7      O      -4.1141576643    -0.8341843552    -0.8359863000
    8      O      -2.5460591701    -0.9588583917    -2.4465345450
    9      C      -4.8413395441    -1.9040970880    -1.4630084431
   10      C      -2.4761796323    -3.0316423992     1.4926598514
   11      C      -2.9857253306     1.8639859678     1.2809785449
   12      C      -2.0988413990     3.1040693620     1.0556620325
   13      C      -2.1135392636     3.1930237708    -0.4979099626
   14      C      -3.0766181783     2.0329411864    -0.8769225651
   15      O      -3.9701779410     1.9950985185     0.2471494613
   16      H      -1.1487927967     0.6702972907     1.1572307705
   17      H      -1.2943666765     0.7546044458    -1.1540707175
   18      H      -4.2173357214    -2.7963167688    -1.5359308141
   19      H      -2.2847706584    -3.1074587061     2.5641323934
   20      H      -2.5611700234     3.9832392505     1.5067852555
   21      H      -1.0980343237     2.9941679661     1.4781123760
   22      H      -2.5305015928     4.1418181177    -0.8398364926
   23      H      -1.1266874914     3.0782770197    -0.9508320653
   24      H      -5.7012628964    -2.0825583805    -0.8214239317
   25      H      -5.1634405850    -1.6114423145    -2.4637429457
   26      H      -1.8827843110    -3.7601388311     0.9445514731
   27      H      -3.5409454248    -3.1837995560     1.3076824848
   28      H      -3.3370816805     1.7936056096     2.2891955424
   29      H      -3.5057433233     2.1508536748    -1.8499807849
   30      C       3.6901723197     0.3001620435     0.6534134086
   31      C       3.6052589797     0.3809601298    -0.9107005940
   32      C       3.1766561663    -0.9750323079     1.2956141492
   33      C       2.9263791699    -0.7656988979    -1.6305467730
   34      O       3.8256621187    -2.0473110408     0.7893779877
   35      O       2.3605141120    -1.0435665071     2.1782224622
   36      O       1.7746262261    -1.1345728970    -1.0409947099
   37      O       3.3427247203    -1.2592469336    -2.6515429548
   38      C       1.0474443463    -2.2044856298    -1.6680168529
   39      C       3.4126042581    -3.3320309411     1.2876514416
   40      C       2.9030585598     1.5635974260     1.0759701351
   41      C       3.7899424914     2.8036808202     0.8506536227
   42      C       3.7752446268     2.8926352290    -0.7029183724
   43      C       2.8121657121     1.7325526446    -1.0819309750
   44      O       1.9186059494     1.6947099767     0.0421410515
   45      H       4.7399910937     0.3699087489     0.9522223607
   46      H       4.5944172139     0.4542159040    -1.3590791273
   47      H       1.6714481690    -3.0967053106    -1.7409392239
   48      H       3.6040132320    -3.4078472479     2.3591239836
   49      H       3.3276138670     3.6828507086     1.3017768457
   50      H       4.7907495668     2.6937794242     1.2731039662
   51      H       3.3582822977     3.8414295759    -1.0448449024
   52      H       4.7620963990     2.7778884779    -1.1558404751
   53      H       0.1875209940    -2.3829469223    -1.0264323415
   54      H       0.7253433054    -1.9118308564    -2.6687513555
   55      H       4.0059995794    -4.0605273730     0.7395430633
   56      H       2.3478384656    -3.4841880978     1.1026740750
   57      H       2.5517022099     1.4932170678     2.0841871325
   58      H       2.3830405671     1.8504651330    -2.0549891947
 ----------------------------------------------------------------

   15   -1531.7252198660      5.36E-09 Convergence criterion met
 Total energy in the final basis set = -1531.72521987

                    Orbital Energies (a.u.)
 --------------------------------------------------------------

 Alpha MOs
 -- Occupied --
-19.179 -19.173 -19.171 -19.171 -19.144 -19.129 -19.123 -19.116
-19.114 -19.113 -10.313 -10.307 -10.303 -10.303 -10.247 -10.238
-10.235 -10.234 -10.229 -10.228 -10.223 -10.223 -10.211 -10.209
-10.199 -10.197 -10.187 -10.185 -10.174 -10.171  -1.122  -1.116
 -1.114  -1.109  -1.072  -1.058  -1.035  -1.027  -1.026  -1.025
 -0.837  -0.825  -0.790  -0.782  -0.778  -0.771  -0.742  -0.735
 -0.728  -0.725  -0.661  -0.652  -0.614  -0.604  -0.601  -0.588
 -0.582  -0.575  -0.569  -0.562  -0.554  -0.546  -0.523  -0.513
 -0.509  -0.501  -0.500  -0.491  -0.489  -0.486  -0.483  -0.480
 -0.476  -0.474  -0.472  -0.468  -0.465  -0.455  -0.443  -0.433
 -0.429  -0.426  -0.423  -0.420  -0.419  -0.413  -0.400  -0.395
 -0.389  -0.377  -0.377  -0.375  -0.373  -0.371  -0.366  -0.364
 -0.361  -0.360  -0.356  -0.348  -0.341  -0.340  -0.330  -0.327
 -0.322  -0.316  -0.312  -0.310  -0.294  -0.286  -0.285  -0.280
 -0.278  -0.269

          Ground-State Mulliken Net Atomic Charges

     Atom                 Charge (a.u.)
  ----------------------------------------
      1 C                    -0.112009
      2 C                     0.767059
      3 C                    -0.609753
      4 C                    -0.744488
      5 O                     0.042063
      6 O                    -0.191005
      7 O                     0.004676
      8 O                    -0.139064
      9 C                    -0.199285
     10 C                    -0.231539
     11 C                    -0.356389
     12 C                    -0.276014
     13 C                    -0.435862
     14 C                    -0.146396
     15 O                    -0.090838
     16 H                     0.212423
     17 H                     0.342137
     18 H                     0.185917
     19 H                     0.184708
     20 H                     0.198570
     21 H                     0.115253
     22 H                     0.191283
     23 H                     0.088948
     24 H                     0.172535
     25 H                     0.175232
     26 H                     0.133703
     27 H                     0.183665
     28 H                     0.284090
     29 H                     0.264494
     30 C                    -0.020002
     31 C                     0.279549
     32 C                    -0.443859
     33 C                    -0.557289
     34 O                     0.009278
     35 O                    -0.136264
     36 O                    -0.017236
     37 O                    -0.153058
     38 C                    -0.299825
     39 C                    -0.169726
     40 C                    -0.203504
     41 C                    -0.607582
     42 C                    -0.447527
     43 C                    -0.096865
     44 O                     0.107500
     45 H                     0.246724
     46 H                     0.286014
     47 H                     0.206309
     48 H                     0.170382
     49 H                     0.184700
     50 H                     0.134251
     51 H                     0.180597
     52 H                     0.130914
     53 H                     0.127520
     54 H                     0.200572
     55 H                     0.166891
     56 H                     0.182293
     57 H                     0.269006
     58 H                     0.256124
  ----------------------------------------
  Sum of atomic charges =     0.000000

                    Cartesian Multipole Moments
 -----------------------------------------------------------------
    Charge (ESU x 10^10)
                 0.0000
    Dipole Moment (Debye)
         X       3.1548      Y      -0.0136      Z       0.5942
       Tot       3.2103
    Quadrupole Moments (Debye-Ang)
        XX    -177.5812     XY      14.1000     YY    -153.1461
        XZ      17.6128     YZ      -6.6320     ZZ    -193.2675

 Total job time:  6824.59s(wall), 6808.36s(cpu)
        *  Thank you very much for using Q-Chem.  Have a nice day.  *
