 Q-Chem 5.0, Q-Chem, Inc., Pleasanton, CA (2017)
 Q-Chem 5.0.1 for Intel X86 EM64T Linux

User input:
--------------------------------------------------------------
$molecule
0  1
--
0  1
C        -0.54444000        -0.68370000        -0.06689000
C        -0.55709000        +0.71878000        +0.05493000
C        +0.74969000        -1.43776000        -0.09374000
C        +0.72843000        +1.48436000        +0.06598000
O        +1.53645000        -1.09176000        +0.94813000
O        +1.04702000        -2.28405000        -0.90088000
O        +1.53784000        +1.08301000        -0.93877000
O        +1.01035000        +2.37097000        +0.83478000
C        +2.83449000        +1.70121000        -0.99358000
C        +2.82316000        -1.73208000        +1.00475000
C        -1.74320000        -1.41616000        -0.12552000
C        -2.93952000        -0.70056000        -0.05285000
C        -2.95313000        +0.68255000        +0.06934000
C        -1.77161000        +1.42404000        +0.12810000
H        +2.73835000        +2.77989000        -1.12464000
H        +2.70778000        -2.81319000        +1.09555000
H        -3.90354000        +1.20325000        +0.11710000
H        +3.38998000        +1.50093000        -0.07544000
H        +3.33184000        +1.25269000        -1.85067000
H        +3.31095000        -1.32281000        +1.88650000
H        +3.39889000        -1.50934000        +0.10459000
H        -3.87892000        -1.24211000        -0.08988000
H        -1.78886000        +2.45164000        +0.22176000
H        -1.73878000        -2.44393000        -0.21875000
--
0  1
C        -0.50384000        -1.19813000        +5.81050000
C        -0.51649000        +0.20435000        +5.93232000
C        +0.79029000        -1.95219000        +5.78365000
C        +0.76903000        +0.96993000        +5.94337000
O        +1.57705000        -1.60619000        +6.82552000
O        +1.08762000        -2.79848000        +4.97651000
O        +1.57844000        +0.56858000        +4.93862000
O        +1.05095000        +1.85654000        +6.71217000
C        +2.87509000        +1.18678000        +4.88381000
C        +2.86376000        -2.24651000        +6.88214000
C        -1.70260000        -1.93059000        +5.75187000
C        -2.89892000        -1.21499000        +5.82454000
C        -2.91253000        +0.16812000        +5.94673000
C        -1.73101000        +0.90961000        +6.00549000
H        +2.77895000        +2.26546000        +4.75275000
H        +2.74838000        -3.32762000        +6.97294000
H        -3.86294000        +0.68882000        +5.99449000
H        +3.43058000        +0.98650000        +5.80195000
H        +3.37244000        +0.73826000        +4.02672000
H        +3.35155000        -1.83724000        +7.76389000
H        +3.43949000        -2.02377000        +5.98198000
H        -3.83832000        -1.75654000        +5.78751000
H        -1.74826000        +1.93721000        +6.09915000
H        -1.69818000        -2.95836000        +5.65864000
$end

$rem
JOBTYPE                   SP
METHOD                    B3LYP
DFT_D                     d3_op
BASIS                     6-311++G(d,p)
SYMMETRY                  False
THRESH                    12
SCF_CONVERGENCE           8
MAX_SUB_FILE_NUM          128
MEM_STATIC                400
MEM_TOTAL                 4000
$end
--------------------------------------------------------------

             Standard Nuclear Orientation (Angstroms)
    I     Atom           X                Y                Z
 ----------------------------------------------------------------
    1      C      -2.9315329410     0.8093172943     0.8106317127
    2      C      -2.9860209524     0.8308522902    -0.5959661637
    3      C      -2.8514629249    -0.4890984448     1.5534676462
    4      C      -3.0582963727    -0.4503059877    -1.3655155381
    5      O      -1.8534377838    -1.2630727867     1.0748133554
    6      O      -3.5436341427    -0.7994114464     2.4919194132
    7      O      -3.9971659237    -1.2723054775    -0.8472590976
    8      O      -2.4036072115    -0.7193833909    -2.3430579013
    9      C      -4.1162610888    -2.5660794242    -1.4624354262
   10      C      -1.7048380371    -2.5525818751     1.6944282173
   11      C      -2.9097627070     2.0034058380     1.5526824339
   12      C      -2.9386242584     3.2042867120     0.8416283090
   13      C      -2.9903343720     3.2266802957    -0.5457914155
   14      C      -3.0132703085     2.0498809592    -1.2967021509
   15      H      -4.3819864062    -2.4654527951    -2.5156374499
   16      H      -1.4807942179    -2.4421356484     2.7564837783
   17      H      -3.0171842644     4.1803501548    -1.0620099340
   18      H      -3.1749716678    -3.1130553970    -1.3820999473
   19      H      -4.9057544656    -3.0747585886    -0.9137313194
   20      H      -0.8764625495    -3.0289310467     1.1749962219
   21      H      -2.6201721642    -3.1364385866     1.5819962723
   22      H      -2.9167721446     4.1402949861     1.3898353678
   23      H      -3.0489033233     2.0736863175    -2.3278156807
   24      H      -2.8738057297     1.9924331500     2.5839967594
   25      C       2.9641923767     0.8271456535     0.5867904191
   26      C       2.9097043653     0.8486806495    -0.8198074573
   27      C       3.0442623928    -0.4712700855     1.3296263526
   28      C       2.8374289450    -0.4324776285    -1.5893568317
   29      O       4.0422875339    -1.2452444275     0.8509720618
   30      O       2.3520911750    -0.7815830872     2.2680781196
   31      O       1.8985593940    -1.2544771183    -1.0711003912
   32      O       3.4921181062    -0.7015550317    -2.5668991949
   33      C       1.7794642289    -2.5482510650    -1.6862767198
   34      C       4.1908872806    -2.5347535159     1.4705869237
   35      C       2.9859626108     2.0212341972     1.3288411403
   36      C       2.9571010593     3.2221150712     0.6177870154
   37      C       2.9053909457     3.2445086549    -0.7696327091
   38      C       2.8824550092     2.0677093184    -1.5205434445
   39      H       1.5137389115    -2.4476244358    -2.7394787435
   40      H       4.4149310998    -2.4243072891     2.5326424847
   41      H       2.8785410533     4.1981785140    -1.2858512276
   42      H       2.7207536499    -3.0952270378    -1.6059412409
   43      H       0.9899708521    -3.0569302294    -1.1375726130
   44      H       5.0192627682    -3.0111026874     0.9511549283
   45      H       3.2755531535    -3.1186102274     1.3581549787
   46      H       2.9789531731     4.1581233453     1.1659940742
   47      H       2.8468219945     2.0915146768    -2.5516569743
   48      H       3.0219195880     2.0102615093     2.3601554658
 ----------------------------------------------------------------

   14   -1376.4233028198      9.93E-09 Convergence criterion met
 Total energy in the final basis set = -1376.42330282

                    Orbital Energies (a.u.)
 --------------------------------------------------------------

 Alpha MOs
 -- Occupied --
-19.178 -19.177 -19.174 -19.173 -19.121 -19.121 -19.118 -19.117
-10.313 -10.313 -10.310 -10.309 -10.233 -10.233 -10.229 -10.229
-10.212 -10.212 -10.211 -10.211 -10.196 -10.196 -10.195 -10.195
-10.195 -10.195 -10.195 -10.194  -1.121  -1.121  -1.113  -1.113
 -1.032  -1.031  -1.028  -1.028  -0.885  -0.884  -0.797  -0.797
 -0.785  -0.784  -0.742  -0.741  -0.730  -0.730  -0.654  -0.653
 -0.643  -0.643  -0.593  -0.593  -0.577  -0.576  -0.553  -0.552
 -0.521  -0.521  -0.513  -0.513  -0.491  -0.491  -0.489  -0.488
 -0.483  -0.482  -0.477  -0.476  -0.469  -0.469  -0.466  -0.465
 -0.439  -0.437  -0.430  -0.428  -0.414  -0.413  -0.406  -0.405
 -0.387  -0.386  -0.385  -0.384  -0.381  -0.381  -0.367  -0.366
 -0.363  -0.362  -0.321  -0.321  -0.312  -0.312  -0.299  -0.299
 -0.294  -0.294  -0.273  -0.273  -0.270  -0.269

          Ground-State Mulliken Net Atomic Charges

     Atom                 Charge (a.u.)
  ----------------------------------------
      1 C                     0.859039
      2 C                     0.958045
      3 C                    -0.707497
      4 C                    -0.857999
      5 O                     0.085412
      6 O                    -0.185418
      7 O                     0.049579
      8 O                    -0.134809
      9 C                    -0.198584
     10 C                    -0.310083
     11 C                    -0.432482
     12 C                    -0.207707
     13 C                    -0.198112
     14 C                    -0.467397
     15 H                     0.171505
     16 H                     0.191974
     17 H                     0.179058
     18 H                     0.173267
     19 H                     0.171849
     20 H                     0.121287
     21 H                     0.184374
     22 H                     0.178761
     23 H                     0.184961
     24 H                     0.191871
     25 C                     0.936296
     26 C                     0.900537
     27 C                    -0.911848
     28 C                    -0.659481
     29 O                     0.058158
     30 O                    -0.124430
     31 O                     0.072146
     32 O                    -0.189456
     33 C                    -0.313459
     34 C                    -0.200835
     35 C                    -0.457112
     36 C                    -0.195473
     37 C                    -0.214387
     38 C                    -0.449957
     39 H                     0.194260
     40 H                     0.171107
     41 H                     0.178371
     42 H                     0.187362
     43 H                     0.117735
     44 H                     0.169890
     45 H                     0.172922
     46 H                     0.179637
     47 H                     0.193190
     48 H                     0.183931
  ----------------------------------------
  Sum of atomic charges =    -0.000000

                    Cartesian Multipole Moments
 -----------------------------------------------------------------
    Charge (ESU x 10^10)
                -0.0000
    Dipole Moment (Debye)
         X       0.1818      Y       0.1436      Z       0.2077
       Tot       0.3112
    Quadrupole Moments (Debye-Ang)
        XX    -170.4815     XY      -0.7364     YY    -124.0009
        XZ      18.9346     YZ       0.4985     ZZ    -173.4258

 Total job time:  1121.28s(wall), 2228.67s(cpu)
        *  Thank you very much for using Q-Chem.  Have a nice day.  *
