 Q-Chem 5.0, Q-Chem, Inc., Pleasanton, CA (2017)
 Q-Chem 5.0.1 for Intel X86 EM64T Linux

User input:
--------------------------------------------------------------
$molecule
0  1
C        -0.50384000        -1.19813000        +5.81050000
C        -0.51649000        +0.20435000        +5.93232000
C        +0.79029000        -1.95219000        +5.78365000
C        +0.76903000        +0.96993000        +5.94337000
O        +1.57705000        -1.60619000        +6.82552000
O        +1.08762000        -2.79848000        +4.97651000
O        +1.57844000        +0.56858000        +4.93862000
O        +1.05095000        +1.85654000        +6.71217000
C        +2.87509000        +1.18678000        +4.88381000
C        +2.86376000        -2.24651000        +6.88214000
C        -1.70260000        -1.93059000        +5.75187000
C        -2.89892000        -1.21499000        +5.82454000
C        -2.91253000        +0.16812000        +5.94673000
C        -1.73101000        +0.90961000        +6.00549000
H        +2.77895000        +2.26546000        +4.75275000
H        +2.74838000        -3.32762000        +6.97294000
H        -3.86294000        +0.68882000        +5.99449000
H        +3.43058000        +0.98650000        +5.80195000
H        +3.37244000        +0.73826000        +4.02672000
H        +3.35155000        -1.83724000        +7.76389000
H        +3.43949000        -2.02377000        +5.98198000
H        -3.83832000        -1.75654000        +5.78751000
H        -1.74826000        +1.93721000        +6.09915000
H        -1.69818000        -2.95836000        +5.65864000
@C        -0.54444000        -0.68370000        -0.06689000
@C        -0.55709000        +0.71878000        +0.05493000
@C        +0.74969000        -1.43776000        -0.09374000
@C        +0.72843000        +1.48436000        +0.06598000
@O        +1.53645000        -1.09176000        +0.94813000
@O        +1.04702000        -2.28405000        -0.90088000
@O        +1.53784000        +1.08301000        -0.93877000
@O        +1.01035000        +2.37097000        +0.83478000
@C        +2.83449000        +1.70121000        -0.99358000
@C        +2.82316000        -1.73208000        +1.00475000
@C        -1.74320000        -1.41616000        -0.12552000
@C        -2.93952000        -0.70056000        -0.05285000
@C        -2.95313000        +0.68255000        +0.06934000
@C        -1.77161000        +1.42404000        +0.12810000
@H        +2.73835000        +2.77989000        -1.12464000
@H        +2.70778000        -2.81319000        +1.09555000
@H        -3.90354000        +1.20325000        +0.11710000
@H        +3.38998000        +1.50093000        -0.07544000
@H        +3.33184000        +1.25269000        -1.85067000
@H        +3.31095000        -1.32281000        +1.88650000
@H        +3.39889000        -1.50934000        +0.10459000
@H        -3.87892000        -1.24211000        -0.08988000
@H        -1.78886000        +2.45164000        +0.22176000
@H        -1.73878000        -2.44393000        -0.21875000
$end

$rem
JOBTYPE                   SP
METHOD                    B3LYP
DFT_D                     d3_op
BASIS                     6-311++G(d,p)
SYMMETRY                  False
THRESH                    12
SCF_CONVERGENCE           8
MAX_SUB_FILE_NUM          128
MEM_STATIC                400
MEM_TOTAL                 4000
$end
--------------------------------------------------------------

             Standard Nuclear Orientation (Angstroms)
    I     Atom           X                Y                Z
 ----------------------------------------------------------------
    1      C      -0.5038400000    -1.1981300000     5.8105000000
    2      C      -0.5164900000     0.2043500000     5.9323200000
    3      C       0.7902900000    -1.9521900000     5.7836500000
    4      C       0.7690300000     0.9699300000     5.9433700000
    5      O       1.5770500000    -1.6061900000     6.8255200000
    6      O       1.0876200000    -2.7984800000     4.9765100000
    7      O       1.5784400000     0.5685800000     4.9386200000
    8      O       1.0509500000     1.8565400000     6.7121700000
    9      C       2.8750900000     1.1867800000     4.8838100000
   10      C       2.8637600000    -2.2465100000     6.8821400000
   11      C      -1.7026000000    -1.9305900000     5.7518700000
   12      C      -2.8989200000    -1.2149900000     5.8245400000
   13      C      -2.9125300000     0.1681200000     5.9467300000
   14      C      -1.7310100000     0.9096100000     6.0054900000
   15      H       2.7789500000     2.2654600000     4.7527500000
   16      H       2.7483800000    -3.3276200000     6.9729400000
   17      H      -3.8629400000     0.6888200000     5.9944900000
   18      H       3.4305800000     0.9865000000     5.8019500000
   19      H       3.3724400000     0.7382600000     4.0267200000
   20      H       3.3515500000    -1.8372400000     7.7638900000
   21      H       3.4394900000    -2.0237700000     5.9819800000
   22      H      -3.8383200000    -1.7565400000     5.7875100000
   23      H      -1.7482600000     1.9372100000     6.0991500000
   24      H      -1.6981800000    -2.9583600000     5.6586400000
   25      GH     -0.5444400000    -0.6837000000    -0.0668900000
   26      GH     -0.5570900000     0.7187800000     0.0549300000
   27      GH      0.7496900000    -1.4377600000    -0.0937400000
   28      GH      0.7284300000     1.4843600000     0.0659800000
   29      GH      1.5364500000    -1.0917600000     0.9481300000
   30      GH      1.0470200000    -2.2840500000    -0.9008800000
   31      GH      1.5378400000     1.0830100000    -0.9387700000
   32      GH      1.0103500000     2.3709700000     0.8347800000
   33      GH      2.8344900000     1.7012100000    -0.9935800000
   34      GH      2.8231600000    -1.7320800000     1.0047500000
   35      GH     -1.7432000000    -1.4161600000    -0.1255200000
   36      GH     -2.9395200000    -0.7005600000    -0.0528500000
   37      GH     -2.9531300000     0.6825500000     0.0693400000
   38      GH     -1.7716100000     1.4240400000     0.1281000000
   39      GH      2.7383500000     2.7798900000    -1.1246400000
   40      GH      2.7077800000    -2.8131900000     1.0955500000
   41      GH     -3.9035400000     1.2032500000     0.1171000000
   42      GH      3.3899800000     1.5009300000    -0.0754400000
   43      GH      3.3318400000     1.2526900000    -1.8506700000
   44      GH      3.3109500000    -1.3228100000     1.8865000000
   45      GH      3.3988900000    -1.5093400000     0.1045900000
   46      GH     -3.8789200000    -1.2421100000    -0.0898800000
   47      GH     -1.7888600000     2.4516400000     0.2217600000
   48      GH     -1.7387800000    -2.4439300000    -0.2187500000
 ----------------------------------------------------------------

   14    -688.2107919474      5.70E-09 Convergence criterion met
 Total energy in the final basis set = -688.21079195

                    Orbital Energies (a.u.)
 --------------------------------------------------------------

 Alpha MOs
 -- Occupied --
-19.178 -19.178 -19.122 -19.122 -10.314 -10.314 -10.233 -10.233
-10.215 -10.214 -10.198 -10.198 -10.197 -10.197  -1.123  -1.117
 -1.033  -1.032  -0.887  -0.800  -0.787  -0.744  -0.733  -0.656
 -0.646  -0.596  -0.579  -0.555  -0.524  -0.516  -0.493  -0.492
 -0.485  -0.479  -0.472  -0.468  -0.440  -0.431  -0.416  -0.408
 -0.389  -0.387  -0.384  -0.369  -0.366  -0.324  -0.316  -0.301
 -0.297  -0.275  -0.272

          Ground-State Mulliken Net Atomic Charges

     Atom                 Charge (a.u.)
  ----------------------------------------
      1 C                     0.940706
      2 C                     0.864687
      3 C                    -0.911463
      4 C                    -0.646900
      5 O                     0.056386
      6 O                    -0.118142
      7 O                     0.065851
      8 O                    -0.186077
      9 C                    -0.319531
     10 C                    -0.201431
     11 C                    -0.449848
     12 C                    -0.188684
     13 C                    -0.222991
     14 C                    -0.447404
     15 H                     0.190377
     16 H                     0.171263
     17 H                     0.180335
     18 H                     0.189231
     19 H                     0.124688
     20 H                     0.169556
     21 H                     0.175963
     22 H                     0.182685
     23 H                     0.194150
     24 H                     0.185498
     25 GH                    0.041205
     26 GH                   -0.022303
     27 GH                   -0.012372
     28 GH                    0.005446
     29 GH                   -0.001257
     30 GH                   -0.000072
     31 GH                    0.000016
     32 GH                    0.000658
     33 GH                   -0.001714
     34 GH                   -0.009104
     35 GH                   -0.006196
     36 GH                    0.007446
     37 GH                   -0.009414
     38 GH                   -0.002224
     39 GH                    0.000059
     40 GH                   -0.000363
     41 GH                   -0.000550
     42 GH                    0.000955
     43 GH                   -0.000080
     44 GH                    0.012027
     45 GH                    0.000025
     46 GH                    0.000056
     47 GH                    0.000264
     48 GH                   -0.001412
  ----------------------------------------
  Sum of atomic charges =    -0.000000

                    Cartesian Multipole Moments
 -----------------------------------------------------------------
    Charge (ESU x 10^10)
                -0.0000
    Dipole Moment (Debye)
         X      -0.0463      Y      -0.1158      Z       0.0595
       Tot       0.1382
    Quadrupole Moments (Debye-Ang)
        XX     -61.3136     XY      -0.0419     YY     -84.1987
        XZ      -0.1393     YZ     -10.4333     ZZ     -86.3534

 Total job time:  1071.68s(wall), 2118.83s(cpu)
        *  Thank you very much for using Q-Chem.  Have a nice day.  *
