 Q-Chem 5.0, Q-Chem, Inc., Pleasanton, CA (2017)
 Q-Chem 5.0.1 for Intel X86 EM64T Linux

User input:
--------------------------------------------------------------
$molecule
0  1
C        +0.25348000        +2.78827000        +6.22241000
C        +0.65704000        +1.32986000        +6.63517000
C        -1.15122000        +2.97562000        +5.68023000
C        -0.34379000        +0.22696000        +6.35979000
O        -2.06094000        +2.53171000        +6.57612000
O        -1.44258000        +3.50278000        +4.63764000
O        -0.88286000        +0.31547000        +5.13026000
O        -0.59130000        -0.66538000        +7.13557000
C        -1.83056000        -0.70402000        +4.77086000
C        -3.43990000        +2.61831000        +6.17566000
C        +1.36086000        +3.14313000        +5.20155000
C        +2.66148000        +3.46039000        +5.96501000
C        +3.07414000        +2.03690000        +6.43946000
C        +1.97501000        +1.15040000        +5.78908000
O        +1.65918000        +1.88002000        +4.59270000
H        +0.30889000        +3.43125000        +7.10546000
H        +0.87001000        +1.26297000        +7.70054000
H        -2.65671000        -0.72338000        +5.48350000
H        -3.72998000        +3.65861000        +6.02052000
H        +3.40312000        +3.88121000        +5.28451000
H        +2.51314000        +4.16827000        +6.78297000
H        +4.05260000        +1.75333000        +6.04807000
H        +3.10437000        +1.93077000        +7.52574000
H        -2.18070000        -0.43426000        +3.77709000
H        -1.34984000        -1.68358000        +4.75550000
H        -4.00777000        +2.17962000        +6.99317000
H        -3.60042000        +2.06039000        +5.25151000
C        +2.38528000        -0.26928000        +5.46834000
H        +3.29389000        -0.26339000        +4.86280000
H        +2.58068000        -0.82720000        +6.38725000
H        +1.60413000        -0.78557000        +4.90774000
H        +1.06348000        +3.94282000        +4.55582000
@C        +0.22270000        +1.04488000        +0.58595000
@C        +0.62626000        -0.41353000        +0.99871000
@C        -1.18200000        +1.23223000        +0.04377000
@C        -0.37457000        -1.51643000        +0.72333000
@O        -2.09172000        +0.78832000        +0.93966000
@O        -1.47336000        +1.75939000        -0.99882000
@O        -0.91364000        -1.42792000        -0.50620000
@O        -0.62208000        -2.40877000        +1.49911000
@C        -1.86134000        -2.44741000        -0.86560000
@C        -3.47068000        +0.87492000        +0.53920000
@C        +1.33008000        +1.39974000        -0.43491000
@C        +2.63070000        +1.71700000        +0.32855000
@C        +3.04336000        +0.29351000        +0.80300000
@C        +1.94423000        -0.59299000        +0.15262000
@O        +1.62840000        +0.13663000        -1.04376000
@H        +0.27811000        +1.68786000        +1.46900000
@H        +0.83923000        -0.48042000        +2.06408000
@H        -2.68749000        -2.46677000        -0.15296000
@H        -3.76076000        +1.91522000        +0.38406000
@H        +3.37234000        +2.13782000        -0.35195000
@H        +2.48236000        +2.42488000        +1.14651000
@H        +4.02182000        +0.00994000        +0.41161000
@H        +3.07359000        +0.18738000        +1.88928000
@H        -2.21148000        -2.17765000        -1.85937000
@H        -1.38062000        -3.42697000        -0.88096000
@H        -4.03855000        +0.43623000        +1.35671000
@H        -3.63120000        +0.31700000        -0.38495000
@C        +2.35450000        -2.01267000        -0.16812000
@H        +3.26311000        -2.00678000        -0.77366000
@H        +2.54990000        -2.57059000        +0.75079000
@H        +1.57335000        -2.52896000        -0.72872000
@H        +1.03270000        +2.19943000        -1.08064000
$end

$rem
JOBTYPE                   SP
METHOD                    B3LYP
DFT_D                     d3_op
BASIS                     6-311++G(d,p)
SYMMETRY                  False
THRESH                    12
SCF_CONVERGENCE           8
MAX_SUB_FILE_NUM          128
MEM_STATIC                400
MEM_TOTAL                 4000
$end
--------------------------------------------------------------

             Standard Nuclear Orientation (Angstroms)
    I     Atom           X                Y                Z
 ----------------------------------------------------------------
    1      C       0.2534800000     2.7882700000     6.2224100000
    2      C       0.6570400000     1.3298600000     6.6351700000
    3      C      -1.1512200000     2.9756200000     5.6802300000
    4      C      -0.3437900000     0.2269600000     6.3597900000
    5      O      -2.0609400000     2.5317100000     6.5761200000
    6      O      -1.4425800000     3.5027800000     4.6376400000
    7      O      -0.8828600000     0.3154700000     5.1302600000
    8      O      -0.5913000000    -0.6653800000     7.1355700000
    9      C      -1.8305600000    -0.7040200000     4.7708600000
   10      C      -3.4399000000     2.6183100000     6.1756600000
   11      C       1.3608600000     3.1431300000     5.2015500000
   12      C       2.6614800000     3.4603900000     5.9650100000
   13      C       3.0741400000     2.0369000000     6.4394600000
   14      C       1.9750100000     1.1504000000     5.7890800000
   15      O       1.6591800000     1.8800200000     4.5927000000
   16      H       0.3088900000     3.4312500000     7.1054600000
   17      H       0.8700100000     1.2629700000     7.7005400000
   18      H      -2.6567100000    -0.7233800000     5.4835000000
   19      H      -3.7299800000     3.6586100000     6.0205200000
   20      H       3.4031200000     3.8812100000     5.2845100000
   21      H       2.5131400000     4.1682700000     6.7829700000
   22      H       4.0526000000     1.7533300000     6.0480700000
   23      H       3.1043700000     1.9307700000     7.5257400000
   24      H      -2.1807000000    -0.4342600000     3.7770900000
   25      H      -1.3498400000    -1.6835800000     4.7555000000
   26      H      -4.0077700000     2.1796200000     6.9931700000
   27      H      -3.6004200000     2.0603900000     5.2515100000
   28      C       2.3852800000    -0.2692800000     5.4683400000
   29      H       3.2938900000    -0.2633900000     4.8628000000
   30      H       2.5806800000    -0.8272000000     6.3872500000
   31      H       1.6041300000    -0.7855700000     4.9077400000
   32      H       1.0634800000     3.9428200000     4.5558200000
   33      GH      0.2227000000     1.0448800000     0.5859500000
   34      GH      0.6262600000    -0.4135300000     0.9987100000
   35      GH     -1.1820000000     1.2322300000     0.0437700000
   36      GH     -0.3745700000    -1.5164300000     0.7233300000
   37      GH     -2.0917200000     0.7883200000     0.9396600000
   38      GH     -1.4733600000     1.7593900000    -0.9988200000
   39      GH     -0.9136400000    -1.4279200000    -0.5062000000
   40      GH     -0.6220800000    -2.4087700000     1.4991100000
   41      GH     -1.8613400000    -2.4474100000    -0.8656000000
   42      GH     -3.4706800000     0.8749200000     0.5392000000
   43      GH      1.3300800000     1.3997400000    -0.4349100000
   44      GH      2.6307000000     1.7170000000     0.3285500000
   45      GH      3.0433600000     0.2935100000     0.8030000000
   46      GH      1.9442300000    -0.5929900000     0.1526200000
   47      GH      1.6284000000     0.1366300000    -1.0437600000
   48      GH      0.2781100000     1.6878600000     1.4690000000
   49      GH      0.8392300000    -0.4804200000     2.0640800000
   50      GH     -2.6874900000    -2.4667700000    -0.1529600000
   51      GH     -3.7607600000     1.9152200000     0.3840600000
   52      GH      3.3723400000     2.1378200000    -0.3519500000
   53      GH      2.4823600000     2.4248800000     1.1465100000
   54      GH      4.0218200000     0.0099400000     0.4116100000
   55      GH      3.0735900000     0.1873800000     1.8892800000
   56      GH     -2.2114800000    -2.1776500000    -1.8593700000
   57      GH     -1.3806200000    -3.4269700000    -0.8809600000
   58      GH     -4.0385500000     0.4362300000     1.3567100000
   59      GH     -3.6312000000     0.3170000000    -0.3849500000
   60      GH      2.3545000000    -2.0126700000    -0.1681200000
   61      GH      3.2631100000    -2.0067800000    -0.7736600000
   62      GH      2.5499000000    -2.5705900000     0.7507900000
   63      GH      1.5733500000    -2.5289600000    -0.7287200000
   64      GH      1.0327000000     2.1994300000    -1.0806400000
 ----------------------------------------------------------------

   14    -805.1967333826      6.71E-09 Convergence criterion met
 Total energy in the final basis set = -805.19673338

                    Orbital Energies (a.u.)
 --------------------------------------------------------------

 Alpha MOs
 -- Occupied --
-19.175 -19.173 -19.131 -19.119 -19.116 -10.309 -10.306 -10.246
-10.232 -10.230 -10.228 -10.205 -10.204 -10.179 -10.178 -10.171
 -1.120  -1.113  -1.063  -1.030  -1.027  -0.832  -0.796  -0.784
 -0.746  -0.729  -0.697  -0.655  -0.606  -0.590  -0.569  -0.562
 -0.534  -0.518  -0.510  -0.492  -0.491  -0.483  -0.476  -0.472
 -0.461  -0.443  -0.434  -0.425  -0.416  -0.405  -0.397  -0.389
 -0.381  -0.374  -0.369  -0.361  -0.355  -0.351  -0.333  -0.332
 -0.320  -0.313  -0.289  -0.281  -0.274

          Ground-State Mulliken Net Atomic Charges

     Atom                 Charge (a.u.)
  ----------------------------------------
      1 C                    -0.012558
      2 C                     0.485305
      3 C                    -0.584161
      4 C                    -0.874865
      5 O                     0.004584
      6 O                    -0.114200
      7 O                     0.043708
      8 O                    -0.107270
      9 C                    -0.281511
     10 C                    -0.160095
     11 C                    -0.187135
     12 C                    -0.633629
     13 C                    -0.324755
     14 C                    -0.232957
     15 O                     0.194599
     16 H                     0.246182
     17 H                     0.283900
     18 H                     0.213987
     19 H                     0.171433
     20 H                     0.180014
     21 H                     0.133885
     22 H                     0.168708
     23 H                     0.144995
     24 H                     0.133289
     25 H                     0.194073
     26 H                     0.164748
     27 H                     0.179767
     28 C                    -0.231651
     29 H                     0.190560
     30 H                     0.184649
     31 H                     0.186641
     32 H                     0.272281
     33 GH                   -0.093100
     34 GH                    0.041300
     35 GH                   -0.030350
     36 GH                   -0.000777
     37 GH                    0.002307
     38 GH                    0.000080
     39 GH                    0.000358
     40 GH                   -0.002667
     41 GH                    0.000526
     42 GH                    0.007453
     43 GH                    0.005993
     44 GH                    0.020767
     45 GH                   -0.031643
     46 GH                    0.047470
     47 GH                    0.000045
     48 GH                    0.019759
     49 GH                   -0.014070
     50 GH                    0.000415
     51 GH                   -0.000699
     52 GH                    0.000066
     53 GH                    0.000060
     54 GH                   -0.000970
     55 GH                   -0.016275
     56 GH                    0.000043
     57 GH                   -0.000097
     58 GH                    0.004195
     59 GH                    0.000140
     60 GH                    0.005254
     61 GH                    0.000019
     62 GH                    0.001147
     63 GH                   -0.000060
     64 GH                    0.000792
  ----------------------------------------
  Sum of atomic charges =     0.000000

                    Cartesian Multipole Moments
 -----------------------------------------------------------------
    Charge (ESU x 10^10)
                 0.0000
    Dipole Moment (Debye)
         X       0.0476      Y       0.4884      Z       1.1074
       Tot       1.2112
    Quadrupole Moments (Debye-Ang)
        XX     -81.7079     XY       2.6611     YY     -94.5230
        XZ       3.3774     YZ      15.5414     ZZ     -89.7753

 Total job time:  7087.03s(wall), 7070.28s(cpu)
        *  Thank you very much for using Q-Chem.  Have a nice day.  *
