 Q-Chem 5.0, Q-Chem, Inc., Pleasanton, CA (2017)
 Q-Chem 5.0.1 for Intel X86 EM64T Linux

User input:
--------------------------------------------------------------
$molecule
0  1
--
0  1
C        +0.22270000        +1.04488000        +0.58595000
C        +0.62626000        -0.41353000        +0.99871000
C        -1.18200000        +1.23223000        +0.04377000
C        -0.37457000        -1.51643000        +0.72333000
O        -2.09172000        +0.78832000        +0.93966000
O        -1.47336000        +1.75939000        -0.99882000
O        -0.91364000        -1.42792000        -0.50620000
O        -0.62208000        -2.40877000        +1.49911000
C        -1.86134000        -2.44741000        -0.86560000
C        -3.47068000        +0.87492000        +0.53920000
C        +1.33008000        +1.39974000        -0.43491000
C        +2.63070000        +1.71700000        +0.32855000
C        +3.04336000        +0.29351000        +0.80300000
C        +1.94423000        -0.59299000        +0.15262000
O        +1.62840000        +0.13663000        -1.04376000
H        +0.27811000        +1.68786000        +1.46900000
H        +0.83923000        -0.48042000        +2.06408000
H        -2.68749000        -2.46677000        -0.15296000
H        -3.76076000        +1.91522000        +0.38406000
H        +3.37234000        +2.13782000        -0.35195000
H        +2.48236000        +2.42488000        +1.14651000
H        +4.02182000        +0.00994000        +0.41161000
H        +3.07359000        +0.18738000        +1.88928000
H        -2.21148000        -2.17765000        -1.85937000
H        -1.38062000        -3.42697000        -0.88096000
H        -4.03855000        +0.43623000        +1.35671000
H        -3.63120000        +0.31700000        -0.38495000
C        +2.35450000        -2.01267000        -0.16812000
H        +3.26311000        -2.00678000        -0.77366000
H        +2.54990000        -2.57059000        +0.75079000
H        +1.57335000        -2.52896000        -0.72872000
H        +1.03270000        +2.19943000        -1.08064000
--
0  1
C        +0.25348000        +2.78827000        +6.22241000
C        +0.65704000        +1.32986000        +6.63517000
C        -1.15122000        +2.97562000        +5.68023000
C        -0.34379000        +0.22696000        +6.35979000
O        -2.06094000        +2.53171000        +6.57612000
O        -1.44258000        +3.50278000        +4.63764000
O        -0.88286000        +0.31547000        +5.13026000
O        -0.59130000        -0.66538000        +7.13557000
C        -1.83056000        -0.70402000        +4.77086000
C        -3.43990000        +2.61831000        +6.17566000
C        +1.36086000        +3.14313000        +5.20155000
C        +2.66148000        +3.46039000        +5.96501000
C        +3.07414000        +2.03690000        +6.43946000
C        +1.97501000        +1.15040000        +5.78908000
O        +1.65918000        +1.88002000        +4.59270000
H        +0.30889000        +3.43125000        +7.10546000
H        +0.87001000        +1.26297000        +7.70054000
H        -2.65671000        -0.72338000        +5.48350000
H        -3.72998000        +3.65861000        +6.02052000
H        +3.40312000        +3.88121000        +5.28451000
H        +2.51314000        +4.16827000        +6.78297000
H        +4.05260000        +1.75333000        +6.04807000
H        +3.10437000        +1.93077000        +7.52574000
H        -2.18070000        -0.43426000        +3.77709000
H        -1.34984000        -1.68358000        +4.75550000
H        -4.00777000        +2.17962000        +6.99317000
H        -3.60042000        +2.06039000        +5.25151000
C        +2.38528000        -0.26928000        +5.46834000
H        +3.29389000        -0.26339000        +4.86280000
H        +2.58068000        -0.82720000        +6.38725000
H        +1.60413000        -0.78557000        +4.90774000
H        +1.06348000        +3.94282000        +4.55582000
$end

$rem
JOBTYPE                   SP
METHOD                    B3LYP
DFT_D                     d3_op
BASIS                     6-311++G(d,p)
SYMMETRY                  False
THRESH                    12
SCF_CONVERGENCE           8
MAX_SUB_FILE_NUM          128
MEM_STATIC                400
MEM_TOTAL                 4000
$end
--------------------------------------------------------------

             Standard Nuclear Orientation (Angstroms)
    I     Atom           X                Y                Z
 ----------------------------------------------------------------
    1      C      -2.1260550822     0.2064379682     1.1120994331
    2      C      -2.2416313448     0.5640703828    -0.4107046918
    3      C      -2.5913424387    -1.1787536341     1.5207474059
    4      C      -2.9005865567    -0.4553464960    -1.3164919182
    5      O      -1.9214035567    -2.1218989688     0.8215162347
    6      O      -3.3890370968    -1.4301158708     2.3869358852
    7      O      -4.0304819352    -0.9598859561    -0.7883339184
    8      O      -2.4889872935    -0.7442969204    -2.4148817319
    9      C      -4.7382083817    -1.9220179317    -1.5883894468
   10      C      -2.2886334466    -3.4874751411     1.0856040586
   11      C      -2.9409802455     1.3482480007     1.7651982399
   12      C      -2.0939661679     2.6357303084     1.7555068325
   13      C      -2.1394074411     3.0016835560     0.2436443488
   14      C      -3.0758265903     1.8989902789    -0.3256972579
   15      O      -3.9473814653     1.6320311157     0.7845026983
   16      H      -1.0733900858     0.2541673368     1.4051679639
   17      H      -1.2632652926     0.7475141050    -0.8511499196
   18      H      -4.0905073646    -2.7667036756    -1.8286888189
   19      H      -2.0757130687    -3.7484265852     2.1233941012
   20      H      -2.5728426447     3.4047295838     2.3633859705
   21      H      -1.0829292039     2.4830887611     2.1384718792
   22      H      -2.5893300601     3.9829528866     0.0834501347
   23      H      -1.1580817305     3.0010171562    -0.2350842526
   24      H      -5.5809111042    -2.2395577478    -0.9784977543
   25      H      -5.0866288960    -1.4646444378    -2.5159012116
   26      H      -1.6848123305    -4.0868151797     0.4077844432
   27      H      -3.3518251260    -3.6371405459     0.8898533534
   28      C      -3.8650871640     2.2833899243    -1.5569533572
   29      H      -4.4158050342     3.2073677075    -1.3691758304
   30      H      -3.1955607161     2.4413424505    -2.4058566553
   31      H      -4.5830937985     1.5049962653    -1.8207578891
   32      H      -3.2718196936     1.0870398820     2.7486725770
   33      C       3.7641940339     0.1318914361     0.7812738050
   34      C       3.6486177714     0.4895238507    -0.7415303199
   35      C       3.2989066775    -1.2533001662     1.1899217778
   36      C       2.9896625595    -0.5298930281    -1.6473175463
   37      O       3.9688455595    -2.1964455009     0.4906906066
   38      O       2.5012120193    -1.5046624029     2.0561102571
   39      O       1.8597671810    -1.0344324882    -1.1191595465
   40      O       3.4012618227    -0.8188434525    -2.7457073600
   41      C       1.1520407345    -1.9965644638    -1.9192150750
   42      C       3.6016156696    -3.5620216732     0.7547784305
   43      C       2.9492688707     1.2737014686     1.4343726118
   44      C       3.7962829483     2.5611837763     1.4246812043
   45      C       3.7508416750     2.9271370239    -0.0871812793
   46      C       2.8144225259     1.8244437468    -0.6565228860
   47      O       1.9428676508     1.5574845835     0.4536770701
   48      H       4.8168590304     0.1796208047     1.0743423357
   49      H       4.6269838235     0.6729675729    -1.1819755477
   50      H       1.7997417516    -2.8412502077    -2.1595144470
   51      H       3.8145360475    -3.8229731173     1.7925684731
   52      H       3.3174064715     3.3301830517     2.0325603424
   53      H       4.8073199123     2.4085422290     1.8076462511
   54      H       3.3009190561     3.9084063545    -0.2473754935
   55      H       4.7321673856     2.9264706241    -0.5659098808
   56      H       0.3093380119    -2.3141042799    -1.3093233824
   57      H       0.8036202201    -1.5391909699    -2.8467268398
   58      H       4.2054367857    -4.1613617118     0.0769588151
   59      H       2.5384239901    -3.7116870780     0.5590277252
   60      C       2.0251619521     2.2088433922    -1.8877789854
   61      H       1.4744440820     3.1328211753    -1.7000014585
   62      H       2.6946884000     2.3667959184    -2.7366822835
   63      H       1.3071553177     1.4304497332    -2.1515835173
   64      H       2.6184294225     1.0124933499     2.4178469488
 ----------------------------------------------------------------

   15   -1610.4023247515      5.43E-09 Convergence criterion met
 Total energy in the final basis set = -1610.40232475

                    Orbital Energies (a.u.)
 --------------------------------------------------------------

 Alpha MOs
 -- Occupied --
-19.177 -19.172 -19.171 -19.170 -19.138 -19.124 -19.122 -19.116
-19.114 -19.113 -10.312 -10.306 -10.303 -10.303 -10.250 -10.239
-10.234 -10.234 -10.229 -10.229 -10.224 -10.221 -10.209 -10.207
-10.197 -10.196 -10.184 -10.183 -10.175 -10.172 -10.170 -10.167
 -1.121  -1.116  -1.113  -1.109  -1.070  -1.057  -1.033  -1.027
 -1.026  -1.025  -0.836  -0.825  -0.800  -0.790  -0.788  -0.777
 -0.747  -0.742  -0.729  -0.725  -0.701  -0.692  -0.658  -0.649
 -0.609  -0.600  -0.594  -0.584  -0.569  -0.566  -0.565  -0.556
 -0.537  -0.528  -0.520  -0.513  -0.512  -0.505  -0.495  -0.492
 -0.486  -0.485  -0.485  -0.479  -0.476  -0.473  -0.473  -0.468
 -0.464  -0.455  -0.446  -0.438  -0.435  -0.429  -0.426  -0.420
 -0.418  -0.412  -0.408  -0.400  -0.397  -0.394  -0.394  -0.385
 -0.384  -0.375  -0.374  -0.372  -0.370  -0.365  -0.364  -0.358
 -0.356  -0.354  -0.348  -0.344  -0.338  -0.336  -0.327  -0.325
 -0.321  -0.316  -0.312  -0.310  -0.292  -0.285  -0.284  -0.279
 -0.277  -0.267

          Ground-State Mulliken Net Atomic Charges

     Atom                 Charge (a.u.)
  ----------------------------------------
      1 C                    -0.061393
      2 C                     0.715885
      3 C                    -0.742460
      4 C                    -0.808604
      5 O                     0.042093
      6 O                    -0.182813
      7 O                     0.037036
      8 O                    -0.098725
      9 C                    -0.177831
     10 C                    -0.230672
     11 C                    -0.202562
     12 C                    -0.413459
     13 C                    -0.309981
     14 C                    -0.310682
     15 O                    -0.005424
     16 H                     0.239381
     17 H                     0.303901
     18 H                     0.193635
     19 H                     0.185363
     20 H                     0.196426
     21 H                     0.121065
     22 H                     0.184078
     23 H                     0.075473
     24 H                     0.178351
     25 H                     0.175758
     26 H                     0.133086
     27 H                     0.182950
     28 C                    -0.246656
     29 H                     0.182727
     30 H                     0.159601
     31 H                     0.180672
     32 H                     0.290709
     33 C                    -0.006277
     34 C                     0.504675
     35 C                    -0.572719
     36 C                    -0.867240
     37 O                     0.005603
     38 O                    -0.119071
     39 O                     0.034679
     40 O                    -0.104918
     41 C                    -0.282282
     42 C                    -0.163575
     43 C                    -0.188651
     44 C                    -0.632097
     45 C                    -0.323765
     46 C                    -0.298462
     47 O                     0.182309
     48 H                     0.248642
     49 H                     0.285184
     50 H                     0.206848
     51 H                     0.171416
     52 H                     0.179358
     53 H                     0.136729
     54 H                     0.168209
     55 H                     0.147371
     56 H                     0.130336
     57 H                     0.205510
     58 H                     0.165730
     59 H                     0.179827
     60 C                    -0.219095
     61 H                     0.191519
     62 H                     0.187909
     63 H                     0.186623
     64 H                     0.272746
  ----------------------------------------
  Sum of atomic charges =     0.000000

                    Cartesian Multipole Moments
 -----------------------------------------------------------------
    Charge (ESU x 10^10)
                 0.0000
    Dipole Moment (Debye)
         X       2.8155      Y       0.0611      Z       0.1807
       Tot       2.8220
    Quadrupole Moments (Debye-Ang)
        XX    -189.8787     XY       8.7211     YY    -164.6383
        XZ      19.9785     YZ       0.8323     ZZ    -207.9227

 Total job time:  7057.60s(wall), 7041.27s(cpu)
        *  Thank you very much for using Q-Chem.  Have a nice day.  *
