 Q-Chem 5.0, Q-Chem, Inc., Pleasanton, CA (2017)
 Q-Chem 5.0.1 for Intel X86 EM64T Linux

User input:
--------------------------------------------------------------
$molecule
0  1
--
0  1
C        +0.22270000        +1.04488000        +0.58595000
C        +0.62626000        -0.41353000        +0.99871000
C        -1.18200000        +1.23223000        +0.04377000
C        -0.37457000        -1.51643000        +0.72333000
O        -2.09172000        +0.78832000        +0.93966000
O        -1.47336000        +1.75939000        -0.99882000
O        -0.91364000        -1.42792000        -0.50620000
O        -0.62208000        -2.40877000        +1.49911000
C        -1.86134000        -2.44741000        -0.86560000
C        -3.47068000        +0.87492000        +0.53920000
C        +1.33008000        +1.39974000        -0.43491000
C        +2.63070000        +1.71700000        +0.32855000
C        +3.04336000        +0.29351000        +0.80300000
C        +1.94423000        -0.59299000        +0.15262000
O        +1.62840000        +0.13663000        -1.04376000
H        +0.27811000        +1.68786000        +1.46900000
H        +0.83923000        -0.48042000        +2.06408000
H        -2.68749000        -2.46677000        -0.15296000
H        -3.76076000        +1.91522000        +0.38406000
H        +3.37234000        +2.13782000        -0.35195000
H        +2.48236000        +2.42488000        +1.14651000
H        +4.02182000        +0.00994000        +0.41161000
H        +3.07359000        +0.18738000        +1.88928000
H        -2.21148000        -2.17765000        -1.85937000
H        -1.38062000        -3.42697000        -0.88096000
H        -4.03855000        +0.43623000        +1.35671000
H        -3.63120000        +0.31700000        -0.38495000
C        +0.90028000        +2.39077000        -1.49430000
C        +2.35450000        -2.01267000        -0.16812000
H        +3.26311000        -2.00678000        -0.77366000
H        +2.54990000        -2.57059000        +0.75079000
H        +1.57335000        -2.52896000        -0.72872000
H        +1.71845000        +2.58186000        -2.15686000
H        +0.59919000        +3.30478000        -1.02650000
H        +0.07925000        +1.98653000        -2.04874000
--
0  1
C        +0.25348000        +2.78827000        +6.22241000
C        +0.65704000        +1.32986000        +6.63517000
C        -1.15122000        +2.97562000        +5.68023000
C        -0.34379000        +0.22696000        +6.35979000
O        -2.06094000        +2.53171000        +6.57612000
O        -1.44258000        +3.50278000        +4.63764000
O        -0.88286000        +0.31547000        +5.13026000
O        -0.59130000        -0.66538000        +7.13557000
C        -1.83056000        -0.70402000        +4.77086000
C        -3.43990000        +2.61831000        +6.17566000
C        +1.36086000        +3.14313000        +5.20155000
C        +2.66148000        +3.46039000        +5.96501000
C        +3.07414000        +2.03690000        +6.43946000
C        +1.97501000        +1.15040000        +5.78908000
O        +1.65918000        +1.88002000        +4.59270000
H        +0.30889000        +3.43125000        +7.10546000
H        +0.87001000        +1.26297000        +7.70054000
H        -2.65671000        -0.72338000        +5.48350000
H        -3.72998000        +3.65861000        +6.02052000
H        +3.40312000        +3.88121000        +5.28451000
H        +2.51314000        +4.16827000        +6.78297000
H        +4.05260000        +1.75333000        +6.04807000
H        +3.10437000        +1.93077000        +7.52574000
H        -2.18070000        -0.43426000        +3.77709000
H        -1.34984000        -1.68358000        +4.75550000
H        -4.00777000        +2.17962000        +6.99317000
H        -3.60042000        +2.06039000        +5.25151000
C        +0.93106000        +4.13416000        +4.14216000
C        +2.38528000        -0.26928000        +5.46834000
H        +3.29389000        -0.26339000        +4.86280000
H        +2.58068000        -0.82720000        +6.38725000
H        +1.60413000        -0.78557000        +4.90774000
H        +1.74923000        +4.32525000        +3.47960000
H        +0.62997000        +5.04817000        +4.60996000
H        +0.11003000        +3.72992000        +3.58772000
$end

$rem
JOBTYPE                   SP
METHOD                    B3LYP
DFT_D                     d3_op
BASIS                     6-311++G(d,p)
SYMMETRY                  False
THRESH                    12
SCF_CONVERGENCE           8
MAX_SUB_FILE_NUM          128
MEM_STATIC                400
MEM_TOTAL                 4000
$end
--------------------------------------------------------------

             Standard Nuclear Orientation (Angstroms)
    I     Atom           X                Y                Z
 ----------------------------------------------------------------
    1      C      -2.1017699723     0.2517713986     0.8493193131
    2      C      -2.1856732135     0.3979877931    -0.7100947536
    3      C      -2.5643290311    -1.0704257109     1.4324789702
    4      C      -2.8150237027    -0.7425449018    -1.4827436886
    5      O      -1.8705438278    -2.0919237168     0.8825068126
    6      O      -3.3793714057    -1.2111118592     2.3075192885
    7      O      -3.9522867681    -1.1837963432    -0.9152012748
    8      O      -2.3760252265    -1.1731398324    -2.5225681102
    9      C      -4.6332965322    -2.2537904630    -1.5919595735
   10      C      -2.2319478480    -3.4131753478     1.3219151819
   11      C      -2.9411543087     1.4621345559     1.3234777118
   12      C      -2.1052362906     2.7461295530     1.1569382930
   13      C      -2.1193462890     2.9028890907    -0.3912678345
   14      C      -3.0330319413     1.7223109710    -0.8252920083
   15      O      -3.9273408280     1.5984430411     0.2919758150
   16      H      -1.0565081441     0.3510674104     1.1556506102
   17      H      -1.1991341857     0.5312865656    -1.1503400419
   18      H      -3.9730502291    -3.1157000715    -1.7012346749
   19      H      -2.0405043834    -3.5283283474     2.3898702851
   20      H      -2.6044366718     3.5849223346     1.6442013236
   21      H      -1.1019172021     2.6586444979     1.5786663849
   22      H      -2.5739175005     3.8480335162    -0.6930112308
   23      H      -1.1273934265     2.8486318060    -0.8443322161
   24      H      -5.4869225209    -2.4953549238    -0.9627405554
   25      H      -4.9644019227    -1.9306493179    -2.5802988181
   26      H      -1.6077037881    -4.0919355093     0.7449820402
   27      H      -3.2890754901    -3.6003669017     1.1256116169
   28      C      -3.6214154538     1.2578757633     2.6594039048
   29      C      -3.7972954788     1.9268026683    -2.1140011741
   30      H      -4.3600716728     2.8612605844    -2.0654535244
   31      H      -3.1099744598     1.9758085751    -2.9619632678
   32      H      -4.5023854639     1.1115161598    -2.2848199920
   33      H      -4.1782103409     2.1354100602     2.9139943644
   34      H      -2.8827687206     1.0735222406     3.4112822796
   35      H      -4.2843461967     0.4202481847     2.5977044590
   36      C       3.7949129068     0.2014086386     0.6579243078
   37      C       3.7110096656     0.3476250331    -0.9014897589
   38      C       3.3323538480    -1.1207884709     1.2410839649
   39      C       3.0816591764    -0.7929076618    -1.6741386939
   40      O       4.0261390513    -2.1422864769     0.6911118073
   41      O       2.5173114734    -1.2614746192     2.1161242832
   42      O       1.9443961110    -1.2341591032    -1.1065962801
   43      O       3.5206576526    -1.2235025925    -2.7139631155
   44      C       1.2633863469    -2.3041532231    -1.7833545788
   45      C       3.6647350311    -3.4635381078     1.1305201766
   46      C       2.9555285704     1.4117717958     1.1320827065
   47      C       3.7914465885     2.6957667929     0.9655432878
   48      C       3.7773365900     2.8525263306    -0.5826628398
   49      C       2.8636509377     1.6719482109    -1.0166870136
   50      O       1.9693420511     1.5480802811     0.1005808097
   51      H       4.8401747350     0.3007046503     0.9642556049
   52      H       4.6975486933     0.4809238055    -1.3417350472
   53      H       1.9236326500    -3.1660628315    -1.8926296801
   54      H       3.8561784957    -3.5786911074     2.1984752798
   55      H       3.2922462073     3.5345595745     1.4528063183
   56      H       4.7947656769     2.6082817379     1.3872713796
   57      H       3.3227653786     3.7976707562    -0.8844062361
   58      H       4.7692894525     2.7982690460    -1.0357272214
   59      H       0.4097603582    -2.5457176839    -1.1541355607
   60      H       0.9322809564    -1.9810120779    -2.7716938234
   61      H       4.2889790910    -4.1422982693     0.5535870349
   62      H       2.6076073890    -3.6507296617     0.9342166116
   63      C       2.2752674253     1.2075130033     2.4680088995
   64      C       2.0993874003     1.8764399083    -2.3053961794
   65      H       1.5366112063     2.8108978244    -2.2568485297
   66      H       2.7867084193     1.9254458151    -3.1533582731
   67      H       1.3942974152     1.0611533998    -2.4762149973
   68      H       1.7184725381     2.0850473001     2.7225993591
   69      H       3.0139141585     1.0231594805     3.2198872743
   70      H       1.6123366824     0.3698854246     2.4063094537
 ----------------------------------------------------------------

   15   -1689.0439390777      5.37E-09 Convergence criterion met
 Total energy in the final basis set = -1689.04393908

                    Orbital Energies (a.u.)
 --------------------------------------------------------------

 Alpha MOs
 -- Occupied --
-19.178 -19.172 -19.172 -19.172 -19.131 -19.120 -19.118 -19.115
-19.115 -19.112 -10.314 -10.306 -10.306 -10.304 -10.247 -10.237
-10.237 -10.234 -10.231 -10.230 -10.224 -10.224 -10.207 -10.206
-10.197 -10.196 -10.182 -10.179 -10.173 -10.170 -10.166 -10.165
-10.143 -10.130  -1.123  -1.118  -1.114  -1.111  -1.067  -1.055
 -1.037  -1.029  -1.026  -1.026  -0.836  -0.825  -0.808  -0.798
 -0.787  -0.777  -0.748  -0.745  -0.731  -0.727  -0.724  -0.716
 -0.677  -0.669  -0.648  -0.638  -0.605  -0.598  -0.583  -0.574
 -0.570  -0.566  -0.564  -0.556  -0.528  -0.519  -0.516  -0.511
 -0.511  -0.502  -0.496  -0.491  -0.489  -0.485  -0.482  -0.476
 -0.475  -0.473  -0.473  -0.467  -0.462  -0.453  -0.445  -0.439
 -0.438  -0.434  -0.430  -0.430  -0.418  -0.412  -0.409  -0.407
 -0.406  -0.402  -0.398  -0.395  -0.395  -0.391  -0.376  -0.373
 -0.370  -0.369  -0.368  -0.362  -0.359  -0.358  -0.354  -0.352
 -0.350  -0.348  -0.343  -0.339  -0.338  -0.333  -0.328  -0.323
 -0.322  -0.318  -0.312  -0.311  -0.285  -0.282  -0.278  -0.273
 -0.266  -0.265

          Ground-State Mulliken Net Atomic Charges

     Atom                 Charge (a.u.)
  ----------------------------------------
      1 C                     0.126724
      2 C                     0.511381
      3 C                    -0.580462
      4 C                    -0.692203
      5 O                     0.074450
      6 O                    -0.136906
      7 O                     0.025074
      8 O                    -0.099952
      9 C                    -0.165544
     10 C                    -0.223427
     11 C                    -0.613709
     12 C                    -0.208692
     13 C                    -0.102424
     14 C                    -0.527954
     15 O                     0.135209
     16 H                     0.214068
     17 H                     0.225035
     18 H                     0.192837
     19 H                     0.183116
     20 H                     0.192529
     21 H                     0.146330
     22 H                     0.190794
     23 H                     0.109905
     24 H                     0.173566
     25 H                     0.177443
     26 H                     0.134414
     27 H                     0.187440
     28 C                    -0.431901
     29 C                    -0.252044
     30 H                     0.174313
     31 H                     0.166682
     32 H                     0.175443
     33 H                     0.141075
     34 H                     0.151494
     35 H                     0.200583
     36 C                    -0.134730
     37 C                     0.520189
     38 C                    -0.518000
     39 C                    -0.773109
     40 O                     0.028811
     41 O                    -0.095711
     42 O                     0.031448
     43 O                    -0.105326
     44 C                    -0.262354
     45 C                    -0.164957
     46 C                     0.002284
     47 C                    -0.452092
     48 C                    -0.409910
     49 C                    -0.325129
     50 O                     0.284315
     51 H                     0.268857
     52 H                     0.286583
     53 H                     0.206606
     54 H                     0.168854
     55 H                     0.174459
     56 H                     0.148501
     57 H                     0.168849
     58 H                     0.146903
     59 H                     0.142437
     60 H                     0.205106
     61 H                     0.165415
     62 H                     0.177379
     63 C                    -0.600535
     64 C                    -0.324559
     65 H                     0.193091
     66 H                     0.189950
     67 H                     0.193811
     68 H                     0.128350
     69 H                     0.176455
     70 H                     0.183068
  ----------------------------------------
  Sum of atomic charges =     0.000000

                    Cartesian Multipole Moments
 -----------------------------------------------------------------
    Charge (ESU x 10^10)
                 0.0000
    Dipole Moment (Debye)
         X       2.4751      Y      -0.5678      Z       0.4872
       Tot       2.5857
    Quadrupole Moments (Debye-Ang)
        XX    -203.0898     XY      11.2663     YY    -179.8273
        XZ      17.9435     YZ      -6.2174     ZZ    -220.3588

 Total job time:  3578.26s(wall), 7121.17s(cpu)
        *  Thank you very much for using Q-Chem.  Have a nice day.  *
