 Q-Chem 5.0, Q-Chem, Inc., Pleasanton, CA (2017)
 Q-Chem 5.0.1 for Intel X86 EM64T Linux

User input:
--------------------------------------------------------------
$molecule
0  1
--
0  1
C        -0.54444000        -0.68370000        -0.06689000
C        -0.55709000        +0.71878000        +0.05493000
C        +0.74969000        -1.43776000        -0.09374000
C        +0.72843000        +1.48436000        +0.06598000
O        +1.53645000        -1.09176000        +0.94813000
O        +1.04702000        -2.28405000        -0.90088000
O        +1.53784000        +1.08301000        -0.93877000
O        +1.01035000        +2.37097000        +0.83478000
C        +2.83449000        +1.70121000        -0.99358000
C        +2.82316000        -1.73208000        +1.00475000
C        -1.74320000        -1.41616000        -0.12552000
C        -2.93952000        -0.70056000        -0.05285000
C        -2.95313000        +0.68255000        +0.06934000
C        -1.77161000        +1.42404000        +0.12810000
H        +2.73835000        +2.77989000        -1.12464000
H        +2.70778000        -2.81319000        +1.09555000
H        -3.90354000        +1.20325000        +0.11710000
H        +3.38998000        +1.50093000        -0.07544000
H        +3.33184000        +1.25269000        -1.85067000
H        +3.31095000        -1.32281000        +1.88650000
H        +3.39889000        -1.50934000        +0.10459000
H        -3.87892000        -1.24211000        -0.08988000
C        -1.83960000        +2.92746000        +0.24839000
H        -1.24214000        +3.42352000        -0.52065000
H        -1.45503000        +3.26427000        +1.21284000
H        -2.87211000        +3.26623000        +0.14638000
H        -1.73878000        -2.44393000        -0.21875000
--
0  1
C        -0.50384000        -1.19813000        +5.81050000
C        -0.51649000        +0.20435000        +5.93232000
C        +0.79029000        -1.95219000        +5.78365000
C        +0.76903000        +0.96993000        +5.94337000
O        +1.57705000        -1.60619000        +6.82552000
O        +1.08762000        -2.79848000        +4.97651000
O        +1.57844000        +0.56858000        +4.93862000
O        +1.05095000        +1.85654000        +6.71217000
C        +2.87509000        +1.18678000        +4.88381000
C        +2.86376000        -2.24651000        +6.88214000
C        -1.70260000        -1.93059000        +5.75187000
C        -2.89892000        -1.21499000        +5.82454000
C        -2.91253000        +0.16812000        +5.94673000
C        -1.73101000        +0.90961000        +6.00549000
H        +2.77895000        +2.26546000        +4.75275000
H        +2.74838000        -3.32762000        +6.97294000
H        -3.86294000        +0.68882000        +5.99449000
H        +3.43058000        +0.98650000        +5.80195000
H        +3.37244000        +0.73826000        +4.02672000
H        +3.35155000        -1.83724000        +7.76389000
H        +3.43949000        -2.02377000        +5.98198000
H        -3.83832000        -1.75654000        +5.78751000
C        -1.79900000        +2.41303000        +6.12578000
H        -1.20154000        +2.90909000        +5.35674000
H        -1.41443000        +2.74984000        +7.09023000
H        -2.83151000        +2.75180000        +6.02377000
H        -1.69818000        -2.95836000        +5.65864000
$end

$rem
JOBTYPE                   SP
METHOD                    B3LYP
DFT_D                     d3_op
BASIS                     6-311++G(d,p)
SYMMETRY                  False
THRESH                    12
SCF_CONVERGENCE           8
MAX_SUB_FILE_NUM          128
MEM_STATIC                400
MEM_TOTAL                 4000
$end
--------------------------------------------------------------

             Standard Nuclear Orientation (Angstroms)
    I     Atom           X                Y                Z
 ----------------------------------------------------------------
    1      C      -2.9221186818     0.2455746387     1.1982593119
    2      C      -2.9783620056     0.7485574685    -0.1154359521
    3      C      -2.8363366473    -1.2286397823     1.4501186901
    4      C      -3.0467900924    -0.1907501196    -1.2781119006
    5      O      -1.8360115761    -1.7873088375     0.7349690323
    6      O      -3.5262308377    -1.8450117124     2.2248564022
    7      O      -3.9819787821    -1.1443798096    -1.0737556872
    8      O      -2.3922699823    -0.1052632150    -2.2885103532
    9      C      -4.0969954479    -2.1487241994    -2.0957831388
   10      C      -1.6818802408    -3.2105816071     0.8741678311
   11      C      -2.9039044170     1.1123516265     2.3052040080
   12      C      -2.9380778670     2.4842488855     2.0497124867
   13      C      -2.9915236599     2.9814639188     0.7543246459
   14      C      -3.0109784569     2.1339625088    -0.3550051243
   15      H      -4.3643475471    -1.6936250093    -3.0504442033
   16      H      -1.4569835749    -3.4706446427     1.9096120468
   17      H      -3.0225341949     4.0542907048     0.5969406901
   18      H      -3.1535837621    -2.6863535782    -2.2079941905
   19      H      -4.8839378011    -2.8179565779    -1.7552244254
   20      H      -0.8523587219    -3.4763827735     0.2228861186
   21      H      -2.5951704648    -3.7239034844     0.5679525747
   22      H      -2.9190530656     3.1751965319     2.8859836092
   23      C      -3.0822117648     2.7235535246    -1.7430513305
   24      H      -3.8996275534     2.2916589019    -2.3259363622
   25      H      -2.1628977305     2.5341047703    -2.3002494455
   26      H      -3.2399310129     3.8020081009    -1.6855324762
   27      H      -2.8666783276     0.7480740381     3.2700556023
   28      C       2.9732287522     0.3621771921     0.9950789146
   29      C       2.9169854284     0.8651600219    -0.3186163495
   30      C       3.0590107867    -1.1120372289     1.2469382927
   31      C       2.8485573416    -0.0741475662    -1.4812922979
   32      O       4.0593358579    -1.6707062841     0.5317886349
   33      O       2.3691165963    -1.7284091590     2.0216760048
   34      O       1.9133686519    -1.0277772562    -1.2769360845
   35      O       3.5030774517     0.0113393384    -2.4916907506
   36      C       1.7983519861    -2.0321216460    -2.2989635362
   37      C       4.2134671932    -3.0939790537     0.6709874338
   38      C       2.9914430170     1.2289541799     2.1020236106
   39      C       2.9572695670     2.6008514389     1.8465320894
   40      C       2.9038237741     3.0980664722     0.5511442485
   41      C       2.8843689772     2.2505650622    -0.5581855217
   42      H       1.5309998869    -1.5770224559    -3.2536246006
   43      H       4.4383638591    -3.3540420893     1.7064316494
   44      H       2.8728132391     4.1708932582     0.3937602927
   45      H       2.7417636720    -2.5697510248    -2.4111745879
   46      H       1.0114096329    -2.7013540245    -1.9584048228
   47      H       5.0429887121    -3.3597802201     0.0197057212
   48      H       3.3001769692    -3.6073009309     0.3647721774
   49      H       2.9762943684     3.2917990853     2.6828032118
   50      C       2.8131356692     2.8401560780    -1.9462317279
   51      H       1.9957198806     2.4082614553    -2.5291167596
   52      H       3.7324497035     2.6507073237    -2.5034298429
   53      H       2.6554164211     3.9186106544    -1.8887128736
   54      H       3.0286691064     0.8646765915     3.0668752049
 ----------------------------------------------------------------

   14   -1455.0899209090      9.88E-09 Convergence criterion met
 Total energy in the final basis set = -1455.08992091

                    Orbital Energies (a.u.)
 --------------------------------------------------------------

 Alpha MOs
 -- Occupied --
-19.176 -19.176 -19.173 -19.171 -19.120 -19.118 -19.118 -19.115
-10.312 -10.310 -10.309 -10.307 -10.233 -10.232 -10.229 -10.227
-10.209 -10.208 -10.205 -10.205 -10.205 -10.204 -10.191 -10.191
-10.189 -10.188 -10.188 -10.187 -10.173 -10.171  -1.120  -1.120
 -1.113  -1.111  -1.032  -1.029  -1.029  -1.025  -0.884  -0.883
 -0.799  -0.798  -0.793  -0.792  -0.745  -0.744  -0.729  -0.728
 -0.702  -0.701  -0.653  -0.652  -0.624  -0.624  -0.580  -0.578
 -0.574  -0.571  -0.547  -0.547  -0.519  -0.518  -0.512  -0.511
 -0.490  -0.490  -0.487  -0.486  -0.481  -0.479  -0.476  -0.475
 -0.470  -0.469  -0.445  -0.444  -0.433  -0.432  -0.430  -0.429
 -0.427  -0.426  -0.411  -0.409  -0.405  -0.403  -0.394  -0.393
 -0.382  -0.381  -0.376  -0.375  -0.368  -0.368  -0.363  -0.362
 -0.361  -0.360  -0.320  -0.320  -0.311  -0.310  -0.295  -0.294
 -0.292  -0.291  -0.267  -0.266  -0.262  -0.261

          Ground-State Mulliken Net Atomic Charges

     Atom                 Charge (a.u.)
  ----------------------------------------
      1 C                     0.458985
      2 C                     1.632579
      3 C                    -0.617419
      4 C                    -1.337047
      5 O                     0.096952
      6 O                    -0.181829
      7 O                     0.069459
      8 O                    -0.089713
      9 C                    -0.203087
     10 C                    -0.310424
     11 C                    -0.550158
     12 C                    -0.133268
     13 C                    -0.485271
     14 C                     0.164985
     15 H                     0.167959
     16 H                     0.192747
     17 H                     0.139692
     18 H                     0.175409
     19 H                     0.172343
     20 H                     0.116756
     21 H                     0.183370
     22 H                     0.185482
     23 C                    -0.544612
     24 H                     0.171697
     25 H                     0.186496
     26 H                     0.148184
     27 H                     0.185357
     28 C                     0.576872
     29 C                     1.420349
     30 C                    -0.836480
     31 C                    -0.904774
     32 O                     0.064518
     33 O                    -0.109695
     34 O                     0.098560
     35 O                    -0.162460
     36 C                    -0.306626
     37 C                    -0.197580
     38 C                    -0.631216
     39 C                    -0.133938
     40 C                    -0.510640
     41 C                     0.168726
     42 H                     0.187945
     43 H                     0.171233
     44 H                     0.141807
     45 H                     0.191310
     46 H                     0.121586
     47 H                     0.170787
     48 H                     0.171783
     49 H                     0.185887
     50 C                    -0.584264
     51 H                     0.188569
     52 H                     0.211110
     53 H                     0.138345
     54 H                     0.172665
  ----------------------------------------
  Sum of atomic charges =    -0.000000

                    Cartesian Multipole Moments
 -----------------------------------------------------------------
    Charge (ESU x 10^10)
                 0.0000
    Dipole Moment (Debye)
         X       0.2706      Y       0.3485      Z      -0.8379
       Tot       0.9470
    Quadrupole Moments (Debye-Ang)
        XX    -183.1069     XY      -7.0881     YY    -143.8204
        XZ      17.0518     YZ      14.1374     ZZ    -179.7614

 Total job time:  1512.57s(wall), 3010.63s(cpu)
        *  Thank you very much for using Q-Chem.  Have a nice day.  *
