 Q-Chem 5.0, Q-Chem, Inc., Pleasanton, CA (2017)
 Q-Chem 5.0.1 for Intel X86 EM64T Linux

User input:
--------------------------------------------------------------
$molecule
0  1
C        -0.54444000        -0.68370000        -0.06689000
C        -0.55709000        +0.71878000        +0.05493000
C        +0.74969000        -1.43776000        -0.09374000
C        +0.72843000        +1.48436000        +0.06598000
O        +1.53645000        -1.09176000        +0.94813000
O        +1.04702000        -2.28405000        -0.90088000
O        +1.53784000        +1.08301000        -0.93877000
O        +1.01035000        +2.37097000        +0.83478000
C        +2.83449000        +1.70121000        -0.99358000
C        +2.82316000        -1.73208000        +1.00475000
C        -1.74320000        -1.41616000        -0.12552000
C        -2.93952000        -0.70056000        -0.05285000
C        -2.95313000        +0.68255000        +0.06934000
C        -1.77161000        +1.42404000        +0.12810000
H        +2.73835000        +2.77989000        -1.12464000
H        +2.70778000        -2.81319000        +1.09555000
H        -3.90354000        +1.20325000        +0.11710000
H        +3.38998000        +1.50093000        -0.07544000
H        +3.33184000        +1.25269000        -1.85067000
H        +3.31095000        -1.32281000        +1.88650000
H        +3.39889000        -1.50934000        +0.10459000
H        -3.87892000        -1.24211000        -0.08988000
C        -1.83960000        +2.92746000        +0.24839000
H        -1.24214000        +3.42352000        -0.52065000
H        -1.45503000        +3.26427000        +1.21284000
H        -2.87211000        +3.26623000        +0.14638000
H        -1.73878000        -2.44393000        -0.21875000
@C        -0.50384000        -1.19813000        +5.81050000
@C        -0.51649000        +0.20435000        +5.93232000
@C        +0.79029000        -1.95219000        +5.78365000
@C        +0.76903000        +0.96993000        +5.94337000
@O        +1.57705000        -1.60619000        +6.82552000
@O        +1.08762000        -2.79848000        +4.97651000
@O        +1.57844000        +0.56858000        +4.93862000
@O        +1.05095000        +1.85654000        +6.71217000
@C        +2.87509000        +1.18678000        +4.88381000
@C        +2.86376000        -2.24651000        +6.88214000
@C        -1.70260000        -1.93059000        +5.75187000
@C        -2.89892000        -1.21499000        +5.82454000
@C        -2.91253000        +0.16812000        +5.94673000
@C        -1.73101000        +0.90961000        +6.00549000
@H        +2.77895000        +2.26546000        +4.75275000
@H        +2.74838000        -3.32762000        +6.97294000
@H        -3.86294000        +0.68882000        +5.99449000
@H        +3.43058000        +0.98650000        +5.80195000
@H        +3.37244000        +0.73826000        +4.02672000
@H        +3.35155000        -1.83724000        +7.76389000
@H        +3.43949000        -2.02377000        +5.98198000
@H        -3.83832000        -1.75654000        +5.78751000
@C        -1.79900000        +2.41303000        +6.12578000
@H        -1.20154000        +2.90909000        +5.35674000
@H        -1.41443000        +2.74984000        +7.09023000
@H        -2.83151000        +2.75180000        +6.02377000
@H        -1.69818000        -2.95836000        +5.65864000
$end

$rem
JOBTYPE                   SP
METHOD                    B3LYP
DFT_D                     d3_op
BASIS                     6-311++G(d,p)
SYMMETRY                  False
THRESH                    12
SCF_CONVERGENCE           8
MAX_SUB_FILE_NUM          128
MEM_STATIC                400
MEM_TOTAL                 4000
$end
--------------------------------------------------------------

             Standard Nuclear Orientation (Angstroms)
    I     Atom           X                Y                Z
 ----------------------------------------------------------------
    1      C      -0.5444400000    -0.6837000000    -0.0668900000
    2      C      -0.5570900000     0.7187800000     0.0549300000
    3      C       0.7496900000    -1.4377600000    -0.0937400000
    4      C       0.7284300000     1.4843600000     0.0659800000
    5      O       1.5364500000    -1.0917600000     0.9481300000
    6      O       1.0470200000    -2.2840500000    -0.9008800000
    7      O       1.5378400000     1.0830100000    -0.9387700000
    8      O       1.0103500000     2.3709700000     0.8347800000
    9      C       2.8344900000     1.7012100000    -0.9935800000
   10      C       2.8231600000    -1.7320800000     1.0047500000
   11      C      -1.7432000000    -1.4161600000    -0.1255200000
   12      C      -2.9395200000    -0.7005600000    -0.0528500000
   13      C      -2.9531300000     0.6825500000     0.0693400000
   14      C      -1.7716100000     1.4240400000     0.1281000000
   15      H       2.7383500000     2.7798900000    -1.1246400000
   16      H       2.7077800000    -2.8131900000     1.0955500000
   17      H      -3.9035400000     1.2032500000     0.1171000000
   18      H       3.3899800000     1.5009300000    -0.0754400000
   19      H       3.3318400000     1.2526900000    -1.8506700000
   20      H       3.3109500000    -1.3228100000     1.8865000000
   21      H       3.3988900000    -1.5093400000     0.1045900000
   22      H      -3.8789200000    -1.2421100000    -0.0898800000
   23      C      -1.8396000000     2.9274600000     0.2483900000
   24      H      -1.2421400000     3.4235200000    -0.5206500000
   25      H      -1.4550300000     3.2642700000     1.2128400000
   26      H      -2.8721100000     3.2662300000     0.1463800000
   27      H      -1.7387800000    -2.4439300000    -0.2187500000
   28      GH     -0.5038400000    -1.1981300000     5.8105000000
   29      GH     -0.5164900000     0.2043500000     5.9323200000
   30      GH      0.7902900000    -1.9521900000     5.7836500000
   31      GH      0.7690300000     0.9699300000     5.9433700000
   32      GH      1.5770500000    -1.6061900000     6.8255200000
   33      GH      1.0876200000    -2.7984800000     4.9765100000
   34      GH      1.5784400000     0.5685800000     4.9386200000
   35      GH      1.0509500000     1.8565400000     6.7121700000
   36      GH      2.8750900000     1.1867800000     4.8838100000
   37      GH      2.8637600000    -2.2465100000     6.8821400000
   38      GH     -1.7026000000    -1.9305900000     5.7518700000
   39      GH     -2.8989200000    -1.2149900000     5.8245400000
   40      GH     -2.9125300000     0.1681200000     5.9467300000
   41      GH     -1.7310100000     0.9096100000     6.0054900000
   42      GH      2.7789500000     2.2654600000     4.7527500000
   43      GH      2.7483800000    -3.3276200000     6.9729400000
   44      GH     -3.8629400000     0.6888200000     5.9944900000
   45      GH      3.4305800000     0.9865000000     5.8019500000
   46      GH      3.3724400000     0.7382600000     4.0267200000
   47      GH      3.3515500000    -1.8372400000     7.7638900000
   48      GH      3.4394900000    -2.0237700000     5.9819800000
   49      GH     -3.8383200000    -1.7565400000     5.7875100000
   50      GH     -1.7990000000     2.4130300000     6.1257800000
   51      GH     -1.2015400000     2.9090900000     5.3567400000
   52      GH     -1.4144300000     2.7498400000     7.0902300000
   53      GH     -2.8315100000     2.7518000000     6.0237700000
   54      GH     -1.6981800000    -2.9583600000     5.6586400000
 ----------------------------------------------------------------

   14    -727.5440433331      5.52E-09 Convergence criterion met
 Total energy in the final basis set = -727.54404333

                    Orbital Energies (a.u.)
 --------------------------------------------------------------

 Alpha MOs
 -- Occupied --
-19.178 -19.177 -19.121 -19.119 -10.313 -10.312 -10.233 -10.232
-10.211 -10.208 -10.207 -10.193 -10.191 -10.190 -10.174  -1.122
 -1.115  -1.033  -1.030  -0.886  -0.801  -0.795  -0.747  -0.731
 -0.704  -0.655  -0.627  -0.581  -0.575  -0.550  -0.521  -0.514
 -0.492  -0.490  -0.482  -0.478  -0.472  -0.447  -0.435  -0.432
 -0.429  -0.412  -0.407  -0.396  -0.384  -0.378  -0.371  -0.365
 -0.364  -0.322  -0.314  -0.296  -0.294  -0.269  -0.264

          Ground-State Mulliken Net Atomic Charges

     Atom                 Charge (a.u.)
  ----------------------------------------
      1 C                     0.454645
      2 C                     1.604063
      3 C                    -0.606631
      4 C                    -1.326333
      5 O                     0.088647
      6 O                    -0.177741
      7 O                     0.067672
      8 O                    -0.081395
      9 C                    -0.202660
     10 C                    -0.315561
     11 C                    -0.548118
     12 C                    -0.135712
     13 C                    -0.484338
     14 C                     0.159213
     15 H                     0.168096
     16 H                     0.189664
     17 H                     0.141895
     18 H                     0.178444
     19 H                     0.171909
     20 H                     0.121846
     21 H                     0.186303
     22 H                     0.187637
     23 C                    -0.542676
     24 H                     0.172106
     25 H                     0.192724
     26 H                     0.148637
     27 H                     0.185292
     28 GH                    0.005332
     29 GH                    0.017673
     30 GH                   -0.004621
     31 GH                    0.000455
     32 GH                    0.000021
     33 GH                    0.000968
     34 GH                   -0.000596
     35 GH                   -0.000082
     36 GH                   -0.003821
     37 GH                   -0.001629
     38 GH                   -0.004651
     39 GH                   -0.001413
     40 GH                   -0.003085
     41 GH                   -0.007854
     42 GH                   -0.000747
     43 GH                    0.000084
     44 GH                   -0.000666
     45 GH                    0.000340
     46 GH                    0.011372
     47 GH                   -0.000077
     48 GH                    0.001072
     49 GH                   -0.000222
     50 GH                   -0.005257
     51 GH                   -0.000017
     52 GH                    0.000029
     53 GH                    0.000256
     54 GH                   -0.000488
  ----------------------------------------
  Sum of atomic charges =     0.000000

                    Cartesian Multipole Moments
 -----------------------------------------------------------------
    Charge (ESU x 10^10)
                 0.0000
    Dipole Moment (Debye)
         X       0.0044      Y       0.4767      Z       0.2059
       Tot       0.5193
    Quadrupole Moments (Debye-Ang)
        XX     -68.7532     XY      -0.6881     YY     -89.6907
        XZ      -0.0838     YZ      -9.3201     ZZ     -93.2745

 Total job time:  1459.67s(wall), 2867.83s(cpu)
        *  Thank you very much for using Q-Chem.  Have a nice day.  *
