 Q-Chem 5.0, Q-Chem, Inc., Pleasanton, CA (2017)
 Q-Chem 5.0.1 for Intel X86 EM64T Linux

User input:
--------------------------------------------------------------
$molecule
0  1
C        -0.54444000        -0.68370000        -0.06689000
C        -0.55709000        +0.71878000        +0.05493000
C        +0.74969000        -1.43776000        -0.09374000
C        +0.72843000        +1.48436000        +0.06598000
O        +1.53645000        -1.09176000        +0.94813000
O        +1.04702000        -2.28405000        -0.90088000
O        +1.53784000        +1.08301000        -0.93877000
O        +1.01035000        +2.37097000        +0.83478000
C        +2.83449000        +1.70121000        -0.99358000
C        +2.82316000        -1.73208000        +1.00475000
C        -1.74320000        -1.41616000        -0.12552000
C        -2.93952000        -0.70056000        -0.05285000
C        -2.95313000        +0.68255000        +0.06934000
C        -1.77161000        +1.42404000        +0.12810000
H        +2.73835000        +2.77989000        -1.12464000
H        +2.70778000        -2.81319000        +1.09555000
H        -3.90354000        +1.20325000        +0.11710000
H        +3.38998000        +1.50093000        -0.07544000
H        +3.33184000        +1.25269000        -1.85067000
H        +3.31095000        -1.32281000        +1.88650000
H        +3.39889000        -1.50934000        +0.10459000
H        -3.87892000        -1.24211000        -0.08988000
C        -1.83960000        +2.92746000        +0.24839000
C        -1.78103000        -2.92226000        -0.24590000
H        -1.39752000        -3.25223000        -1.21323000
H        -2.80572000        -3.28175000        -0.13627000
H        -1.16958000        -3.40777000        +0.51926000
H        -1.24214000        +3.42352000        -0.52065000
H        -1.45503000        +3.26427000        +1.21284000
H        -2.87211000        +3.26623000        +0.14638000
@C        -0.50384000        -1.19813000        +5.81050000
@C        -0.51649000        +0.20435000        +5.93232000
@C        +0.79029000        -1.95219000        +5.78365000
@C        +0.76903000        +0.96993000        +5.94337000
@O        +1.57705000        -1.60619000        +6.82552000
@O        +1.08762000        -2.79848000        +4.97651000
@O        +1.57844000        +0.56858000        +4.93862000
@O        +1.05095000        +1.85654000        +6.71217000
@C        +2.87509000        +1.18678000        +4.88381000
@C        +2.86376000        -2.24651000        +6.88214000
@C        -1.70260000        -1.93059000        +5.75187000
@C        -2.89892000        -1.21499000        +5.82454000
@C        -2.91253000        +0.16812000        +5.94673000
@C        -1.73101000        +0.90961000        +6.00549000
@H        +2.77895000        +2.26546000        +4.75275000
@H        +2.74838000        -3.32762000        +6.97294000
@H        -3.86294000        +0.68882000        +5.99449000
@H        +3.43058000        +0.98650000        +5.80195000
@H        +3.37244000        +0.73826000        +4.02672000
@H        +3.35155000        -1.83724000        +7.76389000
@H        +3.43949000        -2.02377000        +5.98198000
@H        -3.83832000        -1.75654000        +5.78751000
@C        -1.79900000        +2.41303000        +6.12578000
@C        -1.74043000        -3.43669000        +5.63149000
@H        -1.35692000        -3.76666000        +4.66416000
@H        -2.76512000        -3.79618000        +5.74112000
@H        -1.12898000        -3.92220000        +6.39665000
@H        -1.20154000        +2.90909000        +5.35674000
@H        -1.41443000        +2.74984000        +7.09023000
@H        -2.83151000        +2.75180000        +6.02377000
$end

$rem
JOBTYPE                   SP
METHOD                    B3LYP
DFT_D                     d3_op
BASIS                     6-311++G(d,p)
SYMMETRY                  False
THRESH                    12
SCF_CONVERGENCE           8
MAX_SUB_FILE_NUM          128
MEM_STATIC                400
MEM_TOTAL                 4000
$end
--------------------------------------------------------------

             Standard Nuclear Orientation (Angstroms)
    I     Atom           X                Y                Z
 ----------------------------------------------------------------
    1      C      -0.5444400000    -0.6837000000    -0.0668900000
    2      C      -0.5570900000     0.7187800000     0.0549300000
    3      C       0.7496900000    -1.4377600000    -0.0937400000
    4      C       0.7284300000     1.4843600000     0.0659800000
    5      O       1.5364500000    -1.0917600000     0.9481300000
    6      O       1.0470200000    -2.2840500000    -0.9008800000
    7      O       1.5378400000     1.0830100000    -0.9387700000
    8      O       1.0103500000     2.3709700000     0.8347800000
    9      C       2.8344900000     1.7012100000    -0.9935800000
   10      C       2.8231600000    -1.7320800000     1.0047500000
   11      C      -1.7432000000    -1.4161600000    -0.1255200000
   12      C      -2.9395200000    -0.7005600000    -0.0528500000
   13      C      -2.9531300000     0.6825500000     0.0693400000
   14      C      -1.7716100000     1.4240400000     0.1281000000
   15      H       2.7383500000     2.7798900000    -1.1246400000
   16      H       2.7077800000    -2.8131900000     1.0955500000
   17      H      -3.9035400000     1.2032500000     0.1171000000
   18      H       3.3899800000     1.5009300000    -0.0754400000
   19      H       3.3318400000     1.2526900000    -1.8506700000
   20      H       3.3109500000    -1.3228100000     1.8865000000
   21      H       3.3988900000    -1.5093400000     0.1045900000
   22      H      -3.8789200000    -1.2421100000    -0.0898800000
   23      C      -1.8396000000     2.9274600000     0.2483900000
   24      C      -1.7810300000    -2.9222600000    -0.2459000000
   25      H      -1.3975200000    -3.2522300000    -1.2132300000
   26      H      -2.8057200000    -3.2817500000    -0.1362700000
   27      H      -1.1695800000    -3.4077700000     0.5192600000
   28      H      -1.2421400000     3.4235200000    -0.5206500000
   29      H      -1.4550300000     3.2642700000     1.2128400000
   30      H      -2.8721100000     3.2662300000     0.1463800000
   31      GH     -0.5038400000    -1.1981300000     5.8105000000
   32      GH     -0.5164900000     0.2043500000     5.9323200000
   33      GH      0.7902900000    -1.9521900000     5.7836500000
   34      GH      0.7690300000     0.9699300000     5.9433700000
   35      GH      1.5770500000    -1.6061900000     6.8255200000
   36      GH      1.0876200000    -2.7984800000     4.9765100000
   37      GH      1.5784400000     0.5685800000     4.9386200000
   38      GH      1.0509500000     1.8565400000     6.7121700000
   39      GH      2.8750900000     1.1867800000     4.8838100000
   40      GH      2.8637600000    -2.2465100000     6.8821400000
   41      GH     -1.7026000000    -1.9305900000     5.7518700000
   42      GH     -2.8989200000    -1.2149900000     5.8245400000
   43      GH     -2.9125300000     0.1681200000     5.9467300000
   44      GH     -1.7310100000     0.9096100000     6.0054900000
   45      GH      2.7789500000     2.2654600000     4.7527500000
   46      GH      2.7483800000    -3.3276200000     6.9729400000
   47      GH     -3.8629400000     0.6888200000     5.9944900000
   48      GH      3.4305800000     0.9865000000     5.8019500000
   49      GH      3.3724400000     0.7382600000     4.0267200000
   50      GH      3.3515500000    -1.8372400000     7.7638900000
   51      GH      3.4394900000    -2.0237700000     5.9819800000
   52      GH     -3.8383200000    -1.7565400000     5.7875100000
   53      GH     -1.7990000000     2.4130300000     6.1257800000
   54      GH     -1.7404300000    -3.4366900000     5.6314900000
   55      GH     -1.3569200000    -3.7666600000     4.6641600000
   56      GH     -2.7651200000    -3.7961800000     5.7411200000
   57      GH     -1.1289800000    -3.9222000000     6.3966500000
   58      GH     -1.2015400000     2.9090900000     5.3567400000
   59      GH     -1.4144300000     2.7498400000     7.0902300000
   60      GH     -2.8315100000     2.7518000000     6.0237700000
 ----------------------------------------------------------------

   14    -766.8767259666      6.05E-09 Convergence criterion met
 Total energy in the final basis set = -766.87672597

                    Orbital Energies (a.u.)
 --------------------------------------------------------------

 Alpha MOs
 -- Occupied --
-19.176 -19.176 -19.119 -19.119 -10.311 -10.311 -10.232 -10.232
-10.205 -10.205 -10.201 -10.201 -10.187 -10.186 -10.171 -10.170
 -1.121  -1.114  -1.031  -1.030  -0.885  -0.807  -0.795  -0.747
 -0.734  -0.725  -0.675  -0.649  -0.620  -0.577  -0.565  -0.537
 -0.517  -0.515  -0.491  -0.489  -0.480  -0.477  -0.469  -0.442
 -0.434  -0.429  -0.420  -0.416  -0.411  -0.406  -0.396  -0.387
 -0.380  -0.373  -0.362  -0.359  -0.357  -0.321  -0.313  -0.293
 -0.292  -0.266  -0.253

          Ground-State Mulliken Net Atomic Charges

     Atom                 Charge (a.u.)
  ----------------------------------------
      1 C                     0.527606
      2 C                     0.822090
      3 C                    -0.729015
      4 C                    -1.070266
      5 O                     0.113941
      6 O                    -0.152237
      7 O                     0.063761
      8 O                    -0.082399
      9 C                    -0.194876
     10 C                    -0.307572
     11 C                     0.538722
     12 C                    -0.477403
     13 C                    -0.481151
     14 C                     0.369715
     15 H                     0.167595
     16 H                     0.183329
     17 H                     0.155283
     18 H                     0.176253
     19 H                     0.171824
     20 H                     0.118321
     21 H                     0.190446
     22 H                     0.151398
     23 C                    -0.646738
     24 C                    -0.648015
     25 H                     0.211685
     26 H                     0.138528
     27 H                     0.183880
     28 H                     0.171545
     29 H                     0.193548
     30 H                     0.140114
     31 GH                    0.021489
     32 GH                    0.002883
     33 GH                   -0.018694
     34 GH                    0.005498
     35 GH                    0.000037
     36 GH                    0.001548
     37 GH                   -0.000741
     38 GH                   -0.000075
     39 GH                   -0.004202
     40 GH                   -0.001697
     41 GH                   -0.000092
     42 GH                   -0.001293
     43 GH                    0.000337
     44 GH                   -0.006478
     45 GH                   -0.000674
     46 GH                    0.000040
     47 GH                   -0.000812
     48 GH                    0.000312
     49 GH                    0.012679
     50 GH                   -0.000074
     51 GH                    0.001131
     52 GH                   -0.000310
     53 GH                   -0.004294
     54 GH                   -0.003857
     55 GH                   -0.002742
     56 GH                    0.000042
     57 GH                   -0.000035
     58 GH                   -0.000116
     59 GH                    0.000016
     60 GH                    0.000261
  ----------------------------------------
  Sum of atomic charges =     0.000000

                    Cartesian Multipole Moments
 -----------------------------------------------------------------
    Charge (ESU x 10^10)
                 0.0000
    Dipole Moment (Debye)
         X       0.0688      Y      -0.1076      Z       0.0771
       Tot       0.1492
    Quadrupole Moments (Debye-Ang)
        XX     -76.1446     XY      -0.0663     YY     -95.4307
        XZ       0.0818     YZ      -8.9478     ZZ     -99.5061

 Total job time:  2044.11s(wall), 4065.45s(cpu)
        *  Thank you very much for using Q-Chem.  Have a nice day.  *
