 Q-Chem 5.0, Q-Chem, Inc., Pleasanton, CA (2017)
 Q-Chem 5.0.1 for Intel X86 EM64T Linux

User input:
--------------------------------------------------------------
$molecule
0  1
--
0  1
C        -0.54444000        -0.68370000        -0.06689000
C        -0.55709000        +0.71878000        +0.05493000
C        +0.74969000        -1.43776000        -0.09374000
C        +0.72843000        +1.48436000        +0.06598000
O        +1.53645000        -1.09176000        +0.94813000
O        +1.04702000        -2.28405000        -0.90088000
O        +1.53784000        +1.08301000        -0.93877000
O        +1.01035000        +2.37097000        +0.83478000
C        +2.83449000        +1.70121000        -0.99358000
C        +2.82316000        -1.73208000        +1.00475000
C        -1.74320000        -1.41616000        -0.12552000
C        -2.93952000        -0.70056000        -0.05285000
C        -2.95313000        +0.68255000        +0.06934000
C        -1.77161000        +1.42404000        +0.12810000
H        +2.73835000        +2.77989000        -1.12464000
H        +2.70778000        -2.81319000        +1.09555000
H        -3.90354000        +1.20325000        +0.11710000
H        +3.38998000        +1.50093000        -0.07544000
H        +3.33184000        +1.25269000        -1.85067000
H        +3.31095000        -1.32281000        +1.88650000
H        +3.39889000        -1.50934000        +0.10459000
H        -3.87892000        -1.24211000        -0.08988000
C        -1.83960000        +2.92746000        +0.24839000
C        -1.78103000        -2.92226000        -0.24590000
H        -1.39752000        -3.25223000        -1.21323000
H        -2.80572000        -3.28175000        -0.13627000
H        -1.16958000        -3.40777000        +0.51926000
H        -1.24214000        +3.42352000        -0.52065000
H        -1.45503000        +3.26427000        +1.21284000
H        -2.87211000        +3.26623000        +0.14638000
--
0  1
C        -0.50384000        -1.19813000        +5.81050000
C        -0.51649000        +0.20435000        +5.93232000
C        +0.79029000        -1.95219000        +5.78365000
C        +0.76903000        +0.96993000        +5.94337000
O        +1.57705000        -1.60619000        +6.82552000
O        +1.08762000        -2.79848000        +4.97651000
O        +1.57844000        +0.56858000        +4.93862000
O        +1.05095000        +1.85654000        +6.71217000
C        +2.87509000        +1.18678000        +4.88381000
C        +2.86376000        -2.24651000        +6.88214000
C        -1.70260000        -1.93059000        +5.75187000
C        -2.89892000        -1.21499000        +5.82454000
C        -2.91253000        +0.16812000        +5.94673000
C        -1.73101000        +0.90961000        +6.00549000
H        +2.77895000        +2.26546000        +4.75275000
H        +2.74838000        -3.32762000        +6.97294000
H        -3.86294000        +0.68882000        +5.99449000
H        +3.43058000        +0.98650000        +5.80195000
H        +3.37244000        +0.73826000        +4.02672000
H        +3.35155000        -1.83724000        +7.76389000
H        +3.43949000        -2.02377000        +5.98198000
H        -3.83832000        -1.75654000        +5.78751000
C        -1.79900000        +2.41303000        +6.12578000
C        -1.74043000        -3.43669000        +5.63149000
H        -1.35692000        -3.76666000        +4.66416000
H        -2.76512000        -3.79618000        +5.74112000
H        -1.12898000        -3.92220000        +6.39665000
H        -1.20154000        +2.90909000        +5.35674000
H        -1.41443000        +2.74984000        +7.09023000
H        -2.83151000        +2.75180000        +6.02377000
$end

$rem
JOBTYPE                   SP
METHOD                    B3LYP
DFT_D                     d3_op
BASIS                     6-311++G(d,p)
SYMMETRY                  False
THRESH                    12
SCF_CONVERGENCE           8
MAX_SUB_FILE_NUM          128
MEM_STATIC                400
MEM_TOTAL                 4000
$end
--------------------------------------------------------------

             Standard Nuclear Orientation (Angstroms)
    I     Atom           X                Y                Z
 ----------------------------------------------------------------
    1      C      -2.9283296957     0.4972515614     0.8298979980
    2      C      -2.9852060272     0.5649262214    -0.5751413283
    3      C      -2.8468010087    -0.8248268660     1.5295847621
    4      C      -3.0585896767    -0.6903014260    -1.3861992193
    5      O      -1.8494702029    -1.5824669077     1.0241016018
    6      O      -3.5373323321    -1.1659160803     2.4585150674
    7      O      -3.9964529779    -1.5290627933    -0.8936134602
    8      O      -2.4055177514    -0.9270154318    -2.3731506661
    9      C      -4.1163926066    -2.8019754137    -1.5507166065
   10      C      -1.6996221906    -2.8915852110     1.6008103603
   11      C      -2.9054844293     1.6663482930     1.6106998885
   12      C      -2.9357358717     2.8899120629     0.9394902472
   13      C      -2.9898019216     2.9578160274    -0.4463578015
   14      C      -3.0138305647     1.8062897195    -1.2354455372
   15      H      -4.3839188367    -2.6668938492    -2.5995983218
   16      H      -1.4737947678    -2.8160068964     2.6655384523
   17      H      -3.0176734089     3.9279081323    -0.9309536784
   18      H      -3.1748844140    -3.3510965199    -1.4899661987
   19      H      -4.9048763902    -3.3285532754    -1.0176691792
   20      H      -0.8720555976    -3.3504575972     1.0646259265
   21      H      -2.6150560627    -3.4716288236     1.4708242097
   22      H      -2.9130978225     3.8074292580     1.5180831082
   23      C      -3.0855480426     1.9330679652    -2.7381590497
   24      C      -2.8345537136     1.6451992334     3.1202631413
   25      H      -3.7485113886     1.2352451820     3.5542061028
   26      H      -2.6903318691     2.6570055321     3.5032637504
   27      H      -2.0081218451     1.0270850479     3.4808267401
   28      H      -3.9053192845     1.3436180187    -3.1564655980
   29      H      -2.1677873854     1.5757962114    -3.2088724800
   30      H      -3.2397447151     2.9760813307    -3.0202841259
   31      C       2.9670047856     0.5236485945     0.5968007068
   32      C       2.9101284541     0.5913232544    -0.8082386195
   33      C       3.0485334726    -0.7984298330     1.2964874709
   34      C       2.8367448046    -0.6639043929    -1.6192965105
   35      O       4.0458642784    -1.5560698747     0.7910043106
   36      O       2.3580021492    -1.1395190473     2.2254177762
   37      O       1.8988815034    -1.5026657603    -1.1267107514
   38      O       3.4898167299    -0.9006183987    -2.6062479573
   39      C       1.7789418747    -2.7755783807    -1.7838138977
   40      C       4.1957122907    -2.8651881780     1.3677130691
   41      C       2.9898500520     1.6927453260     1.3776025973
   42      C       2.9595986096     2.9163090959     0.7063929560
   43      C       2.9055325597     2.9842130604    -0.6794550927
   44      C       2.8815039166     1.8326867525    -1.4685428285
   45      H       1.5114156446    -2.6404968161    -2.8326956130
   46      H       4.4215397135    -2.7896098633     2.4324411611
   47      H       2.8776610724     3.9543051653    -1.1640509696
   48      H       2.7204500673    -3.3246994869    -1.7230634899
   49      H       0.9904580911    -3.3021562423    -1.2507664704
   50      H       5.0232788837    -3.3240605642     0.8315286353
   51      H       3.2802784186    -3.4452317906     1.2377269185
   52      H       2.9822366588     3.8338262910     1.2849858169
   53      C       2.8097864387     1.9594649982    -2.9712563409
   54      C       3.0607807677     1.6715962664     2.8871658501
   55      H       2.1468230927     1.2616422150     3.3211088116
   56      H       3.2050026122     2.6834025651     3.2701664592
   57      H       3.8872126362     1.0534820810     3.2477294489
   58      H       1.9900151968     1.3700150517    -3.3895628892
   59      H       3.7275470959     1.6021932444    -3.4419697712
   60      H       2.6555897662     3.0024783638    -3.2533814171
 ----------------------------------------------------------------

   14   -1533.7557200225      9.47E-09 Convergence criterion met
 Total energy in the final basis set = -1533.75572002

                    Orbital Energies (a.u.)
 --------------------------------------------------------------

 Alpha MOs
 -- Occupied --
-19.175 -19.175 -19.171 -19.171 -19.118 -19.118 -19.115 -19.115
-10.310 -10.309 -10.307 -10.306 -10.232 -10.231 -10.228 -10.227
-10.203 -10.202 -10.202 -10.202 -10.199 -10.199 -10.198 -10.198
-10.184 -10.184 -10.184 -10.183 -10.170 -10.169 -10.167 -10.167
 -1.119  -1.118  -1.111  -1.111  -1.030  -1.030  -1.027  -1.026
 -0.883  -0.882  -0.805  -0.804  -0.793  -0.793  -0.744  -0.744
 -0.732  -0.731  -0.722  -0.722  -0.673  -0.672  -0.647  -0.646
 -0.618  -0.618  -0.575  -0.574  -0.563  -0.562  -0.535  -0.534
 -0.515  -0.514  -0.512  -0.512  -0.489  -0.489  -0.486  -0.485
 -0.478  -0.477  -0.475  -0.474  -0.467  -0.467  -0.441  -0.440
 -0.432  -0.432  -0.428  -0.426  -0.418  -0.418  -0.414  -0.413
 -0.409  -0.409  -0.403  -0.403  -0.394  -0.393  -0.385  -0.385
 -0.378  -0.377  -0.371  -0.370  -0.360  -0.359  -0.356  -0.356
 -0.355  -0.354  -0.319  -0.318  -0.310  -0.310  -0.292  -0.291
 -0.289  -0.289  -0.264  -0.263  -0.251  -0.250

          Ground-State Mulliken Net Atomic Charges

     Atom                 Charge (a.u.)
  ----------------------------------------
      1 C                     0.542062
      2 C                     0.851401
      3 C                    -0.721337
      4 C                    -1.081378
      5 O                     0.120024
      6 O                    -0.156853
      7 O                     0.065174
      8 O                    -0.089637
      9 C                    -0.195086
     10 C                    -0.301576
     11 C                     0.535718
     12 C                    -0.481425
     13 C                    -0.486359
     14 C                     0.371179
     15 H                     0.167402
     16 H                     0.185492
     17 H                     0.152997
     18 H                     0.173160
     19 H                     0.172191
     20 H                     0.118724
     21 H                     0.187862
     22 H                     0.149089
     23 C                    -0.654084
     24 C                    -0.658181
     25 H                     0.210934
     26 H                     0.136228
     27 H                     0.188866
     28 H                     0.171217
     29 H                     0.187204
     30 H                     0.139486
     31 C                     0.837210
     32 C                     0.527997
     33 C                    -1.141722
     34 C                    -0.666219
     35 O                     0.079917
     36 O                    -0.077983
     37 O                     0.100661
     38 O                    -0.159632
     39 C                    -0.301104
     40 C                    -0.196222
     41 C                     0.380614
     42 C                    -0.472580
     43 C                    -0.483261
     44 C                     0.543867
     45 H                     0.187639
     46 H                     0.166905
     47 H                     0.148650
     48 H                     0.190449
     49 H                     0.117988
     50 H                     0.169986
     51 H                     0.172730
     52 H                     0.153899
     53 C                    -0.646432
     54 C                    -0.666828
     55 H                     0.187801
     56 H                     0.140546
     57 H                     0.171118
     58 H                     0.188361
     59 H                     0.210005
     60 H                     0.135143
  ----------------------------------------
  Sum of atomic charges =     0.000000

                    Cartesian Multipole Moments
 -----------------------------------------------------------------
    Charge (ESU x 10^10)
                 0.0000
    Dipole Moment (Debye)
         X       0.1798      Y      -0.1152      Z       0.1858
       Tot       0.2831
    Quadrupole Moments (Debye-Ang)
        XX    -195.8117     XY      -1.3507     YY    -153.8059
        XZ      17.7830     YZ       1.7218     ZZ    -195.5708

 Total job time:  2137.70s(wall), 4254.20s(cpu)
        *  Thank you very much for using Q-Chem.  Have a nice day.  *
