 Q-Chem 5.0, Q-Chem, Inc., Pleasanton, CA (2017)
 Q-Chem 5.0.1 for Intel X86 EM64T Linux

User input:
--------------------------------------------------------------
$molecule
0  1
C        +0.25661000        +2.96556000        +6.79561000
C        +0.66017000        +1.50715000        +7.20837000
C        -1.14809000        +3.15291000        +6.25343000
C        -0.34066000        +0.40425000        +6.93299000
O        -2.05781000        +2.70900000        +7.14932000
O        -1.43945000        +3.68007000        +5.21084000
O        -0.87973000        +0.49276000        +5.70346000
O        -0.58817000        -0.48809000        +7.70877000
C        -1.82743000        -0.52673000        +5.34406000
C        -3.43677000        +2.79560000        +6.74886000
C        +1.36399000        +3.32042000        +5.77475000
C        +2.66461000        +3.63768000        +6.53821000
C        +3.07727000        +2.21419000        +7.01266000
C        +1.97814000        +1.32769000        +6.36228000
O        +1.66231000        +2.05731000        +5.16590000
H        +0.31202000        +3.60854000        +7.67866000
H        +0.87314000        +1.44026000        +8.27374000
H        -2.65358000        -0.54609000        +6.05670000
H        -3.72685000        +3.83590000        +6.59372000
H        +3.40625000        +4.05850000        +5.85771000
H        +2.51627000        +4.34556000        +7.35617000
H        +4.05573000        +1.93062000        +6.62127000
H        +3.10750000        +2.10806000        +8.09894000
H        -2.17757000        -0.25697000        +4.35029000
H        -1.34671000        -1.50629000        +5.32870000
H        -4.00464000        +2.35691000        +7.56637000
H        -3.59729000        +2.23768000        +5.82471000
H        +1.06661000        +4.12011000        +5.12902000
H        +2.27730000        +0.30572000        +6.25752000
@C        +0.22270000        +1.04488000        +0.58595000
@C        +0.62626000        -0.41353000        +0.99871000
@C        -1.18200000        +1.23223000        +0.04377000
@C        -0.37457000        -1.51643000        +0.72333000
@O        -2.09172000        +0.78832000        +0.93966000
@O        -1.47336000        +1.75939000        -0.99882000
@O        -0.91364000        -1.42792000        -0.50620000
@O        -0.62208000        -2.40877000        +1.49911000
@C        -1.86134000        -2.44741000        -0.86560000
@C        -3.47068000        +0.87492000        +0.53920000
@C        +1.33008000        +1.39974000        -0.43491000
@C        +2.63070000        +1.71700000        +0.32855000
@C        +3.04336000        +0.29351000        +0.80300000
@C        +1.94423000        -0.59299000        +0.15262000
@O        +1.62840000        +0.13663000        -1.04376000
@H        +0.27811000        +1.68786000        +1.46900000
@H        +0.83923000        -0.48042000        +2.06408000
@H        -2.68749000        -2.46677000        -0.15296000
@H        -3.76076000        +1.91522000        +0.38406000
@H        +3.37234000        +2.13782000        -0.35195000
@H        +2.48236000        +2.42488000        +1.14651000
@H        +4.02182000        +0.00994000        +0.41161000
@H        +3.07359000        +0.18738000        +1.88928000
@H        -2.21148000        -2.17765000        -1.85937000
@H        -1.38062000        -3.42697000        -0.88096000
@H        -4.03855000        +0.43623000        +1.35671000
@H        -3.63120000        +0.31700000        -0.38495000
@H        +1.03270000        +2.19943000        -1.08064000
@H        +2.24339000        -1.61496000        +0.04786000
$end

$rem
JOBTYPE                   SP
METHOD                    B3LYP
DFT_D                     d3_op
BASIS                     6-311++G(d,p)
SYMMETRY                  False
THRESH                    12
SCF_CONVERGENCE           8
MAX_SUB_FILE_NUM          128
MEM_STATIC                400
MEM_TOTAL                 4000
$end
--------------------------------------------------------------

             Standard Nuclear Orientation (Angstroms)
    I     Atom           X                Y                Z
 ----------------------------------------------------------------
    1      C       0.2566100000     2.9655600000     6.7956100000
    2      C       0.6601700000     1.5071500000     7.2083700000
    3      C      -1.1480900000     3.1529100000     6.2534300000
    4      C      -0.3406600000     0.4042500000     6.9329900000
    5      O      -2.0578100000     2.7090000000     7.1493200000
    6      O      -1.4394500000     3.6800700000     5.2108400000
    7      O      -0.8797300000     0.4927600000     5.7034600000
    8      O      -0.5881700000    -0.4880900000     7.7087700000
    9      C      -1.8274300000    -0.5267300000     5.3440600000
   10      C      -3.4367700000     2.7956000000     6.7488600000
   11      C       1.3639900000     3.3204200000     5.7747500000
   12      C       2.6646100000     3.6376800000     6.5382100000
   13      C       3.0772700000     2.2141900000     7.0126600000
   14      C       1.9781400000     1.3276900000     6.3622800000
   15      O       1.6623100000     2.0573100000     5.1659000000
   16      H       0.3120200000     3.6085400000     7.6786600000
   17      H       0.8731400000     1.4402600000     8.2737400000
   18      H      -2.6535800000    -0.5460900000     6.0567000000
   19      H      -3.7268500000     3.8359000000     6.5937200000
   20      H       3.4062500000     4.0585000000     5.8577100000
   21      H       2.5162700000     4.3455600000     7.3561700000
   22      H       4.0557300000     1.9306200000     6.6212700000
   23      H       3.1075000000     2.1080600000     8.0989400000
   24      H      -2.1775700000    -0.2569700000     4.3502900000
   25      H      -1.3467100000    -1.5062900000     5.3287000000
   26      H      -4.0046400000     2.3569100000     7.5663700000
   27      H      -3.5972900000     2.2376800000     5.8247100000
   28      H       1.0666100000     4.1201100000     5.1290200000
   29      H       2.2773000000     0.3057200000     6.2575200000
   30      GH      0.2227000000     1.0448800000     0.5859500000
   31      GH      0.6262600000    -0.4135300000     0.9987100000
   32      GH     -1.1820000000     1.2322300000     0.0437700000
   33      GH     -0.3745700000    -1.5164300000     0.7233300000
   34      GH     -2.0917200000     0.7883200000     0.9396600000
   35      GH     -1.4733600000     1.7593900000    -0.9988200000
   36      GH     -0.9136400000    -1.4279200000    -0.5062000000
   37      GH     -0.6220800000    -2.4087700000     1.4991100000
   38      GH     -1.8613400000    -2.4474100000    -0.8656000000
   39      GH     -3.4706800000     0.8749200000     0.5392000000
   40      GH      1.3300800000     1.3997400000    -0.4349100000
   41      GH      2.6307000000     1.7170000000     0.3285500000
   42      GH      3.0433600000     0.2935100000     0.8030000000
   43      GH      1.9442300000    -0.5929900000     0.1526200000
   44      GH      1.6284000000     0.1366300000    -1.0437600000
   45      GH      0.2781100000     1.6878600000     1.4690000000
   46      GH      0.8392300000    -0.4804200000     2.0640800000
   47      GH     -2.6874900000    -2.4667700000    -0.1529600000
   48      GH     -3.7607600000     1.9152200000     0.3840600000
   49      GH      3.3723400000     2.1378200000    -0.3519500000
   50      GH      2.4823600000     2.4248800000     1.1465100000
   51      GH      4.0218200000     0.0099400000     0.4116100000
   52      GH      3.0735900000     0.1873800000     1.8892800000
   53      GH     -2.2114800000    -2.1776500000    -1.8593700000
   54      GH     -1.3806200000    -3.4269700000    -0.8809600000
   55      GH     -4.0385500000     0.4362300000     1.3567100000
   56      GH     -3.6312000000     0.3170000000    -0.3849500000
   57      GH      1.0327000000     2.1994300000    -1.0806400000
   58      GH      2.2433900000    -1.6149600000     0.0478600000
 ----------------------------------------------------------------

   14    -765.8584674525      6.74E-09 Convergence criterion met
 Total energy in the final basis set = -765.85846745

                    Orbital Energies (a.u.)
 --------------------------------------------------------------

 Alpha MOs
 -- Occupied --
-19.176 -19.174 -19.136 -19.120 -19.116 -10.310 -10.306 -10.242
-10.232 -10.232 -10.230 -10.207 -10.206 -10.182 -10.180  -1.120
 -1.113  -1.065  -1.031  -1.028  -0.833  -0.785  -0.778  -0.740
 -0.729  -0.659  -0.610  -0.596  -0.580  -0.567  -0.551  -0.520
 -0.506  -0.496  -0.489  -0.484  -0.475  -0.473  -0.462  -0.439
 -0.427  -0.425  -0.418  -0.399  -0.385  -0.376  -0.371  -0.369
 -0.362  -0.356  -0.337  -0.334  -0.320  -0.313  -0.290  -0.282
 -0.276

          Ground-State Mulliken Net Atomic Charges

     Atom                 Charge (a.u.)
  ----------------------------------------
      1 C                    -0.010042
      2 C                     0.276270
      3 C                    -0.438490
      4 C                    -0.561548
      5 O                    -0.003055
      6 O                    -0.147854
      7 O                    -0.011025
      8 O                    -0.164285
      9 C                    -0.273612
     10 C                    -0.178351
     11 C                    -0.220350
     12 C                    -0.573999
     13 C                    -0.419235
     14 C                    -0.056317
     15 O                     0.053464
     16 H                     0.244326
     17 H                     0.281793
     18 H                     0.200704
     19 H                     0.171111
     20 H                     0.187012
     21 H                     0.129229
     22 H                     0.182670
     23 H                     0.126733
     24 H                     0.146017
     25 H                     0.183381
     26 H                     0.165171
     27 H                     0.183243
     28 H                     0.266624
     29 H                     0.251092
     30 GH                   -0.024877
     31 GH                   -0.006390
     32 GH                   -0.011446
     33 GH                    0.001410
     34 GH                    0.000220
     35 GH                    0.000023
     36 GH                    0.000095
     37 GH                   -0.000904
     38 GH                    0.000175
     39 GH                    0.002754
     40 GH                    0.000972
     41 GH                   -0.000883
     42 GH                   -0.005694
     43 GH                    0.003775
     44 GH                   -0.000003
     45 GH                    0.022444
     46 GH                    0.023229
     47 GH                    0.000057
     48 GH                   -0.000534
     49 GH                   -0.000307
     50 GH                    0.002331
     51 GH                   -0.000360
     52 GH                    0.000434
     53 GH                    0.000014
     54 GH                   -0.000014
     55 GH                    0.002446
     56 GH                   -0.000004
     57 GH                    0.000178
     58 GH                    0.000182
  ----------------------------------------
  Sum of atomic charges =     0.000000

                    Cartesian Multipole Moments
 -----------------------------------------------------------------
    Charge (ESU x 10^10)
                 0.0000
    Dipole Moment (Debye)
         X      -0.0149      Y       0.7279      Z       1.2128
       Tot       1.4145
    Quadrupole Moments (Debye-Ang)
        XX     -75.1632     XY       2.9549     YY     -86.8896
        XZ       3.3035     YZ      17.5419     ZZ     -80.8058

 Total job time:  5671.99s(wall), 5658.58s(cpu)
        *  Thank you very much for using Q-Chem.  Have a nice day.  *
