 Q-Chem 5.0, Q-Chem, Inc., Pleasanton, CA (2017)
 Q-Chem 5.0.1 for Intel X86 EM64T Linux

User input:
--------------------------------------------------------------
$molecule
0  1
--
0  1
C        +0.22270000        +1.04488000        +0.58595000
C        +0.62626000        -0.41353000        +0.99871000
C        -1.18200000        +1.23223000        +0.04377000
C        -0.37457000        -1.51643000        +0.72333000
O        -2.09172000        +0.78832000        +0.93966000
O        -1.47336000        +1.75939000        -0.99882000
O        -0.91364000        -1.42792000        -0.50620000
O        -0.62208000        -2.40877000        +1.49911000
C        -1.86134000        -2.44741000        -0.86560000
C        -3.47068000        +0.87492000        +0.53920000
C        +1.33008000        +1.39974000        -0.43491000
C        +2.63070000        +1.71700000        +0.32855000
C        +3.04336000        +0.29351000        +0.80300000
C        +1.94423000        -0.59299000        +0.15262000
O        +1.62840000        +0.13663000        -1.04376000
H        +0.27811000        +1.68786000        +1.46900000
H        +0.83923000        -0.48042000        +2.06408000
H        -2.68749000        -2.46677000        -0.15296000
H        -3.76076000        +1.91522000        +0.38406000
H        +3.37234000        +2.13782000        -0.35195000
H        +2.48236000        +2.42488000        +1.14651000
H        +4.02182000        +0.00994000        +0.41161000
H        +3.07359000        +0.18738000        +1.88928000
H        -2.21148000        -2.17765000        -1.85937000
H        -1.38062000        -3.42697000        -0.88096000
H        -4.03855000        +0.43623000        +1.35671000
H        -3.63120000        +0.31700000        -0.38495000
H        +1.03270000        +2.19943000        -1.08064000
H        +2.24339000        -1.61496000        +0.04786000
--
0  1
C        +0.25661000        +2.96556000        +6.79561000
C        +0.66017000        +1.50715000        +7.20837000
C        -1.14809000        +3.15291000        +6.25343000
C        -0.34066000        +0.40425000        +6.93299000
O        -2.05781000        +2.70900000        +7.14932000
O        -1.43945000        +3.68007000        +5.21084000
O        -0.87973000        +0.49276000        +5.70346000
O        -0.58817000        -0.48809000        +7.70877000
C        -1.82743000        -0.52673000        +5.34406000
C        -3.43677000        +2.79560000        +6.74886000
C        +1.36399000        +3.32042000        +5.77475000
C        +2.66461000        +3.63768000        +6.53821000
C        +3.07727000        +2.21419000        +7.01266000
C        +1.97814000        +1.32769000        +6.36228000
O        +1.66231000        +2.05731000        +5.16590000
H        +0.31202000        +3.60854000        +7.67866000
H        +0.87314000        +1.44026000        +8.27374000
H        -2.65358000        -0.54609000        +6.05670000
H        -3.72685000        +3.83590000        +6.59372000
H        +3.40625000        +4.05850000        +5.85771000
H        +2.51627000        +4.34556000        +7.35617000
H        +4.05573000        +1.93062000        +6.62127000
H        +3.10750000        +2.10806000        +8.09894000
H        -2.17757000        -0.25697000        +4.35029000
H        -1.34671000        -1.50629000        +5.32870000
H        -4.00464000        +2.35691000        +7.56637000
H        -3.59729000        +2.23768000        +5.82471000
H        +1.06661000        +4.12011000        +5.12902000
H        +2.27730000        +0.30572000        +6.25752000
$end

$rem
JOBTYPE                   SP
METHOD                    B3LYP
DFT_D                     d3_op
BASIS                     6-311++G(d,p)
SYMMETRY                  False
THRESH                    12
SCF_CONVERGENCE           8
MAX_SUB_FILE_NUM          128
MEM_STATIC                400
MEM_TOTAL                 4000
$end
--------------------------------------------------------------

             Standard Nuclear Orientation (Angstroms)
    I     Atom           X                Y                Z
 ----------------------------------------------------------------
    1      C      -2.5114458248     0.5857352334     0.8508229202
    2      C      -2.5866167424     0.6633392436    -0.7139512393
    3      C      -3.0133946397    -0.6949035706     1.4913327997
    4      C      -3.2461626832    -0.4926929060    -1.4367735302
    5      O      -2.3475857998    -1.7596740242     0.9911049233
    6      O      -3.8346599269    -0.7724332015     2.3684272688
    7      O      -4.3972409775    -0.8751317121    -0.8545932953
    8      O      -2.8166828856    -0.9823861678    -2.4541791017
    9      C      -5.1066801231    -1.9549011546    -1.4850356478
   10      C      -2.7479790170    -3.0487776897     1.4883930335
   11      C      -3.3171610786     1.8398072960     1.2661510016
   12      C      -2.4443072177     3.0905712854     1.0451237547
   13      C      -2.4494440640     3.1772229092    -0.5086394084
   14      C      -3.3953335588     2.0046794932    -0.8925640788
   15      O      -4.2960504590     1.9571996100     0.2254134541
   16      H      -1.4646570932     0.6690040491     1.1567158862
   17      H      -1.5953942636     0.7483428850    -1.1556480905
   18      H      -4.4710958036    -2.8393502007    -1.5523918593
   19      H      -2.5630018642    -3.1207389905     2.5612601922
   20      H      -2.9206674002     3.9645064612     1.4917980176
   21      H      -1.4451307749     2.9937617027     1.4745789356
   22      H      -2.8758651583     4.1202659265    -0.8547852830
   23      H      -1.4581486224     3.0742038796    -0.9546238199
   24      H      -5.9686939324    -2.1432240681    -0.8491001456
   25      H      -5.4255300399    -1.6676558427    -2.4883752229
   26      H      -2.1417810999    -3.7705450001     0.9454161575
   27      H      -3.8094658518    -3.2144825103     1.2963455617
   28      H      -3.6745275434     1.7664116440     2.2720379145
   29      H      -3.8192044235     2.1158962912    -1.8687087186
   30      C       3.9812221393     0.3356041264     0.6698919877
   31      C       3.9060512218     0.4132081366    -0.8948821718
   32      C       3.4792733245    -0.9450346777     1.3104018673
   33      C       3.2465052810    -0.7428240131    -1.6177044626
   34      O       4.1450821644    -2.0098051313     0.8101739908
   35      O       2.6580080373    -1.0225643086     2.1874963363
   36      O       2.0954269867    -1.1252628191    -1.0355242278
   37      O       3.6759850786    -1.2325172749    -2.6351100341
   38      C       1.3859878411    -2.2050322616    -1.6659665803
   39      C       3.7446889471    -3.2989087967     1.3074621010
   40      C       3.1755068855     1.5896761889     1.0852200691
   41      C       4.0483607464     2.8404401784     0.8641928223
   42      C       4.0432239002     2.9270918022    -0.6895703409
   43      C       3.0973344054     1.7545483862    -1.0734950113
   44      O       2.1966175052     1.7070685030     0.0444825216
   45      H       5.0280108710     0.4188729421     0.9757849537
   46      H       4.8972737006     0.4982117780    -1.3365790230
   47      H       2.0215721606    -3.0894813078    -1.7333227918
   48      H       3.9296661000    -3.3708700976     2.3803292597
   49      H       3.5720005640     3.7143753542     1.3108670851
   50      H       5.0475371893     2.7436305956     1.2936480032
   51      H       3.6168028059     3.8701348194    -1.0357162155
   52      H       5.0345193417     2.8240727726    -1.1355547524
   53      H       0.5239740318    -2.3933551751    -1.0300310781
   54      H       1.0671379243    -1.9177869498    -2.6693061554
   55      H       4.3508868643    -4.0206761072     0.7644852250
   56      H       2.6832021124    -3.4646136174     1.1154146292
   57      H       2.8181404208     1.5162805369     2.0911069820
   58      H       2.6734635406     1.8657651842    -2.0496396511
 ----------------------------------------------------------------

   15   -1531.7216386009      5.31E-09 Convergence criterion met
 Total energy in the final basis set = -1531.72163860

                    Orbital Energies (a.u.)
 --------------------------------------------------------------

 Alpha MOs
 -- Occupied --
-19.178 -19.173 -19.172 -19.171 -19.142 -19.130 -19.123 -19.117
-19.115 -19.114 -10.313 -10.307 -10.304 -10.303 -10.246 -10.237
-10.236 -10.234 -10.230 -10.228 -10.226 -10.225 -10.210 -10.209
-10.200 -10.199 -10.186 -10.184 -10.176 -10.173  -1.122  -1.117
 -1.114  -1.110  -1.070  -1.059  -1.034  -1.028  -1.026  -1.025
 -0.836  -0.827  -0.789  -0.781  -0.779  -0.772  -0.741  -0.736
 -0.729  -0.726  -0.661  -0.653  -0.613  -0.605  -0.600  -0.590
 -0.582  -0.576  -0.569  -0.563  -0.554  -0.546  -0.522  -0.514
 -0.508  -0.502  -0.499  -0.491  -0.490  -0.486  -0.484  -0.480
 -0.476  -0.474  -0.473  -0.469  -0.464  -0.456  -0.442  -0.434
 -0.428  -0.426  -0.423  -0.420  -0.420  -0.414  -0.400  -0.396
 -0.388  -0.379  -0.377  -0.374  -0.372  -0.372  -0.367  -0.364
 -0.362  -0.359  -0.357  -0.350  -0.340  -0.339  -0.331  -0.328
 -0.322  -0.317  -0.313  -0.310  -0.293  -0.286  -0.285  -0.280
 -0.279  -0.271

          Ground-State Mulliken Net Atomic Charges

     Atom                 Charge (a.u.)
  ----------------------------------------
      1 C                    -0.125379
      2 C                     0.647880
      3 C                    -0.637965
      4 C                    -0.664905
      5 O                     0.036011
      6 O                    -0.199403
      7 O                    -0.005674
      8 O                    -0.150288
      9 C                    -0.203952
     10 C                    -0.226171
     11 C                    -0.251365
     12 C                    -0.287835
     13 C                    -0.470184
     14 C                    -0.087795
     15 O                    -0.102091
     16 H                     0.212137
     17 H                     0.337539
     18 H                     0.186520
     19 H                     0.181470
     20 H                     0.194956
     21 H                     0.121726
     22 H                     0.187298
     23 H                     0.091693
     24 H                     0.171338
     25 H                     0.175696
     26 H                     0.139863
     27 H                     0.182286
     28 H                     0.287559
     29 H                     0.267412
     30 C                    -0.001420
     31 C                     0.282247
     32 C                    -0.429139
     33 C                    -0.570673
     34 O                    -0.001923
     35 O                    -0.153075
     36 O                    -0.020539
     37 O                    -0.162025
     38 C                    -0.262542
     39 C                    -0.180397
     40 C                    -0.225452
     41 C                    -0.573637
     42 C                    -0.420325
     43 C                    -0.059082
     44 O                     0.041929
     45 H                     0.245931
     46 H                     0.283191
     47 H                     0.198334
     48 H                     0.171042
     49 H                     0.185768
     50 H                     0.131099
     51 H                     0.181924
     52 H                     0.129008
     53 H                     0.144578
     54 H                     0.188876
     55 H                     0.166260
     56 H                     0.183470
     57 H                     0.265824
     58 H                     0.252373
  ----------------------------------------
  Sum of atomic charges =    -0.000000

                    Cartesian Multipole Moments
 -----------------------------------------------------------------
    Charge (ESU x 10^10)
                -0.0000
    Dipole Moment (Debye)
         X       3.0607      Y       0.0123      Z       0.6026
       Tot       3.1195
    Quadrupole Moments (Debye-Ang)
        XX    -178.1386     XY      13.6863     YY    -152.5019
        XZ      17.7843     YZ      -6.3572     ZZ    -193.0189

 Total job time:  6312.75s(wall), 6297.80s(cpu)
        *  Thank you very much for using Q-Chem.  Have a nice day.  *
