 Q-Chem 5.0, Q-Chem, Inc., Pleasanton, CA (2017)
 Q-Chem 5.0.1 for Intel X86 EM64T Linux

User input:
--------------------------------------------------------------
$molecule
0  1
C        -0.49971000        -1.25045000        +6.40820000
C        -0.51236000        +0.15203000        +6.53002000
C        +0.79442000        -2.00451000        +6.38135000
C        +0.77316000        +0.91761000        +6.54107000
O        +1.58118000        -1.65851000        +7.42322000
O        +1.09175000        -2.85080000        +5.57421000
O        +1.58257000        +0.51626000        +5.53632000
O        +1.05508000        +1.80422000        +7.30987000
C        +2.87922000        +1.13446000        +5.48151000
C        +2.86789000        -2.29883000        +7.47984000
C        -1.69847000        -1.98291000        +6.34957000
C        -2.89479000        -1.26731000        +6.42224000
C        -2.90840000        +0.11580000        +6.54443000
C        -1.72688000        +0.85729000        +6.60319000
H        +2.78308000        +2.21314000        +5.35045000
H        +2.75251000        -3.37994000        +7.57064000
H        -3.85881000        +0.63650000        +6.59219000
H        +3.43471000        +0.93418000        +6.39965000
H        +3.37657000        +0.68594000        +4.62442000
H        +3.35568000        -1.88956000        +8.36159000
H        +3.44362000        -2.07609000        +6.57968000
H        -3.83419000        -1.80886000        +6.38521000
H        -1.74413000        +1.88489000        +6.69685000
H        -1.69405000        -3.01068000        +6.25634000
@C        -0.54444000        -0.68370000        -0.06689000
@C        -0.55709000        +0.71878000        +0.05493000
@C        +0.74969000        -1.43776000        -0.09374000
@C        +0.72843000        +1.48436000        +0.06598000
@O        +1.53645000        -1.09176000        +0.94813000
@O        +1.04702000        -2.28405000        -0.90088000
@O        +1.53784000        +1.08301000        -0.93877000
@O        +1.01035000        +2.37097000        +0.83478000
@C        +2.83449000        +1.70121000        -0.99358000
@C        +2.82316000        -1.73208000        +1.00475000
@C        -1.74320000        -1.41616000        -0.12552000
@C        -2.93952000        -0.70056000        -0.05285000
@C        -2.95313000        +0.68255000        +0.06934000
@C        -1.77161000        +1.42404000        +0.12810000
@H        +2.73835000        +2.77989000        -1.12464000
@H        +2.70778000        -2.81319000        +1.09555000
@H        -3.90354000        +1.20325000        +0.11710000
@H        +3.38998000        +1.50093000        -0.07544000
@H        +3.33184000        +1.25269000        -1.85067000
@H        +3.31095000        -1.32281000        +1.88650000
@H        +3.39889000        -1.50934000        +0.10459000
@H        -3.87892000        -1.24211000        -0.08988000
@H        -1.78886000        +2.45164000        +0.22176000
@H        -1.73878000        -2.44393000        -0.21875000
$end

$rem
JOBTYPE                   SP
METHOD                    B3LYP
DFT_D                     d3_op
BASIS                     6-311++G(d,p)
SYMMETRY                  False
THRESH                    12
SCF_CONVERGENCE           8
MAX_SUB_FILE_NUM          128
MEM_STATIC                400
MEM_TOTAL                 4000
$end
--------------------------------------------------------------

             Standard Nuclear Orientation (Angstroms)
    I     Atom           X                Y                Z
 ----------------------------------------------------------------
    1      C      -0.4997100000    -1.2504500000     6.4082000000
    2      C      -0.5123600000     0.1520300000     6.5300200000
    3      C       0.7944200000    -2.0045100000     6.3813500000
    4      C       0.7731600000     0.9176100000     6.5410700000
    5      O       1.5811800000    -1.6585100000     7.4232200000
    6      O       1.0917500000    -2.8508000000     5.5742100000
    7      O       1.5825700000     0.5162600000     5.5363200000
    8      O       1.0550800000     1.8042200000     7.3098700000
    9      C       2.8792200000     1.1344600000     5.4815100000
   10      C       2.8678900000    -2.2988300000     7.4798400000
   11      C      -1.6984700000    -1.9829100000     6.3495700000
   12      C      -2.8947900000    -1.2673100000     6.4222400000
   13      C      -2.9084000000     0.1158000000     6.5444300000
   14      C      -1.7268800000     0.8572900000     6.6031900000
   15      H       2.7830800000     2.2131400000     5.3504500000
   16      H       2.7525100000    -3.3799400000     7.5706400000
   17      H      -3.8588100000     0.6365000000     6.5921900000
   18      H       3.4347100000     0.9341800000     6.3996500000
   19      H       3.3765700000     0.6859400000     4.6244200000
   20      H       3.3556800000    -1.8895600000     8.3615900000
   21      H       3.4436200000    -2.0760900000     6.5796800000
   22      H      -3.8341900000    -1.8088600000     6.3852100000
   23      H      -1.7441300000     1.8848900000     6.6968500000
   24      H      -1.6940500000    -3.0106800000     6.2563400000
   25      GH     -0.5444400000    -0.6837000000    -0.0668900000
   26      GH     -0.5570900000     0.7187800000     0.0549300000
   27      GH      0.7496900000    -1.4377600000    -0.0937400000
   28      GH      0.7284300000     1.4843600000     0.0659800000
   29      GH      1.5364500000    -1.0917600000     0.9481300000
   30      GH      1.0470200000    -2.2840500000    -0.9008800000
   31      GH      1.5378400000     1.0830100000    -0.9387700000
   32      GH      1.0103500000     2.3709700000     0.8347800000
   33      GH      2.8344900000     1.7012100000    -0.9935800000
   34      GH      2.8231600000    -1.7320800000     1.0047500000
   35      GH     -1.7432000000    -1.4161600000    -0.1255200000
   36      GH     -2.9395200000    -0.7005600000    -0.0528500000
   37      GH     -2.9531300000     0.6825500000     0.0693400000
   38      GH     -1.7716100000     1.4240400000     0.1281000000
   39      GH      2.7383500000     2.7798900000    -1.1246400000
   40      GH      2.7077800000    -2.8131900000     1.0955500000
   41      GH     -3.9035400000     1.2032500000     0.1171000000
   42      GH      3.3899800000     1.5009300000    -0.0754400000
   43      GH      3.3318400000     1.2526900000    -1.8506700000
   44      GH      3.3109500000    -1.3228100000     1.8865000000
   45      GH      3.3988900000    -1.5093400000     0.1045900000
   46      GH     -3.8789200000    -1.2421100000    -0.0898800000
   47      GH     -1.7888600000     2.4516400000     0.2217600000
   48      GH     -1.7387800000    -2.4439300000    -0.2187500000
 ----------------------------------------------------------------

   14    -688.2106489644      5.68E-09 Convergence criterion met
 Total energy in the final basis set = -688.21064896

                    Orbital Energies (a.u.)
 --------------------------------------------------------------

 Alpha MOs
 -- Occupied --
-19.178 -19.178 -19.122 -19.122 -10.314 -10.314 -10.233 -10.233
-10.215 -10.214 -10.198 -10.198 -10.197 -10.197  -1.123  -1.117
 -1.033  -1.032  -0.887  -0.800  -0.787  -0.744  -0.733  -0.656
 -0.646  -0.596  -0.579  -0.555  -0.524  -0.516  -0.493  -0.492
 -0.485  -0.479  -0.472  -0.468  -0.440  -0.431  -0.416  -0.408
 -0.389  -0.387  -0.384  -0.369  -0.366  -0.324  -0.316  -0.302
 -0.297  -0.275  -0.272

          Ground-State Mulliken Net Atomic Charges

     Atom                 Charge (a.u.)
  ----------------------------------------
      1 C                     1.003722
      2 C                     0.878301
      3 C                    -1.073040
      4 C                    -0.793963
      5 O                     0.045942
      6 O                    -0.122221
      7 O                     0.061027
      8 O                    -0.190519
      9 C                    -0.295052
     10 C                    -0.221024
     11 C                    -0.334599
     12 C                    -0.153564
     13 C                    -0.150979
     14 C                    -0.394040
     15 H                     0.185718
     16 H                     0.172479
     17 H                     0.180453
     18 H                     0.184130
     19 H                     0.132963
     20 H                     0.168595
     21 H                     0.174847
     22 H                     0.180783
     23 H                     0.182174
     24 H                     0.174273
     25 GH                    0.004218
     26 GH                    0.003617
     27 GH                    0.000608
     28 GH                   -0.002621
     29 GH                    0.000680
     30 GH                   -0.000023
     31 GH                    0.000008
     32 GH                    0.000501
     33 GH                   -0.000393
     34 GH                   -0.004939
     35 GH                   -0.006019
     36 GH                    0.000938
     37 GH                   -0.001802
     38 GH                    0.001540
     39 GH                    0.000007
     40 GH                   -0.000576
     41 GH                   -0.000186
     42 GH                    0.000349
     43 GH                   -0.000020
     44 GH                    0.008299
     45 GH                   -0.000035
     46 GH                   -0.000141
     47 GH                   -0.000157
     48 GH                   -0.000259
  ----------------------------------------
  Sum of atomic charges =     0.000000

                    Cartesian Multipole Moments
 -----------------------------------------------------------------
    Charge (ESU x 10^10)
                 0.0000
    Dipole Moment (Debye)
         X      -0.0446      Y      -0.1152      Z       0.0635
       Tot       0.1389
    Quadrupole Moments (Debye-Ang)
        XX     -61.3047     XY      -0.0361     YY     -84.1862
        XZ      -0.1709     YZ     -10.5053     ZZ     -86.2349

 Total job time:  986.48s(wall), 1956.10s(cpu)
        *  Thank you very much for using Q-Chem.  Have a nice day.  *
