 Q-Chem 5.0, Q-Chem, Inc., Pleasanton, CA (2017)
 Q-Chem 5.0.1 for Intel X86 EM64T Linux

User input:
--------------------------------------------------------------
$molecule
0  1
--
0  1
C        -0.54444000        -0.68370000        -0.06689000
C        -0.55709000        +0.71878000        +0.05493000
C        +0.74969000        -1.43776000        -0.09374000
C        +0.72843000        +1.48436000        +0.06598000
O        +1.53645000        -1.09176000        +0.94813000
O        +1.04702000        -2.28405000        -0.90088000
O        +1.53784000        +1.08301000        -0.93877000
O        +1.01035000        +2.37097000        +0.83478000
C        +2.83449000        +1.70121000        -0.99358000
C        +2.82316000        -1.73208000        +1.00475000
C        -1.74320000        -1.41616000        -0.12552000
C        -2.93952000        -0.70056000        -0.05285000
C        -2.95313000        +0.68255000        +0.06934000
C        -1.77161000        +1.42404000        +0.12810000
H        +2.73835000        +2.77989000        -1.12464000
H        +2.70778000        -2.81319000        +1.09555000
H        -3.90354000        +1.20325000        +0.11710000
H        +3.38998000        +1.50093000        -0.07544000
H        +3.33184000        +1.25269000        -1.85067000
H        +3.31095000        -1.32281000        +1.88650000
H        +3.39889000        -1.50934000        +0.10459000
H        -3.87892000        -1.24211000        -0.08988000
H        -1.78886000        +2.45164000        +0.22176000
H        -1.73878000        -2.44393000        -0.21875000
--
0  1
C        -0.49971000        -1.25045000        +6.40820000
C        -0.51236000        +0.15203000        +6.53002000
C        +0.79442000        -2.00451000        +6.38135000
C        +0.77316000        +0.91761000        +6.54107000
O        +1.58118000        -1.65851000        +7.42322000
O        +1.09175000        -2.85080000        +5.57421000
O        +1.58257000        +0.51626000        +5.53632000
O        +1.05508000        +1.80422000        +7.30987000
C        +2.87922000        +1.13446000        +5.48151000
C        +2.86789000        -2.29883000        +7.47984000
C        -1.69847000        -1.98291000        +6.34957000
C        -2.89479000        -1.26731000        +6.42224000
C        -2.90840000        +0.11580000        +6.54443000
C        -1.72688000        +0.85729000        +6.60319000
H        +2.78308000        +2.21314000        +5.35045000
H        +2.75251000        -3.37994000        +7.57064000
H        -3.85881000        +0.63650000        +6.59219000
H        +3.43471000        +0.93418000        +6.39965000
H        +3.37657000        +0.68594000        +4.62442000
H        +3.35568000        -1.88956000        +8.36159000
H        +3.44362000        -2.07609000        +6.57968000
H        -3.83419000        -1.80886000        +6.38521000
H        -1.74413000        +1.88489000        +6.69685000
H        -1.69405000        -3.01068000        +6.25634000
$end

$rem
JOBTYPE                   SP
METHOD                    B3LYP
DFT_D                     d3_op
BASIS                     6-311++G(d,p)
SYMMETRY                  False
THRESH                    12
SCF_CONVERGENCE           8
MAX_SUB_FILE_NUM          128
MEM_STATIC                400
MEM_TOTAL                 4000
$end
--------------------------------------------------------------

             Standard Nuclear Orientation (Angstroms)
    I     Atom           X                Y                Z
 ----------------------------------------------------------------
    1      C      -3.2372052588     0.8108326855     0.7960425156
    2      C      -3.2803430215     0.8325577483    -0.6109462691
    3      C      -3.1641288730    -0.4877228457     1.5393548572
    4      C      -3.3474096946    -0.4484631892    -1.3811955328
    5      O      -2.1628803362    -1.2624212576     1.0686701083
    6      O      -3.8640783053    -0.7975971358     2.4721654430
    7      O      -4.2910609112    -1.2697881929    -0.8706110120
    8      O      -2.6850753483    -0.7179459284    -2.3534618983
    9      C      -4.4061992292    -2.5634046762    -1.4868708277
   10      C      -2.0202768713    -2.5521103827     1.6893184493
   11      C      -3.2204880859     2.0048260032     1.5383774533
   12      C      -3.2426893381     3.2058036158     0.8272475709
   13      C      -3.2832031304     3.2283830951    -0.5605412099
   14      C      -3.3010011863     2.0516808150    -1.3117433406
   15      H      -4.6633530743    -2.4624611864    -2.5421681684
   16      H      -1.8047108487    -2.4419496613     2.7531567462
   17      H      -3.3051540674     4.1821277370    -1.0768531216
   18      H      -3.4660118797    -3.1111194843    -1.3990157487
   19      H      -5.2004815509    -3.0715285848    -0.9446013671
   20      H      -1.1881131840    -3.0290477610     1.1765237397
   21      H      -2.9351278901    -3.1352446846     1.5694511664
   22      H      -3.2245287325     4.1417370456     1.3757170694
   23      H      -3.3283077695     2.0756221554    -2.3431078159
   24      H      -3.1928492199     1.9937170567     2.5699467561
   25      C       3.2598744581     0.8254575928     0.6017795278
   26      C       3.2167366954     0.8471826556    -0.8052092570
   27      C       3.3329508439    -0.4730979385     1.3450918693
   28      C       3.1496700222    -0.4338382820    -1.5754585207
   29      O       4.3341993807    -1.2477963503     0.8744071204
   30      O       2.6330014115    -0.7829722285     2.2779024552
   31      O       2.2060188056    -1.2551632856    -1.0648739998
   32      O       3.8120043685    -0.7033210211    -2.5477248862
   33      C       2.0908804877    -2.5487797689    -1.6811338155
   34      C       4.4768028455    -2.5374854754     1.4950554614
   35      C       3.2765916310     2.0194509104     1.3441144654
   36      C       3.2543903788     3.2204285231     0.6329845830
   37      C       3.2138765864     3.2430080024    -0.7548041978
   38      C       3.1960785305     2.0663057222    -1.5060063285
   39      H       1.8337266425    -2.4478362791    -2.7364311563
   40      H       4.6923688681    -2.4273247541     2.5588937583
   41      H       3.1919256495     4.1967526442    -1.2711161095
   42      H       3.0310678372    -3.0964945770    -1.5932787366
   43      H       1.2965981659    -3.0569036775    -1.1388643549
   44      H       5.3089665329    -3.0144228537     0.9822607519
   45      H       3.5619518268    -3.1206197774     1.3751881785
   46      H       3.2725509843     4.1563619529     1.1814540815
   47      H       3.1687719474     2.0902470626    -2.5373708038
   48      H       3.3042304970     2.0083419639     2.3756837682
 ----------------------------------------------------------------

   14   -1376.4222235175      8.99E-09 Convergence criterion met
 Total energy in the final basis set = -1376.42222352

                    Orbital Energies (a.u.)
 --------------------------------------------------------------

 Alpha MOs
 -- Occupied --
-19.178 -19.177 -19.175 -19.174 -19.121 -19.121 -19.119 -19.118
-10.313 -10.313 -10.311 -10.310 -10.233 -10.233 -10.230 -10.229
-10.212 -10.212 -10.212 -10.212 -10.196 -10.196 -10.196 -10.196
-10.195 -10.195 -10.195 -10.195  -1.121  -1.121  -1.114  -1.114
 -1.032  -1.032  -1.029  -1.029  -0.885  -0.885  -0.798  -0.797
 -0.785  -0.785  -0.742  -0.741  -0.731  -0.730  -0.654  -0.654
 -0.644  -0.643  -0.594  -0.593  -0.577  -0.576  -0.553  -0.553
 -0.522  -0.521  -0.514  -0.513  -0.491  -0.491  -0.489  -0.489
 -0.483  -0.482  -0.477  -0.476  -0.470  -0.469  -0.466  -0.466
 -0.439  -0.438  -0.430  -0.429  -0.414  -0.414  -0.406  -0.406
 -0.387  -0.387  -0.385  -0.384  -0.382  -0.381  -0.367  -0.366
 -0.364  -0.363  -0.322  -0.321  -0.313  -0.312  -0.300  -0.299
 -0.295  -0.294  -0.273  -0.273  -0.270  -0.269

          Ground-State Mulliken Net Atomic Charges

     Atom                 Charge (a.u.)
  ----------------------------------------
      1 C                     0.806017
      2 C                     1.049184
      3 C                    -0.843737
      4 C                    -0.982168
      5 O                     0.077282
      6 O                    -0.187974
      7 O                     0.037116
      8 O                    -0.138082
      9 C                    -0.215762
     10 C                    -0.289965
     11 C                    -0.386369
     12 C                    -0.148938
     13 C                    -0.157641
     14 C                    -0.346321
     15 H                     0.172420
     16 H                     0.187794
     17 H                     0.177889
     18 H                     0.173036
     19 H                     0.170565
     20 H                     0.130539
     21 H                     0.180259
     22 H                     0.179465
     23 H                     0.174295
     24 H                     0.181565
     25 C                     1.013488
     26 C                     0.884993
     27 C                    -1.079026
     28 C                    -0.791698
     29 O                     0.046664
     30 O                    -0.126678
     31 O                     0.065205
     32 O                    -0.193061
     33 C                    -0.288796
     34 C                    -0.219953
     35 C                    -0.339362
     36 C                    -0.153965
     37 C                    -0.148395
     38 C                    -0.395230
     39 H                     0.188543
     40 H                     0.172253
     41 H                     0.178881
     42 H                     0.182564
     43 H                     0.127918
     44 H                     0.168855
     45 H                     0.172423
     46 H                     0.178677
     47 H                     0.182363
     48 H                     0.172865
  ----------------------------------------
  Sum of atomic charges =     0.000000

                    Cartesian Multipole Moments
 -----------------------------------------------------------------
    Charge (ESU x 10^10)
                 0.0000
    Dipole Moment (Debye)
         X       0.1768      Y       0.1238      Z       0.2090
       Tot       0.3005
    Quadrupole Moments (Debye-Ang)
        XX    -170.6370     XY      -0.7052     YY    -123.5929
        XZ      18.9975     YZ       0.4852     ZZ    -173.1486

 Total job time:  1053.86s(wall), 2096.25s(cpu)
        *  Thank you very much for using Q-Chem.  Have a nice day.  *
