 Q-Chem 5.0, Q-Chem, Inc., Pleasanton, CA (2017)
 Q-Chem 5.0.1 for Intel X86 EM64T Linux

User input:
--------------------------------------------------------------
$molecule
0  1
--
0  1
C        +0.22270000        +1.04488000        +0.58595000
C        +0.62626000        -0.41353000        +0.99871000
C        -1.18200000        +1.23223000        +0.04377000
C        -0.37457000        -1.51643000        +0.72333000
O        -2.09172000        +0.78832000        +0.93966000
O        -1.47336000        +1.75939000        -0.99882000
O        -0.91364000        -1.42792000        -0.50620000
O        -0.62208000        -2.40877000        +1.49911000
C        -1.86134000        -2.44741000        -0.86560000
C        -3.47068000        +0.87492000        +0.53920000
C        +1.33008000        +1.39974000        -0.43491000
C        +2.63070000        +1.71700000        +0.32855000
C        +3.04336000        +0.29351000        +0.80300000
C        +1.94423000        -0.59299000        +0.15262000
O        +1.62840000        +0.13663000        -1.04376000
H        +0.27811000        +1.68786000        +1.46900000
H        +0.83923000        -0.48042000        +2.06408000
H        -2.68749000        -2.46677000        -0.15296000
H        -3.76076000        +1.91522000        +0.38406000
H        +3.37234000        +2.13782000        -0.35195000
H        +2.48236000        +2.42488000        +1.14651000
H        +4.02182000        +0.00994000        +0.41161000
H        +3.07359000        +0.18738000        +1.88928000
H        -2.21148000        -2.17765000        -1.85937000
H        -1.38062000        -3.42697000        -0.88096000
H        -4.03855000        +0.43623000        +1.35671000
H        -3.63120000        +0.31700000        -0.38495000
C        +2.35450000        -2.01267000        -0.16812000
H        +3.26311000        -2.00678000        -0.77366000
H        +2.54990000        -2.57059000        +0.75079000
H        +1.57335000        -2.52896000        -0.72872000
H        +1.03270000        +2.19943000        -1.08064000
--
0  1
C        +0.25661000        +2.96556000        +6.79561000
C        +0.66017000        +1.50715000        +7.20837000
C        -1.14809000        +3.15291000        +6.25343000
C        -0.34066000        +0.40425000        +6.93299000
O        -2.05781000        +2.70900000        +7.14932000
O        -1.43945000        +3.68007000        +5.21084000
O        -0.87973000        +0.49276000        +5.70346000
O        -0.58817000        -0.48809000        +7.70877000
C        -1.82743000        -0.52673000        +5.34406000
C        -3.43677000        +2.79560000        +6.74886000
C        +1.36399000        +3.32042000        +5.77475000
C        +2.66461000        +3.63768000        +6.53821000
C        +3.07727000        +2.21419000        +7.01266000
C        +1.97814000        +1.32769000        +6.36228000
O        +1.66231000        +2.05731000        +5.16590000
H        +0.31202000        +3.60854000        +7.67866000
H        +0.87314000        +1.44026000        +8.27374000
H        -2.65358000        -0.54609000        +6.05670000
H        -3.72685000        +3.83590000        +6.59372000
H        +3.40625000        +4.05850000        +5.85771000
H        +2.51627000        +4.34556000        +7.35617000
H        +4.05573000        +1.93062000        +6.62127000
H        +3.10750000        +2.10806000        +8.09894000
H        -2.17757000        -0.25697000        +4.35029000
H        -1.34671000        -1.50629000        +5.32870000
H        -4.00464000        +2.35691000        +7.56637000
H        -3.59729000        +2.23768000        +5.82471000
C        +2.38841000        -0.09199000        +6.04154000
H        +3.29702000        -0.08610000        +5.43600000
H        +2.58381000        -0.64991000        +6.96045000
H        +1.60726000        -0.60828000        +5.48094000
H        +1.06661000        +4.12011000        +5.12902000
$end

$rem
JOBTYPE                   SP
METHOD                    B3LYP
DFT_D                     d3_op
BASIS                     6-311++G(d,p)
SYMMETRY                  False
THRESH                    12
SCF_CONVERGENCE           8
MAX_SUB_FILE_NUM          128
MEM_STATIC                400
MEM_TOTAL                 4000
$end
--------------------------------------------------------------

             Standard Nuclear Orientation (Angstroms)
    I     Atom           X                Y                Z
 ----------------------------------------------------------------
    1      C      -2.4387763771     0.2032815651     1.1013835224
    2      C      -2.5382954533     0.5596740262    -0.4228446713
    3      C      -2.9043102237    -1.1831249134     1.5056069492
    4      C      -3.1838090427    -0.4623223699    -1.3353789532
    5      O      -2.2235875205    -2.1245699117     0.8145473460
    6      O      -3.7109295200    -1.4364854282     2.3629026880
    7      O      -4.3180045356    -0.9700936025    -0.8196818858
    8      O      -2.7589527220    -0.7506144307    -2.4288830814
    9      C      -5.0136569547    -1.9348972736    -1.6270759025
   10      C      -2.5895022557    -3.4911371754     1.0753130902
   11      C      -3.2645761676     1.3429096901     1.7445582005
   12      C      -2.4215338975     2.6330322926     1.7436281437
   13      C      -2.4510721310     2.9979714657     0.2311263252
   14      C      -3.3775632537     1.8920238140    -0.3480602964
   15      O      -4.2607397542     1.6229755643     0.7524083973
   16      H      -1.3896363606     0.2544757088     1.4062691345
   17      H      -1.5556043632     0.7459271090    -0.8523464066
   18      H      -4.3606518671    -2.7776887491    -1.8595437197
   19      H      -2.3874801949    -3.7508234019     2.1155962568
   20      H      -2.9096332755     3.4008778562     2.3456013987
   21      H      -1.4144063665     2.4837779054     2.1380577011
   22      H      -2.9022243229     3.9777347293     0.0652718844
   23      H      -1.4644147067     3.0001025996    -0.2365105569
   24      H      -5.8621851727    -2.2547234463    -1.0265275092
   25      H      -5.3530268400    -1.4791508533    -2.5587350262
   26      H      -1.9762084866    -4.0889733457     0.4047084977
   27      H      -3.6499467856    -3.6442438062     0.8676827024
   28      C      -4.1540908500     2.2732415058    -1.5883686801
   29      H      -4.7097751105     3.1955980973    -1.4073746566
   30      H      -3.4755339673     2.4328013749    -2.4297679192
   31      H      -4.8666421346     1.4924515853    -1.8597739371
   32      H      -3.6056636141     1.0812327709     2.7244004006
   33      C       4.0544017479     0.1412653450     0.8101264351
   34      C       3.9548826718     0.4976578061    -0.7141017586
   35      C       3.5888679013    -1.2451411335     1.2143498619
   36      C       3.3093690823    -0.5243385900    -1.6266360404
   37      O       4.2695906046    -2.1865861318     0.5232902587
   38      O       2.7822486050    -1.4985016484     2.0716456007
   39      O       2.1751735895    -1.0321098226    -1.1109389731
   40      O       3.7342254031    -0.8126306508    -2.7201401687
   41      C       1.4795211704    -1.9969134937    -1.9183329897
   42      C       3.9036758694    -3.5531533956     0.7840560029
   43      C       3.2286019575     1.2808934700     1.4533011132
   44      C       4.0716442275     2.5710160725     1.4523710565
   45      C       4.0421059940     2.9359552456    -0.0601307620
   46      C       3.1156148714     1.8300075939    -0.6393173837
   47      O       2.2324383709     1.5609593442     0.4611513101
   48      H       5.1035417644     0.1924594887     1.1150120472
   49      H       4.9375737618     0.6839108889    -1.1436034939
   50      H       2.1325262579    -2.8397049693    -2.1508008070
   51      H       4.1056979301    -3.8128396220     1.8243391695
   52      H       3.5835448496     3.3388616361     2.0543443114
   53      H       5.0787717586     2.4217616852     1.8468006138
   54      H       3.5909538021     3.9157185092    -0.2259852029
   55      H       5.0287634183     2.9380863795    -0.5277676442
   56      H       0.6309929524    -2.3167396664    -1.3177845964
   57      H       1.1401512850    -1.5411670734    -2.8499921135
   58      H       4.5169696385    -4.1509895658     0.1134514105
   59      H       2.8432313395    -3.7062600263     0.5764256151
   60      C       2.3390872751     2.2112252856    -1.8796257674
   61      H       1.7834030146     3.1335818771    -1.6986317438
   62      H       3.0176441578     2.3707851548    -2.7210250065
   63      H       1.6265359905     1.4304353652    -2.1510310244
   64      H       2.8875145109     1.0192165508     2.4331433133
 ----------------------------------------------------------------

   15   -1610.3982830657      5.34E-09 Convergence criterion met
 Total energy in the final basis set = -1610.39828307

                    Orbital Energies (a.u.)
 --------------------------------------------------------------

 Alpha MOs
 -- Occupied --
-19.177 -19.173 -19.171 -19.171 -19.136 -19.126 -19.121 -19.116
-19.114 -19.114 -10.311 -10.306 -10.304 -10.304 -10.249 -10.241
-10.233 -10.233 -10.229 -10.229 -10.226 -10.222 -10.208 -10.206
-10.199 -10.198 -10.183 -10.182 -10.174 -10.174 -10.171 -10.167
 -1.121  -1.117  -1.114  -1.110  -1.068  -1.058  -1.033  -1.027
 -1.026  -1.026  -0.835  -0.827  -0.799  -0.791  -0.787  -0.778
 -0.747  -0.743  -0.729  -0.726  -0.700  -0.693  -0.658  -0.651
 -0.609  -0.602  -0.593  -0.585  -0.569  -0.566  -0.564  -0.557
 -0.536  -0.529  -0.520  -0.513  -0.512  -0.506  -0.495  -0.492
 -0.487  -0.486  -0.485  -0.480  -0.476  -0.473  -0.473  -0.469
 -0.463  -0.456  -0.446  -0.439  -0.435  -0.430  -0.426  -0.421
 -0.418  -0.413  -0.407  -0.401  -0.398  -0.395  -0.393  -0.385
 -0.384  -0.376  -0.374  -0.371  -0.371  -0.365  -0.364  -0.358
 -0.356  -0.355  -0.350  -0.345  -0.336  -0.335  -0.328  -0.326
 -0.321  -0.317  -0.313  -0.310  -0.292  -0.285  -0.283  -0.278
 -0.278  -0.269

          Ground-State Mulliken Net Atomic Charges

     Atom                 Charge (a.u.)
  ----------------------------------------
      1 C                    -0.014620
      2 C                     0.602990
      3 C                    -0.779387
      4 C                    -0.826219
      5 O                     0.033197
      6 O                    -0.190514
      7 O                     0.023980
      8 O                    -0.108663
      9 C                    -0.183498
     10 C                    -0.222261
     11 C                    -0.150260
     12 C                    -0.386563
     13 C                    -0.430124
     14 C                    -0.144529
     15 O                    -0.037930
     16 H                     0.237126
     17 H                     0.314576
     18 H                     0.194039
     19 H                     0.181817
     20 H                     0.194422
     21 H                     0.124568
     22 H                     0.178490
     23 H                     0.083383
     24 H                     0.177160
     25 H                     0.175792
     26 H                     0.139567
     27 H                     0.180977
     28 C                    -0.181226
     29 H                     0.181850
     30 H                     0.160915
     31 H                     0.180396
     32 H                     0.291779
     33 C                     0.001055
     34 C                     0.501250
     35 C                    -0.536681
     36 C                    -0.829845
     37 O                    -0.004995
     38 O                    -0.138053
     39 O                     0.026480
     40 O                    -0.112290
     41 C                    -0.246280
     42 C                    -0.174769
     43 C                    -0.219772
     44 C                    -0.592980
     45 C                    -0.332921
     46 C                    -0.277190
     47 O                     0.119157
     48 H                     0.247707
     49 H                     0.284779
     50 H                     0.200718
     51 H                     0.171734
     52 H                     0.180306
     53 H                     0.131805
     54 H                     0.167467
     55 H                     0.146510
     56 H                     0.147547
     57 H                     0.193391
     58 H                     0.165633
     59 H                     0.180547
     60 C                    -0.220699
     61 H                     0.186335
     62 H                     0.180958
     63 H                     0.181468
     64 H                     0.270398
  ----------------------------------------
  Sum of atomic charges =    -0.000000

                    Cartesian Multipole Moments
 -----------------------------------------------------------------
    Charge (ESU x 10^10)
                -0.0000
    Dipole Moment (Debye)
         X       2.7157      Y       0.0623      Z       0.1969
       Tot       2.7236
    Quadrupole Moments (Debye-Ang)
        XX    -190.3459     XY       8.4421     YY    -164.2753
        XZ      20.1755     YZ       1.0384     ZZ    -207.5063

 Total job time:  6700.03s(wall), 6684.41s(cpu)
        *  Thank you very much for using Q-Chem.  Have a nice day.  *
