 Q-Chem 5.0, Q-Chem, Inc., Pleasanton, CA (2017)
 Q-Chem 5.0.1 for Intel X86 EM64T Linux

User input:
--------------------------------------------------------------
$molecule
0  1
--
0  1
C        +0.22270000        +1.04488000        +0.58595000
C        +0.62626000        -0.41353000        +0.99871000
C        -1.18200000        +1.23223000        +0.04377000
C        -0.37457000        -1.51643000        +0.72333000
O        -2.09172000        +0.78832000        +0.93966000
O        -1.47336000        +1.75939000        -0.99882000
O        -0.91364000        -1.42792000        -0.50620000
O        -0.62208000        -2.40877000        +1.49911000
C        -1.86134000        -2.44741000        -0.86560000
C        -3.47068000        +0.87492000        +0.53920000
C        +1.33008000        +1.39974000        -0.43491000
C        +2.63070000        +1.71700000        +0.32855000
C        +3.04336000        +0.29351000        +0.80300000
C        +1.94423000        -0.59299000        +0.15262000
O        +1.62840000        +0.13663000        -1.04376000
H        +0.27811000        +1.68786000        +1.46900000
H        +0.83923000        -0.48042000        +2.06408000
H        -2.68749000        -2.46677000        -0.15296000
H        -3.76076000        +1.91522000        +0.38406000
H        +3.37234000        +2.13782000        -0.35195000
H        +2.48236000        +2.42488000        +1.14651000
H        +4.02182000        +0.00994000        +0.41161000
H        +3.07359000        +0.18738000        +1.88928000
H        -2.21148000        -2.17765000        -1.85937000
H        -1.38062000        -3.42697000        -0.88096000
H        -4.03855000        +0.43623000        +1.35671000
H        -3.63120000        +0.31700000        -0.38495000
C        +0.90028000        +2.39077000        -1.49430000
C        +2.35450000        -2.01267000        -0.16812000
H        +3.26311000        -2.00678000        -0.77366000
H        +2.54990000        -2.57059000        +0.75079000
H        +1.57335000        -2.52896000        -0.72872000
H        +1.71845000        +2.58186000        -2.15686000
H        +0.59919000        +3.30478000        -1.02650000
H        +0.07925000        +1.98653000        -2.04874000
--
0  1
C        +0.25661000        +2.96556000        +6.79561000
C        +0.66017000        +1.50715000        +7.20837000
C        -1.14809000        +3.15291000        +6.25343000
C        -0.34066000        +0.40425000        +6.93299000
O        -2.05781000        +2.70900000        +7.14932000
O        -1.43945000        +3.68007000        +5.21084000
O        -0.87973000        +0.49276000        +5.70346000
O        -0.58817000        -0.48809000        +7.70877000
C        -1.82743000        -0.52673000        +5.34406000
C        -3.43677000        +2.79560000        +6.74886000
C        +1.36399000        +3.32042000        +5.77475000
C        +2.66461000        +3.63768000        +6.53821000
C        +3.07727000        +2.21419000        +7.01266000
C        +1.97814000        +1.32769000        +6.36228000
O        +1.66231000        +2.05731000        +5.16590000
H        +0.31202000        +3.60854000        +7.67866000
H        +0.87314000        +1.44026000        +8.27374000
H        -2.65358000        -0.54609000        +6.05670000
H        -3.72685000        +3.83590000        +6.59372000
H        +3.40625000        +4.05850000        +5.85771000
H        +2.51627000        +4.34556000        +7.35617000
H        +4.05573000        +1.93062000        +6.62127000
H        +3.10750000        +2.10806000        +8.09894000
H        -2.17757000        -0.25697000        +4.35029000
H        -1.34671000        -1.50629000        +5.32870000
H        -4.00464000        +2.35691000        +7.56637000
H        -3.59729000        +2.23768000        +5.82471000
C        +0.93419000        +4.31145000        +4.71536000
C        +2.38841000        -0.09199000        +6.04154000
H        +3.29702000        -0.08610000        +5.43600000
H        +2.58381000        -0.64991000        +6.96045000
H        +1.60726000        -0.60828000        +5.48094000
H        +1.75236000        +4.50254000        +4.05280000
H        +0.63310000        +5.22546000        +5.18316000
H        +0.11316000        +3.90721000        +4.16092000
$end

$rem
JOBTYPE                   SP
METHOD                    B3LYP
DFT_D                     d3_op
BASIS                     6-311++G(d,p)
SYMMETRY                  False
THRESH                    12
SCF_CONVERGENCE           8
MAX_SUB_FILE_NUM          128
MEM_STATIC                400
MEM_TOTAL                 4000
$end
--------------------------------------------------------------

             Standard Nuclear Orientation (Angstroms)
    I     Atom           X                Y                Z
 ----------------------------------------------------------------
    1      C      -2.4079236992     0.2496410792     0.8425719735
    2      C      -2.4814948353     0.3951659134    -0.7174283566
    3      C      -2.8717107092    -1.0733180354     1.4230218466
    4      C      -3.1032006793    -0.7469246117    -1.4939554452
    5      O      -2.1720790929    -2.0935587752     0.8781458121
    6      O      -3.6924075310    -1.2154022769     2.2925337892
    7      O      -4.2433913280    -1.1903431352    -0.9340270538
    8      O      -2.6562323094    -1.1769540106    -2.5306137671
    9      C      -4.9175549387    -2.2619704608    -1.6150423334
   10      C      -2.5337354462    -3.4154105197     1.3155370567
   11      C      -3.2530247131     1.4584197257     1.3105780458
   12      C      -2.4186498093     2.7440886243     1.1492973386
   13      C      -2.4225277144     2.9003049056    -0.3990231365
   14      C      -3.3307874769     1.7176922660    -0.8388579916
   15      O      -4.2324351918     1.5923423374     0.2723295855
   16      H      -1.3649825804     0.3512042443     1.1559879866
   17      H      -1.4922549985     0.5303623883    -1.1509836452
   18      H      -4.2547964778    -3.1225464276    -1.7195154382
   19      H      -2.3493401804    -3.5298122691     2.3848122980
   20      H      -2.9228958375     3.5820069068     1.6328555120
   21      H      -1.4180506080     2.6588225176     1.5778861168
   22      H      -2.8769861141     3.8444052847    -0.7041855290
   23      H      -1.4273986013     2.8479527003    -0.8452954333
   24      H      -5.7749495235    -2.5050942968    -0.9915741173
   25      H      -5.2425818931    -1.9398439814    -2.6057276779
   26      H      -1.9041687246    -4.0930672010     0.7431080058
   27      H      -3.5891103700    -3.6048571130     1.1120957191
   28      C      -3.9419546237     1.2531951568     2.6419060022
   29      C      -4.0866680001     1.9201724158    -2.1328183258
   30      H      -4.6516949160     2.8534783355    -2.0884318384
   31      H      -3.3936841741     1.9703209690    -2.9760917181
   32      H      -4.7888880341     1.1033701122    -2.3081581881
   33      H      -4.5022874397     2.1296583381     2.8923909674
   34      H      -3.2080716469     1.0706219464     3.3988664420
   35      H      -4.6027142590     0.4141753887     2.5759781234
   36      C       4.0898088528     0.2075461605     0.6760229803
   37      C       4.0162377167     0.3530709948    -0.8839773498
   38      C       3.6260218428    -1.1154129541     1.2564728534
   39      C       3.3945318726    -0.7890195303    -1.6605044384
   40      O       4.3256534590    -2.1356536939     0.7115968189
   41      O       2.8053250210    -1.2574971956     2.1259847960
   42      O       2.2543412239    -1.2324380539    -1.1005760470
   43      O       3.8415002426    -1.2190489293    -2.6971627603
   44      C       1.5801776132    -2.3040653795    -1.7815913267
   45      C       3.9639971057    -3.4575054384     1.1489880635
   46      C       3.2447078388     1.4163248070     1.1440290526
   47      C       4.0790827426     2.7019937057     0.9827483454
   48      C       4.0752048375     2.8582099869    -0.5655721297
   49      C       3.1669450750     1.6755973473    -1.0054069848
   50      O       2.2652973602     1.5502474188     0.1057805922
   51      H       5.1327499715     0.3091093256     0.9894389934
   52      H       5.0054775535     0.4882674696    -1.3175326384
   53      H       2.2429360741    -3.1646413463    -1.8860644314
   54      H       4.1483923716    -3.5719071878     2.2182633048
   55      H       3.5748367145     3.5399119881     1.4663065188
   56      H       5.0796819440     2.6167275989     1.4113371236
   57      H       3.6207464379     3.8023103660    -0.8707345222
   58      H       5.0703339507     2.8058577817    -1.0118444265
   59      H       0.7227830285    -2.5471892155    -1.1581231105
   60      H       1.2551506588    -1.9819389001    -2.7722766711
   61      H       4.5935638274    -4.1351621197     0.5765590126
   62      H       2.9086221820    -3.6469520317     0.9455467259
   63      C       2.5557779283     1.2111002381     2.4753570090
   64      C       2.4110645519     1.8780774971    -2.2993673190
   65      H       1.8460376359     2.8113834168    -2.2549808316
   66      H       3.1040483778     1.9282260504    -3.1426407113
   67      H       1.7088445179     1.0612751936    -2.4747071813
   68      H       1.9954451123     2.0875634194     2.7258419742
   69      H       3.2896609051     1.0285270277     3.2323174488
   70      H       1.8950182929     0.3720804701     2.4094291302
 ----------------------------------------------------------------

   15   -1689.0396984598      5.11E-09 Convergence criterion met
 Total energy in the final basis set = -1689.03969846

                    Orbital Energies (a.u.)
 --------------------------------------------------------------

 Alpha MOs
 -- Occupied --
-19.178 -19.173 -19.173 -19.172 -19.129 -19.120 -19.119 -19.116
-19.115 -19.113 -10.313 -10.307 -10.306 -10.304 -10.246 -10.238
-10.235 -10.234 -10.231 -10.230 -10.227 -10.226 -10.207 -10.205
-10.198 -10.198 -10.181 -10.178 -10.172 -10.171 -10.168 -10.165
-10.141 -10.132  -1.122  -1.118  -1.114  -1.111  -1.065  -1.056
 -1.036  -1.030  -1.027  -1.026  -0.835  -0.827  -0.807  -0.799
 -0.786  -0.778  -0.748  -0.745  -0.731  -0.727  -0.724  -0.717
 -0.677  -0.670  -0.647  -0.639  -0.605  -0.599  -0.582  -0.575
 -0.570  -0.567  -0.563  -0.557  -0.527  -0.520  -0.516  -0.511
 -0.510  -0.503  -0.495  -0.491  -0.490  -0.486  -0.481  -0.477
 -0.476  -0.473  -0.473  -0.468  -0.461  -0.454  -0.444  -0.439
 -0.437  -0.434  -0.431  -0.430  -0.417  -0.412  -0.410  -0.408
 -0.406  -0.402  -0.399  -0.396  -0.396  -0.392  -0.376  -0.373
 -0.371  -0.369  -0.368  -0.361  -0.360  -0.357  -0.353  -0.353
 -0.350  -0.349  -0.344  -0.340  -0.337  -0.332  -0.329  -0.324
 -0.322  -0.318  -0.313  -0.311  -0.285  -0.282  -0.276  -0.273
 -0.267  -0.266

          Ground-State Mulliken Net Atomic Charges

     Atom                 Charge (a.u.)
  ----------------------------------------
      1 C                     0.549480
      2 C                     1.018068
      3 C                    -1.043081
      4 C                    -1.258420
      5 O                     0.060546
      6 O                    -0.126559
      7 O                     0.010045
      8 O                    -0.098058
      9 C                    -0.185790
     10 C                    -0.224659
     11 C                    -0.767447
     12 C                    -0.231276
     13 C                    -0.530846
     14 C                    -0.535757
     15 O                     0.082549
     16 H                     0.248520
     17 H                     0.379405
     18 H                     0.194013
     19 H                     0.180905
     20 H                     0.192725
     21 H                     0.133662
     22 H                     0.186152
     23 H                     0.090650
     24 H                     0.173310
     25 H                     0.177320
     26 H                     0.143390
     27 H                     0.184248
     28 C                    -0.108424
     29 C                     0.090724
     30 H                     0.175209
     31 H                     0.164885
     32 H                     0.176698
     33 H                     0.140182
     34 H                     0.156308
     35 H                     0.198745
     36 C                     0.336914
     37 C                     0.835070
     38 C                    -0.826593
     39 C                    -1.144430
     40 O                     0.016218
     41 O                    -0.079371
     42 O                     0.025697
     43 O                    -0.103748
     44 C                    -0.249942
     45 C                    -0.177941
     46 C                    -0.512881
     47 C                    -0.490825
     48 C                    -0.382690
     49 C                    -0.734340
     50 O                     0.242385
     51 H                     0.272642
     52 H                     0.284747
     53 H                     0.202688
     54 H                     0.169614
     55 H                     0.174106
     56 H                     0.145622
     57 H                     0.166070
     58 H                     0.146378
     59 H                     0.141708
     60 H                     0.193617
     61 H                     0.166410
     62 H                     0.178971
     63 C                    -0.091084
     64 C                     0.053382
     65 H                     0.188608
     66 H                     0.184415
     67 H                     0.199768
     68 H                     0.127932
     69 H                     0.173261
     70 H                     0.170199
  ----------------------------------------
  Sum of atomic charges =     0.000000

                    Cartesian Multipole Moments
 -----------------------------------------------------------------
    Charge (ESU x 10^10)
                 0.0000
    Dipole Moment (Debye)
         X       2.3578      Y      -0.5788      Z       0.4908
       Tot       2.4769
    Quadrupole Moments (Debye-Ang)
        XX    -203.3375     XY      11.0316     YY    -179.4968
        XZ      18.0365     YZ      -6.1018     ZZ    -220.1802

 Total job time:  3354.13s(wall), 6675.69s(cpu)
        *  Thank you very much for using Q-Chem.  Have a nice day.  *
