 Q-Chem 5.0, Q-Chem, Inc., Pleasanton, CA (2017)
 Q-Chem 5.0.1 for Intel X86 EM64T Linux

User input:
--------------------------------------------------------------
$molecule
0  1
C        +0.22270000        +1.04488000        +0.58595000
C        +0.62626000        -0.41353000        +0.99871000
C        -1.18200000        +1.23223000        +0.04377000
C        -0.37457000        -1.51643000        +0.72333000
O        -2.09172000        +0.78832000        +0.93966000
O        -1.47336000        +1.75939000        -0.99882000
O        -0.91364000        -1.42792000        -0.50620000
O        -0.62208000        -2.40877000        +1.49911000
C        -1.86134000        -2.44741000        -0.86560000
C        -3.47068000        +0.87492000        +0.53920000
C        +1.33008000        +1.39974000        -0.43491000
C        +2.63070000        +1.71700000        +0.32855000
C        +3.04336000        +0.29351000        +0.80300000
C        +1.94423000        -0.59299000        +0.15262000
O        +1.62840000        +0.13663000        -1.04376000
H        +0.27811000        +1.68786000        +1.46900000
H        +0.83923000        -0.48042000        +2.06408000
H        -2.68749000        -2.46677000        -0.15296000
H        -3.76076000        +1.91522000        +0.38406000
H        +3.37234000        +2.13782000        -0.35195000
H        +2.48236000        +2.42488000        +1.14651000
H        +4.02182000        +0.00994000        +0.41161000
H        +3.07359000        +0.18738000        +1.88928000
H        -2.21148000        -2.17765000        -1.85937000
H        -1.38062000        -3.42697000        -0.88096000
H        -4.03855000        +0.43623000        +1.35671000
H        -3.63120000        +0.31700000        -0.38495000
C        +0.90028000        +2.39077000        -1.49430000
C        +2.35450000        -2.01267000        -0.16812000
H        +3.26311000        -2.00678000        -0.77366000
H        +2.54990000        -2.57059000        +0.75079000
H        +1.57335000        -2.52896000        -0.72872000
H        +1.71845000        +2.58186000        -2.15686000
H        +0.59919000        +3.30478000        -1.02650000
H        +0.07925000        +1.98653000        -2.04874000
@C        +0.25661000        +2.96556000        +6.79561000
@C        +0.66017000        +1.50715000        +7.20837000
@C        -1.14809000        +3.15291000        +6.25343000
@C        -0.34066000        +0.40425000        +6.93299000
@O        -2.05781000        +2.70900000        +7.14932000
@O        -1.43945000        +3.68007000        +5.21084000
@O        -0.87973000        +0.49276000        +5.70346000
@O        -0.58817000        -0.48809000        +7.70877000
@C        -1.82743000        -0.52673000        +5.34406000
@C        -3.43677000        +2.79560000        +6.74886000
@C        +1.36399000        +3.32042000        +5.77475000
@C        +2.66461000        +3.63768000        +6.53821000
@C        +3.07727000        +2.21419000        +7.01266000
@C        +1.97814000        +1.32769000        +6.36228000
@O        +1.66231000        +2.05731000        +5.16590000
@H        +0.31202000        +3.60854000        +7.67866000
@H        +0.87314000        +1.44026000        +8.27374000
@H        -2.65358000        -0.54609000        +6.05670000
@H        -3.72685000        +3.83590000        +6.59372000
@H        +3.40625000        +4.05850000        +5.85771000
@H        +2.51627000        +4.34556000        +7.35617000
@H        +4.05573000        +1.93062000        +6.62127000
@H        +3.10750000        +2.10806000        +8.09894000
@H        -2.17757000        -0.25697000        +4.35029000
@H        -1.34671000        -1.50629000        +5.32870000
@H        -4.00464000        +2.35691000        +7.56637000
@H        -3.59729000        +2.23768000        +5.82471000
@C        +0.93419000        +4.31145000        +4.71536000
@C        +2.38841000        -0.09199000        +6.04154000
@H        +3.29702000        -0.08610000        +5.43600000
@H        +2.58381000        -0.64991000        +6.96045000
@H        +1.60726000        -0.60828000        +5.48094000
@H        +1.75236000        +4.50254000        +4.05280000
@H        +0.63310000        +5.22546000        +5.18316000
@H        +0.11316000        +3.90721000        +4.16092000
$end

$rem
JOBTYPE                   SP
METHOD                    B3LYP
DFT_D                     d3_op
BASIS                     6-311++G(d,p)
SYMMETRY                  False
THRESH                    12
SCF_CONVERGENCE           8
MAX_SUB_FILE_NUM          128
MEM_STATIC                400
MEM_TOTAL                 4000
$end
--------------------------------------------------------------

             Standard Nuclear Orientation (Angstroms)
    I     Atom           X                Y                Z
 ----------------------------------------------------------------
    1      C       0.2227000000     1.0448800000     0.5859500000
    2      C       0.6262600000    -0.4135300000     0.9987100000
    3      C      -1.1820000000     1.2322300000     0.0437700000
    4      C      -0.3745700000    -1.5164300000     0.7233300000
    5      O      -2.0917200000     0.7883200000     0.9396600000
    6      O      -1.4733600000     1.7593900000    -0.9988200000
    7      O      -0.9136400000    -1.4279200000    -0.5062000000
    8      O      -0.6220800000    -2.4087700000     1.4991100000
    9      C      -1.8613400000    -2.4474100000    -0.8656000000
   10      C      -3.4706800000     0.8749200000     0.5392000000
   11      C       1.3300800000     1.3997400000    -0.4349100000
   12      C       2.6307000000     1.7170000000     0.3285500000
   13      C       3.0433600000     0.2935100000     0.8030000000
   14      C       1.9442300000    -0.5929900000     0.1526200000
   15      O       1.6284000000     0.1366300000    -1.0437600000
   16      H       0.2781100000     1.6878600000     1.4690000000
   17      H       0.8392300000    -0.4804200000     2.0640800000
   18      H      -2.6874900000    -2.4667700000    -0.1529600000
   19      H      -3.7607600000     1.9152200000     0.3840600000
   20      H       3.3723400000     2.1378200000    -0.3519500000
   21      H       2.4823600000     2.4248800000     1.1465100000
   22      H       4.0218200000     0.0099400000     0.4116100000
   23      H       3.0735900000     0.1873800000     1.8892800000
   24      H      -2.2114800000    -2.1776500000    -1.8593700000
   25      H      -1.3806200000    -3.4269700000    -0.8809600000
   26      H      -4.0385500000     0.4362300000     1.3567100000
   27      H      -3.6312000000     0.3170000000    -0.3849500000
   28      C       0.9002800000     2.3907700000    -1.4943000000
   29      C       2.3545000000    -2.0126700000    -0.1681200000
   30      H       3.2631100000    -2.0067800000    -0.7736600000
   31      H       2.5499000000    -2.5705900000     0.7507900000
   32      H       1.5733500000    -2.5289600000    -0.7287200000
   33      H       1.7184500000     2.5818600000    -2.1568600000
   34      H       0.5991900000     3.3047800000    -1.0265000000
   35      H       0.0792500000     1.9865300000    -2.0487400000
   36      GH      0.2566100000     2.9655600000     6.7956100000
   37      GH      0.6601700000     1.5071500000     7.2083700000
   38      GH     -1.1480900000     3.1529100000     6.2534300000
   39      GH     -0.3406600000     0.4042500000     6.9329900000
   40      GH     -2.0578100000     2.7090000000     7.1493200000
   41      GH     -1.4394500000     3.6800700000     5.2108400000
   42      GH     -0.8797300000     0.4927600000     5.7034600000
   43      GH     -0.5881700000    -0.4880900000     7.7087700000
   44      GH     -1.8274300000    -0.5267300000     5.3440600000
   45      GH     -3.4367700000     2.7956000000     6.7488600000
   46      GH      1.3639900000     3.3204200000     5.7747500000
   47      GH      2.6646100000     3.6376800000     6.5382100000
   48      GH      3.0772700000     2.2141900000     7.0126600000
   49      GH      1.9781400000     1.3276900000     6.3622800000
   50      GH      1.6623100000     2.0573100000     5.1659000000
   51      GH      0.3120200000     3.6085400000     7.6786600000
   52      GH      0.8731400000     1.4402600000     8.2737400000
   53      GH     -2.6535800000    -0.5460900000     6.0567000000
   54      GH     -3.7268500000     3.8359000000     6.5937200000
   55      GH      3.4062500000     4.0585000000     5.8577100000
   56      GH      2.5162700000     4.3455600000     7.3561700000
   57      GH      4.0557300000     1.9306200000     6.6212700000
   58      GH      3.1075000000     2.1080600000     8.0989400000
   59      GH     -2.1775700000    -0.2569700000     4.3502900000
   60      GH     -1.3467100000    -1.5062900000     5.3287000000
   61      GH     -4.0046400000     2.3569100000     7.5663700000
   62      GH     -3.5972900000     2.2376800000     5.8247100000
   63      GH      0.9341900000     4.3114500000     4.7153600000
   64      GH      2.3884100000    -0.0919900000     6.0415400000
   65      GH      3.2970200000    -0.0861000000     5.4360000000
   66      GH      2.5838100000    -0.6499100000     6.9604500000
   67      GH      1.6072600000    -0.6082800000     5.4809400000
   68      GH      1.7523600000     4.5025400000     4.0528000000
   69      GH      0.6331000000     5.2254600000     5.1831600000
   70      GH      0.1131600000     3.9072100000     4.1609200000
 ----------------------------------------------------------------

   14    -844.5172208023      5.79E-09 Convergence criterion met
 Total energy in the final basis set = -844.51722080

                    Orbital Energies (a.u.)
 --------------------------------------------------------------

 Alpha MOs
 -- Occupied --
-19.176 -19.174 -19.125 -19.117 -19.116 -10.311 -10.306 -10.242
-10.232 -10.231 -10.231 -10.204 -10.203 -10.178 -10.175 -10.169
-10.136  -1.121  -1.114  -1.061  -1.034  -1.027  -0.832  -0.804
 -0.784  -0.748  -0.730  -0.720  -0.674  -0.644  -0.603  -0.579
 -0.570  -0.561  -0.525  -0.514  -0.508  -0.493  -0.489  -0.480
 -0.476  -0.471  -0.459  -0.443  -0.435  -0.433  -0.414  -0.411
 -0.403  -0.399  -0.395  -0.374  -0.372  -0.364  -0.358  -0.355
 -0.349  -0.346  -0.333  -0.328  -0.321  -0.313  -0.284  -0.272
 -0.270

          Ground-State Mulliken Net Atomic Charges

     Atom                 Charge (a.u.)
  ----------------------------------------
      1 C                     0.517041
      2 C                     1.059152
      3 C                    -1.024935
      4 C                    -1.295778
      5 O                     0.064998
      6 O                    -0.124579
      7 O                     0.008487
      8 O                    -0.089817
      9 C                    -0.185937
     10 C                    -0.230655
     11 C                    -0.768876
     12 C                    -0.213610
     13 C                    -0.522752
     14 C                    -0.530484
     15 O                     0.089047
     16 H                     0.210728
     17 H                     0.381331
     18 H                     0.195997
     19 H                     0.179105
     20 H                     0.195342
     21 H                     0.122475
     22 H                     0.189041
     23 H                     0.087306
     24 H                     0.172928
     25 H                     0.177375
     26 H                     0.149975
     27 H                     0.184244
     28 C                    -0.113092
     29 C                     0.098938
     30 H                     0.175458
     31 H                     0.166541
     32 H                     0.178631
     33 H                     0.141349
     34 H                     0.154602
     35 H                     0.200453
     36 GH                   -0.003053
     37 GH                    0.003219
     38 GH                    0.004013
     39 GH                    0.000938
     40 GH                   -0.000034
     41 GH                    0.000446
     42 GH                    0.001406
     43 GH                   -0.000023
     44 GH                    0.000638
     45 GH                    0.000223
     46 GH                   -0.009454
     47 GH                    0.000630
     48 GH                   -0.001744
     49 GH                   -0.002463
     50 GH                    0.002544
     51 GH                   -0.000001
     52 GH                    0.000012
     53 GH                   -0.000605
     54 GH                   -0.000060
     55 GH                    0.000269
     56 GH                    0.000011
     57 GH                   -0.000506
     58 GH                    0.000025
     59 GH                   -0.010234
     60 GH                   -0.000664
     61 GH                    0.000032
     62 GH                    0.000099
     63 GH                   -0.001618
     64 GH                    0.001611
     65 GH                    0.005858
     66 GH                    0.000088
     67 GH                   -0.002420
     68 GH                    0.001115
     69 GH                    0.000383
     70 GH                    0.009286
  ----------------------------------------
  Sum of atomic charges =    -0.000000

                    Cartesian Multipole Moments
 -----------------------------------------------------------------
    Charge (ESU x 10^10)
                 0.0000
    Dipole Moment (Debye)
         X      -0.3314      Y       0.5001      Z       0.9145
       Tot       1.0937
    Quadrupole Moments (Debye-Ang)
        XX     -89.0147     XY       1.8200     YY    -103.5165
        XZ       3.5099     YZ      10.8150     ZZ    -108.3834

 Total job time:  3111.57s(wall), 6189.68s(cpu)
        *  Thank you very much for using Q-Chem.  Have a nice day.  *
