 Q-Chem 5.0, Q-Chem, Inc., Pleasanton, CA (2017)
 Q-Chem 5.0.1 for Intel X86 EM64T Linux

User input:
--------------------------------------------------------------
$molecule
0  1
--
0  1
C        -0.54444000        -0.68370000        -0.06689000
C        -0.55709000        +0.71878000        +0.05493000
C        +0.74969000        -1.43776000        -0.09374000
C        +0.72843000        +1.48436000        +0.06598000
O        +1.53645000        -1.09176000        +0.94813000
O        +1.04702000        -2.28405000        -0.90088000
O        +1.53784000        +1.08301000        -0.93877000
O        +1.01035000        +2.37097000        +0.83478000
C        +2.83449000        +1.70121000        -0.99358000
C        +2.82316000        -1.73208000        +1.00475000
C        -1.74320000        -1.41616000        -0.12552000
C        -2.93952000        -0.70056000        -0.05285000
C        -2.95313000        +0.68255000        +0.06934000
C        -1.77161000        +1.42404000        +0.12810000
H        +2.73835000        +2.77989000        -1.12464000
H        +2.70778000        -2.81319000        +1.09555000
H        -3.90354000        +1.20325000        +0.11710000
H        +3.38998000        +1.50093000        -0.07544000
H        +3.33184000        +1.25269000        -1.85067000
H        +3.31095000        -1.32281000        +1.88650000
H        +3.39889000        -1.50934000        +0.10459000
H        -3.87892000        -1.24211000        -0.08988000
C        -1.83960000        +2.92746000        +0.24839000
H        -1.24214000        +3.42352000        -0.52065000
H        -1.45503000        +3.26427000        +1.21284000
H        -2.87211000        +3.26623000        +0.14638000
H        -1.73878000        -2.44393000        -0.21875000
--
0  1
C        -0.49971000        -1.25045000        +6.40820000
C        -0.51236000        +0.15203000        +6.53002000
C        +0.79442000        -2.00451000        +6.38135000
C        +0.77316000        +0.91761000        +6.54107000
O        +1.58118000        -1.65851000        +7.42322000
O        +1.09175000        -2.85080000        +5.57421000
O        +1.58257000        +0.51626000        +5.53632000
O        +1.05508000        +1.80422000        +7.30987000
C        +2.87922000        +1.13446000        +5.48151000
C        +2.86789000        -2.29883000        +7.47984000
C        -1.69847000        -1.98291000        +6.34957000
C        -2.89479000        -1.26731000        +6.42224000
C        -2.90840000        +0.11580000        +6.54443000
C        -1.72688000        +0.85729000        +6.60319000
H        +2.78308000        +2.21314000        +5.35045000
H        +2.75251000        -3.37994000        +7.57064000
H        -3.85881000        +0.63650000        +6.59219000
H        +3.43471000        +0.93418000        +6.39965000
H        +3.37657000        +0.68594000        +4.62442000
H        +3.35568000        -1.88956000        +8.36159000
H        +3.44362000        -2.07609000        +6.57968000
H        -3.83419000        -1.80886000        +6.38521000
C        -1.79487000        +2.36071000        +6.72348000
H        -1.19741000        +2.85677000        +5.95444000
H        -1.41030000        +2.69752000        +7.68793000
H        -2.82738000        +2.69948000        +6.62147000
H        -1.69405000        -3.01068000        +6.25634000
$end

$rem
JOBTYPE                   SP
METHOD                    B3LYP
DFT_D                     d3_op
BASIS                     6-311++G(d,p)
SYMMETRY                  False
THRESH                    12
SCF_CONVERGENCE           8
MAX_SUB_FILE_NUM          128
MEM_STATIC                400
MEM_TOTAL                 4000
$end
--------------------------------------------------------------

             Standard Nuclear Orientation (Angstroms)
    I     Atom           X                Y                Z
 ----------------------------------------------------------------
    1      C      -3.2296898499     0.2557450852     1.1842038258
    2      C      -3.2732924683     0.7598897138    -0.1295264701
    3      C      -3.1535564738    -1.2190663215     1.4356693039
    4      C      -3.3377892415    -0.1782724114    -1.2933514151
    5      O      -2.1507577664    -1.7825005962     0.7277590236
    6      O      -3.8525505093    -1.8323250494     2.2046998258
    7      O      -4.2794925315    -1.1271177743    -1.0967901677
    8      O      -2.6751563452    -0.0955489412    -2.2986792674
    9      C      -4.3919876245    -2.1301648868    -2.1203711087
   10      C      -2.0051532470    -3.2066547610     0.8671232573
   11      C      -3.2153606323     1.1216781611     2.2918658896
   12      C      -3.2403962967     2.4939054640     2.0370889754
   13      C      -3.2813711203     2.9922555221     0.7416827905
   14      C      -3.2968216206     2.1456058497    -0.3683601287
   15      H      -4.6496744929    -1.6730343378    -3.0767179625
   16      H      -1.7895127076    -3.4685828493     1.9040653245
   17      H      -3.3055585982     4.0653346888     0.5848237982
   18      H      -3.4505800464    -2.6726621658    -2.2257786623
   19      H      -5.1849971456    -2.7954853467    -1.7862826983
   20      H      -1.1721019111    -3.4763715205     0.2219857364
   21      H      -2.9187637970    -3.7149737936     0.5536050120
   22      H      -3.2241174637     3.1841874275     2.8739675770
   23      C      -3.3543935348     2.7364855550    -1.7564922078
   24      H      -4.1696005044     2.3092735985    -2.3458851479
   25      H      -2.4318696025     2.5425864271    -2.3068117387
   26      H      -3.5068909711     3.8157143399    -1.6994149373
   27      H      -3.1873914633     0.7565686296     3.2567157732
   28      C       3.2672844880     0.3502713029     1.0098877592
   29      C       3.2236818695     0.8544159314    -0.3038425367
   30      C       3.3434178640    -1.1245401039     1.2613532373
   31      C       3.1591850963    -0.0837461938    -1.4676674816
   32      O       4.3462165715    -1.6879743786     0.5534429571
   33      O       2.6444238286    -1.7377988318     2.0303837592
   34      O       2.2174818063    -1.0325915567    -1.2711062342
   35      O       3.8218179926    -0.0010227235    -2.4729953340
   36      C       2.1049867134    -2.0356386691    -2.2946871753
   37      C       4.4918210908    -3.1121285434     0.6928071907
   38      C       3.2816137056     1.2162043788     2.1175498231
   39      C       3.2565780411     2.5884316817     1.8627729088
   40      C       3.2156032175     3.0867817397     0.5673667240
   41      C       3.2001527173     2.2401320674    -0.5426761952
   42      H       1.8472998450    -1.5785081201    -3.2510340290
   43      H       4.7074616303    -3.3740566316     1.7297492580
   44      H       3.1914157396     4.1598609065     0.4105077317
   45      H       3.0463942914    -2.5781359481    -2.4000947289
   46      H       1.3119771922    -2.7009591290    -1.9605987648
   47      H       5.3248724268    -3.3818453029     0.0476696699
   48      H       3.5782105408    -3.6204475760     0.3792889455
   49      H       3.2728568742     3.2787136452     2.6996515104
   50      C       3.1425808031     2.8310117726    -1.9308082744
   51      H       2.3273738335     2.4037998162    -2.5202012145
   52      H       4.0651047354     2.6371126448    -2.4811278052
   53      H       2.9900833667     3.9102405575    -1.8737310038
   54      H       3.3095828745     0.8510948472     3.0823997066
 ----------------------------------------------------------------

   14   -1455.0886066230      9.06E-09 Convergence criterion met
 Total energy in the final basis set = -1455.08860662

                    Orbital Energies (a.u.)
 --------------------------------------------------------------

 Alpha MOs
 -- Occupied --
-19.176 -19.176 -19.174 -19.172 -19.120 -19.118 -19.118 -19.116
-10.312 -10.310 -10.310 -10.308 -10.232 -10.232 -10.230 -10.228
-10.209 -10.208 -10.206 -10.206 -10.205 -10.205 -10.192 -10.191
-10.189 -10.188 -10.188 -10.188 -10.173 -10.171  -1.120  -1.120
 -1.113  -1.112  -1.032  -1.030  -1.029  -1.026  -0.884  -0.884
 -0.799  -0.799  -0.793  -0.793  -0.745  -0.745  -0.730  -0.729
 -0.703  -0.702  -0.653  -0.652  -0.625  -0.625  -0.580  -0.579
 -0.574  -0.572  -0.548  -0.547  -0.519  -0.519  -0.512  -0.511
 -0.490  -0.490  -0.488  -0.487  -0.481  -0.480  -0.476  -0.476
 -0.470  -0.470  -0.445  -0.445  -0.434  -0.433  -0.430  -0.429
 -0.427  -0.426  -0.411  -0.410  -0.405  -0.404  -0.394  -0.394
 -0.382  -0.381  -0.376  -0.375  -0.368  -0.368  -0.363  -0.362
 -0.361  -0.361  -0.320  -0.320  -0.312  -0.311  -0.295  -0.295
 -0.292  -0.291  -0.267  -0.267  -0.262  -0.261

          Ground-State Mulliken Net Atomic Charges

     Atom                 Charge (a.u.)
  ----------------------------------------
      1 C                     0.446098
      2 C                     1.604336
      3 C                    -0.556767
      4 C                    -1.289141
      5 O                     0.084738
      6 O                    -0.185230
      7 O                     0.053620
      8 O                    -0.103144
      9 C                    -0.212794
     10 C                    -0.278798
     11 C                    -0.564995
     12 C                    -0.136979
     13 C                    -0.479675
     14 C                     0.154637
     15 H                     0.168600
     16 H                     0.186894
     17 H                     0.133016
     18 H                     0.175292
     19 H                     0.170370
     20 H                     0.129220
     21 H                     0.178980
     22 H                     0.184868
     23 C                    -0.552073
     24 H                     0.171797
     25 H                     0.187135
     26 H                     0.148191
     27 H                     0.179376
     28 C                     0.573622
     29 C                     1.332281
     30 C                    -0.765414
     31 C                    -0.846174
     32 O                     0.049808
     33 O                    -0.123369
     34 O                     0.088314
     35 O                    -0.168188
     36 C                    -0.278804
     37 C                    -0.211382
     38 C                    -0.611450
     39 C                    -0.120959
     40 C                    -0.504148
     41 C                     0.166863
     42 H                     0.182531
     43 H                     0.172000
     44 H                     0.135658
     45 H                     0.185438
     46 H                     0.132542
     47 H                     0.168726
     48 H                     0.171620
     49 H                     0.185085
     50 C                    -0.610718
     51 H                     0.182491
     52 H                     0.207815
     53 H                     0.140314
     54 H                     0.167922
  ----------------------------------------
  Sum of atomic charges =     0.000000

                    Cartesian Multipole Moments
 -----------------------------------------------------------------
    Charge (ESU x 10^10)
                 0.0000
    Dipole Moment (Debye)
         X       0.2776      Y       0.3384      Z      -0.8593
       Tot       0.9643
    Quadrupole Moments (Debye-Ang)
        XX    -183.2979     XY      -7.0004     YY    -143.3709
        XZ      17.1307     YZ      14.1216     ZZ    -179.4538

 Total job time:  1408.48s(wall), 2802.94s(cpu)
        *  Thank you very much for using Q-Chem.  Have a nice day.  *
