 Q-Chem 5.0, Q-Chem, Inc., Pleasanton, CA (2017)
 Q-Chem 5.0.1 for Intel X86 EM64T Linux

User input:
--------------------------------------------------------------
$molecule
0  1
C        -0.54444000        -0.68370000        -0.06689000
C        -0.55709000        +0.71878000        +0.05493000
C        +0.74969000        -1.43776000        -0.09374000
C        +0.72843000        +1.48436000        +0.06598000
O        +1.53645000        -1.09176000        +0.94813000
O        +1.04702000        -2.28405000        -0.90088000
O        +1.53784000        +1.08301000        -0.93877000
O        +1.01035000        +2.37097000        +0.83478000
C        +2.83449000        +1.70121000        -0.99358000
C        +2.82316000        -1.73208000        +1.00475000
C        -1.74320000        -1.41616000        -0.12552000
C        -2.93952000        -0.70056000        -0.05285000
C        -2.95313000        +0.68255000        +0.06934000
C        -1.77161000        +1.42404000        +0.12810000
H        +2.73835000        +2.77989000        -1.12464000
H        +2.70778000        -2.81319000        +1.09555000
H        -3.90354000        +1.20325000        +0.11710000
H        +3.38998000        +1.50093000        -0.07544000
H        +3.33184000        +1.25269000        -1.85067000
H        +3.31095000        -1.32281000        +1.88650000
H        +3.39889000        -1.50934000        +0.10459000
H        -3.87892000        -1.24211000        -0.08988000
C        -1.83960000        +2.92746000        +0.24839000
H        -1.24214000        +3.42352000        -0.52065000
H        -1.45503000        +3.26427000        +1.21284000
H        -2.87211000        +3.26623000        +0.14638000
H        -1.73878000        -2.44393000        -0.21875000
@C        -0.49971000        -1.25045000        +6.40820000
@C        -0.51236000        +0.15203000        +6.53002000
@C        +0.79442000        -2.00451000        +6.38135000
@C        +0.77316000        +0.91761000        +6.54107000
@O        +1.58118000        -1.65851000        +7.42322000
@O        +1.09175000        -2.85080000        +5.57421000
@O        +1.58257000        +0.51626000        +5.53632000
@O        +1.05508000        +1.80422000        +7.30987000
@C        +2.87922000        +1.13446000        +5.48151000
@C        +2.86789000        -2.29883000        +7.47984000
@C        -1.69847000        -1.98291000        +6.34957000
@C        -2.89479000        -1.26731000        +6.42224000
@C        -2.90840000        +0.11580000        +6.54443000
@C        -1.72688000        +0.85729000        +6.60319000
@H        +2.78308000        +2.21314000        +5.35045000
@H        +2.75251000        -3.37994000        +7.57064000
@H        -3.85881000        +0.63650000        +6.59219000
@H        +3.43471000        +0.93418000        +6.39965000
@H        +3.37657000        +0.68594000        +4.62442000
@H        +3.35568000        -1.88956000        +8.36159000
@H        +3.44362000        -2.07609000        +6.57968000
@H        -3.83419000        -1.80886000        +6.38521000
@C        -1.79487000        +2.36071000        +6.72348000
@H        -1.19741000        +2.85677000        +5.95444000
@H        -1.41030000        +2.69752000        +7.68793000
@H        -2.82738000        +2.69948000        +6.62147000
@H        -1.69405000        -3.01068000        +6.25634000
$end

$rem
JOBTYPE                   SP
METHOD                    B3LYP
DFT_D                     d3_op
BASIS                     6-311++G(d,p)
SYMMETRY                  False
THRESH                    12
SCF_CONVERGENCE           8
MAX_SUB_FILE_NUM          128
MEM_STATIC                400
MEM_TOTAL                 4000
$end
--------------------------------------------------------------

             Standard Nuclear Orientation (Angstroms)
    I     Atom           X                Y                Z
 ----------------------------------------------------------------
    1      C      -0.5444400000    -0.6837000000    -0.0668900000
    2      C      -0.5570900000     0.7187800000     0.0549300000
    3      C       0.7496900000    -1.4377600000    -0.0937400000
    4      C       0.7284300000     1.4843600000     0.0659800000
    5      O       1.5364500000    -1.0917600000     0.9481300000
    6      O       1.0470200000    -2.2840500000    -0.9008800000
    7      O       1.5378400000     1.0830100000    -0.9387700000
    8      O       1.0103500000     2.3709700000     0.8347800000
    9      C       2.8344900000     1.7012100000    -0.9935800000
   10      C       2.8231600000    -1.7320800000     1.0047500000
   11      C      -1.7432000000    -1.4161600000    -0.1255200000
   12      C      -2.9395200000    -0.7005600000    -0.0528500000
   13      C      -2.9531300000     0.6825500000     0.0693400000
   14      C      -1.7716100000     1.4240400000     0.1281000000
   15      H       2.7383500000     2.7798900000    -1.1246400000
   16      H       2.7077800000    -2.8131900000     1.0955500000
   17      H      -3.9035400000     1.2032500000     0.1171000000
   18      H       3.3899800000     1.5009300000    -0.0754400000
   19      H       3.3318400000     1.2526900000    -1.8506700000
   20      H       3.3109500000    -1.3228100000     1.8865000000
   21      H       3.3988900000    -1.5093400000     0.1045900000
   22      H      -3.8789200000    -1.2421100000    -0.0898800000
   23      C      -1.8396000000     2.9274600000     0.2483900000
   24      H      -1.2421400000     3.4235200000    -0.5206500000
   25      H      -1.4550300000     3.2642700000     1.2128400000
   26      H      -2.8721100000     3.2662300000     0.1463800000
   27      H      -1.7387800000    -2.4439300000    -0.2187500000
   28      GH     -0.4997100000    -1.2504500000     6.4082000000
   29      GH     -0.5123600000     0.1520300000     6.5300200000
   30      GH      0.7944200000    -2.0045100000     6.3813500000
   31      GH      0.7731600000     0.9176100000     6.5410700000
   32      GH      1.5811800000    -1.6585100000     7.4232200000
   33      GH      1.0917500000    -2.8508000000     5.5742100000
   34      GH      1.5825700000     0.5162600000     5.5363200000
   35      GH      1.0550800000     1.8042200000     7.3098700000
   36      GH      2.8792200000     1.1344600000     5.4815100000
   37      GH      2.8678900000    -2.2988300000     7.4798400000
   38      GH     -1.6984700000    -1.9829100000     6.3495700000
   39      GH     -2.8947900000    -1.2673100000     6.4222400000
   40      GH     -2.9084000000     0.1158000000     6.5444300000
   41      GH     -1.7268800000     0.8572900000     6.6031900000
   42      GH      2.7830800000     2.2131400000     5.3504500000
   43      GH      2.7525100000    -3.3799400000     7.5706400000
   44      GH     -3.8588100000     0.6365000000     6.5921900000
   45      GH      3.4347100000     0.9341800000     6.3996500000
   46      GH      3.3765700000     0.6859400000     4.6244200000
   47      GH      3.3556800000    -1.8895600000     8.3615900000
   48      GH      3.4436200000    -2.0760900000     6.5796800000
   49      GH     -3.8341900000    -1.8088600000     6.3852100000
   50      GH     -1.7948700000     2.3607100000     6.7234800000
   51      GH     -1.1974100000     2.8567700000     5.9544400000
   52      GH     -1.4103000000     2.6975200000     7.6879300000
   53      GH     -2.8273800000     2.6994800000     6.6214700000
   54      GH     -1.6940500000    -3.0106800000     6.2563400000
 ----------------------------------------------------------------

   14    -727.5438548476      5.51E-09 Convergence criterion met
 Total energy in the final basis set = -727.54385485

                    Orbital Energies (a.u.)
 --------------------------------------------------------------

 Alpha MOs
 -- Occupied --
-19.178 -19.177 -19.121 -19.119 -10.313 -10.312 -10.233 -10.232
-10.211 -10.208 -10.207 -10.193 -10.191 -10.190 -10.174  -1.122
 -1.115  -1.033  -1.030  -0.886  -0.801  -0.795  -0.747  -0.731
 -0.704  -0.655  -0.627  -0.581  -0.575  -0.550  -0.521  -0.514
 -0.492  -0.490  -0.483  -0.478  -0.472  -0.447  -0.435  -0.432
 -0.429  -0.412  -0.407  -0.396  -0.384  -0.378  -0.371  -0.365
 -0.364  -0.322  -0.314  -0.296  -0.294  -0.269  -0.264

          Ground-State Mulliken Net Atomic Charges

     Atom                 Charge (a.u.)
  ----------------------------------------
      1 C                     0.445357
      2 C                     1.583918
      3 C                    -0.548983
      4 C                    -1.284048
      5 O                     0.078639
      6 O                    -0.182130
      7 O                     0.052575
      8 O                    -0.096685
      9 C                    -0.212907
     10 C                    -0.283140
     11 C                    -0.566335
     12 C                    -0.139134
     13 C                    -0.479709
     14 C                     0.152848
     15 H                     0.168789
     16 H                     0.184446
     17 H                     0.134627
     18 H                     0.177491
     19 H                     0.170029
     20 H                     0.132646
     21 H                     0.181211
     22 H                     0.186309
     23 C                    -0.550602
     24 H                     0.172213
     25 H                     0.190466
     26 H                     0.148641
     27 H                     0.178919
     28 GH                    0.007568
     29 GH                    0.004263
     30 GH                   -0.008026
     31 GH                    0.001845
     32 GH                    0.000010
     33 GH                    0.000742
     34 GH                    0.000598
     35 GH                   -0.000027
     36 GH                   -0.001430
     37 GH                   -0.000413
     38 GH                   -0.002709
     39 GH                   -0.000009
     40 GH                   -0.000733
     41 GH                   -0.002768
     42 GH                   -0.000911
     43 GH                    0.000011
     44 GH                   -0.000449
     45 GH                    0.000090
     46 GH                    0.007322
     47 GH                   -0.000021
     48 GH                    0.000346
     49 GH                   -0.000082
     50 GH                   -0.000670
     51 GH                    0.000240
     52 GH                    0.000014
     53 GH                    0.000061
     54 GH                   -0.000316
  ----------------------------------------
  Sum of atomic charges =     0.000000

                    Cartesian Multipole Moments
 -----------------------------------------------------------------
    Charge (ESU x 10^10)
                 0.0000
    Dipole Moment (Debye)
         X       0.0064      Y       0.4773      Z       0.2005
       Tot       0.5177
    Quadrupole Moments (Debye-Ang)
        XX     -68.7391     XY      -0.6909     YY     -89.6864
        XZ      -0.0660     YZ      -9.3215     ZZ     -93.2858

 Total job time:  1346.25s(wall), 2644.15s(cpu)
        *  Thank you very much for using Q-Chem.  Have a nice day.  *
