 Q-Chem 5.0, Q-Chem, Inc., Pleasanton, CA (2017)
 Q-Chem 5.0.1 for Intel X86 EM64T Linux

User input:
--------------------------------------------------------------
$molecule
0  1
C        -0.54444000        -0.68370000        -0.06689000
C        -0.55709000        +0.71878000        +0.05493000
C        +0.74969000        -1.43776000        -0.09374000
C        +0.72843000        +1.48436000        +0.06598000
O        +1.53645000        -1.09176000        +0.94813000
O        +1.04702000        -2.28405000        -0.90088000
O        +1.53784000        +1.08301000        -0.93877000
O        +1.01035000        +2.37097000        +0.83478000
C        +2.83449000        +1.70121000        -0.99358000
C        +2.82316000        -1.73208000        +1.00475000
C        -1.74320000        -1.41616000        -0.12552000
C        -2.93952000        -0.70056000        -0.05285000
C        -2.95313000        +0.68255000        +0.06934000
C        -1.77161000        +1.42404000        +0.12810000
H        +2.73835000        +2.77989000        -1.12464000
H        +2.70778000        -2.81319000        +1.09555000
H        -3.90354000        +1.20325000        +0.11710000
H        +3.38998000        +1.50093000        -0.07544000
H        +3.33184000        +1.25269000        -1.85067000
H        +3.31095000        -1.32281000        +1.88650000
H        +3.39889000        -1.50934000        +0.10459000
H        -3.87892000        -1.24211000        -0.08988000
C        -1.83960000        +2.92746000        +0.24839000
C        -1.78103000        -2.92226000        -0.24590000
H        -1.39752000        -3.25223000        -1.21323000
H        -2.80572000        -3.28175000        -0.13627000
H        -1.16958000        -3.40777000        +0.51926000
H        -1.24214000        +3.42352000        -0.52065000
H        -1.45503000        +3.26427000        +1.21284000
H        -2.87211000        +3.26623000        +0.14638000
@C        -0.49971000        -1.25045000        +6.40820000
@C        -0.51236000        +0.15203000        +6.53002000
@C        +0.79442000        -2.00451000        +6.38135000
@C        +0.77316000        +0.91761000        +6.54107000
@O        +1.58118000        -1.65851000        +7.42322000
@O        +1.09175000        -2.85080000        +5.57421000
@O        +1.58257000        +0.51626000        +5.53632000
@O        +1.05508000        +1.80422000        +7.30987000
@C        +2.87922000        +1.13446000        +5.48151000
@C        +2.86789000        -2.29883000        +7.47984000
@C        -1.69847000        -1.98291000        +6.34957000
@C        -2.89479000        -1.26731000        +6.42224000
@C        -2.90840000        +0.11580000        +6.54443000
@C        -1.72688000        +0.85729000        +6.60319000
@H        +2.78308000        +2.21314000        +5.35045000
@H        +2.75251000        -3.37994000        +7.57064000
@H        -3.85881000        +0.63650000        +6.59219000
@H        +3.43471000        +0.93418000        +6.39965000
@H        +3.37657000        +0.68594000        +4.62442000
@H        +3.35568000        -1.88956000        +8.36159000
@H        +3.44362000        -2.07609000        +6.57968000
@H        -3.83419000        -1.80886000        +6.38521000
@C        -1.79487000        +2.36071000        +6.72348000
@C        -1.73630000        -3.48901000        +6.22919000
@H        -1.35279000        -3.81898000        +5.26186000
@H        -2.76099000        -3.84850000        +6.33882000
@H        -1.12485000        -3.97452000        +6.99435000
@H        -1.19741000        +2.85677000        +5.95444000
@H        -1.41030000        +2.69752000        +7.68793000
@H        -2.82738000        +2.69948000        +6.62147000
$end

$rem
JOBTYPE                   SP
METHOD                    B3LYP
DFT_D                     d3_op
BASIS                     6-311++G(d,p)
SYMMETRY                  False
THRESH                    12
SCF_CONVERGENCE           8
MAX_SUB_FILE_NUM          128
MEM_STATIC                400
MEM_TOTAL                 4000
$end
--------------------------------------------------------------

             Standard Nuclear Orientation (Angstroms)
    I     Atom           X                Y                Z
 ----------------------------------------------------------------
    1      C      -0.5444400000    -0.6837000000    -0.0668900000
    2      C      -0.5570900000     0.7187800000     0.0549300000
    3      C       0.7496900000    -1.4377600000    -0.0937400000
    4      C       0.7284300000     1.4843600000     0.0659800000
    5      O       1.5364500000    -1.0917600000     0.9481300000
    6      O       1.0470200000    -2.2840500000    -0.9008800000
    7      O       1.5378400000     1.0830100000    -0.9387700000
    8      O       1.0103500000     2.3709700000     0.8347800000
    9      C       2.8344900000     1.7012100000    -0.9935800000
   10      C       2.8231600000    -1.7320800000     1.0047500000
   11      C      -1.7432000000    -1.4161600000    -0.1255200000
   12      C      -2.9395200000    -0.7005600000    -0.0528500000
   13      C      -2.9531300000     0.6825500000     0.0693400000
   14      C      -1.7716100000     1.4240400000     0.1281000000
   15      H       2.7383500000     2.7798900000    -1.1246400000
   16      H       2.7077800000    -2.8131900000     1.0955500000
   17      H      -3.9035400000     1.2032500000     0.1171000000
   18      H       3.3899800000     1.5009300000    -0.0754400000
   19      H       3.3318400000     1.2526900000    -1.8506700000
   20      H       3.3109500000    -1.3228100000     1.8865000000
   21      H       3.3988900000    -1.5093400000     0.1045900000
   22      H      -3.8789200000    -1.2421100000    -0.0898800000
   23      C      -1.8396000000     2.9274600000     0.2483900000
   24      C      -1.7810300000    -2.9222600000    -0.2459000000
   25      H      -1.3975200000    -3.2522300000    -1.2132300000
   26      H      -2.8057200000    -3.2817500000    -0.1362700000
   27      H      -1.1695800000    -3.4077700000     0.5192600000
   28      H      -1.2421400000     3.4235200000    -0.5206500000
   29      H      -1.4550300000     3.2642700000     1.2128400000
   30      H      -2.8721100000     3.2662300000     0.1463800000
   31      GH     -0.4997100000    -1.2504500000     6.4082000000
   32      GH     -0.5123600000     0.1520300000     6.5300200000
   33      GH      0.7944200000    -2.0045100000     6.3813500000
   34      GH      0.7731600000     0.9176100000     6.5410700000
   35      GH      1.5811800000    -1.6585100000     7.4232200000
   36      GH      1.0917500000    -2.8508000000     5.5742100000
   37      GH      1.5825700000     0.5162600000     5.5363200000
   38      GH      1.0550800000     1.8042200000     7.3098700000
   39      GH      2.8792200000     1.1344600000     5.4815100000
   40      GH      2.8678900000    -2.2988300000     7.4798400000
   41      GH     -1.6984700000    -1.9829100000     6.3495700000
   42      GH     -2.8947900000    -1.2673100000     6.4222400000
   43      GH     -2.9084000000     0.1158000000     6.5444300000
   44      GH     -1.7268800000     0.8572900000     6.6031900000
   45      GH      2.7830800000     2.2131400000     5.3504500000
   46      GH      2.7525100000    -3.3799400000     7.5706400000
   47      GH     -3.8588100000     0.6365000000     6.5921900000
   48      GH      3.4347100000     0.9341800000     6.3996500000
   49      GH      3.3765700000     0.6859400000     4.6244200000
   50      GH      3.3556800000    -1.8895600000     8.3615900000
   51      GH      3.4436200000    -2.0760900000     6.5796800000
   52      GH     -3.8341900000    -1.8088600000     6.3852100000
   53      GH     -1.7948700000     2.3607100000     6.7234800000
   54      GH     -1.7363000000    -3.4890100000     6.2291900000
   55      GH     -1.3527900000    -3.8189800000     5.2618600000
   56      GH     -2.7609900000    -3.8485000000     6.3388200000
   57      GH     -1.1248500000    -3.9745200000     6.9943500000
   58      GH     -1.1974100000     2.8567700000     5.9544400000
   59      GH     -1.4103000000     2.6975200000     7.6879300000
   60      GH     -2.8273800000     2.6994800000     6.6214700000
 ----------------------------------------------------------------

   14    -766.8765468434      5.99E-09 Convergence criterion met
 Total energy in the final basis set = -766.87654684

                    Orbital Energies (a.u.)
 --------------------------------------------------------------

 Alpha MOs
 -- Occupied --
-19.176 -19.176 -19.119 -19.119 -10.311 -10.311 -10.232 -10.232
-10.205 -10.205 -10.201 -10.201 -10.187 -10.186 -10.171 -10.170
 -1.121  -1.114  -1.031  -1.030  -0.885  -0.807  -0.795  -0.747
 -0.734  -0.725  -0.675  -0.649  -0.620  -0.577  -0.565  -0.537
 -0.517  -0.515  -0.491  -0.489  -0.480  -0.477  -0.469  -0.442
 -0.434  -0.429  -0.420  -0.416  -0.411  -0.406  -0.396  -0.387
 -0.380  -0.373  -0.362  -0.359  -0.357  -0.321  -0.313  -0.293
 -0.292  -0.266  -0.253

          Ground-State Mulliken Net Atomic Charges

     Atom                 Charge (a.u.)
  ----------------------------------------
      1 C                     0.541516
      2 C                     0.728960
      3 C                    -0.531463
      4 C                    -0.925441
      5 O                     0.112740
      6 O                    -0.157583
      7 O                     0.056620
      8 O                    -0.093316
      9 C                    -0.206425
     10 C                    -0.282967
     11 C                     0.321567
     12 C                    -0.485698
     13 C                    -0.535036
     14 C                     0.334524
     15 H                     0.168503
     16 H                     0.180029
     17 H                     0.140791
     18 H                     0.175949
     19 H                     0.170389
     20 H                     0.133207
     21 H                     0.184003
     22 H                     0.145619
     23 C                    -0.578762
     24 C                    -0.633386
     25 H                     0.208384
     26 H                     0.138764
     27 H                     0.177475
     28 H                     0.171884
     29 H                     0.190728
     30 H                     0.144501
     31 GH                    0.003472
     32 GH                   -0.001359
     33 GH                    0.005108
     34 GH                    0.006752
     35 GH                    0.000013
     36 GH                    0.000715
     37 GH                    0.000915
     38 GH                   -0.000026
     39 GH                   -0.002247
     40 GH                   -0.000181
     41 GH                   -0.006535
     42 GH                    0.000197
     43 GH                    0.000686
     44 GH                   -0.006849
     45 GH                   -0.000835
     46 GH                    0.000021
     47 GH                   -0.000438
     48 GH                    0.000048
     49 GH                    0.008087
     50 GH                   -0.000007
     51 GH                    0.000320
     52 GH                   -0.000349
     53 GH                   -0.000332
     54 GH                   -0.002462
     55 GH                   -0.001033
     56 GH                   -0.000001
     57 GH                   -0.000012
     58 GH                    0.000189
     59 GH                    0.000010
     60 GH                    0.000058
  ----------------------------------------
  Sum of atomic charges =     0.000000

                    Cartesian Multipole Moments
 -----------------------------------------------------------------
    Charge (ESU x 10^10)
                 0.0000
    Dipole Moment (Debye)
         X       0.0708      Y      -0.1075      Z       0.0716
       Tot       0.1473
    Quadrupole Moments (Debye-Ang)
        XX     -76.1320     XY      -0.0697     YY     -95.4264
        XZ       0.1008     YZ      -8.9492     ZZ     -99.5204

 Total job time:  1894.66s(wall), 3767.75s(cpu)
        *  Thank you very much for using Q-Chem.  Have a nice day.  *
