 Q-Chem 5.0, Q-Chem, Inc., Pleasanton, CA (2017)
 Q-Chem 5.0.1 for Intel X86 EM64T Linux

User input:
--------------------------------------------------------------
$molecule
0  1
--
0  1
C        -0.54444000        -0.68370000        -0.06689000
C        -0.55709000        +0.71878000        +0.05493000
C        +0.74969000        -1.43776000        -0.09374000
C        +0.72843000        +1.48436000        +0.06598000
O        +1.53645000        -1.09176000        +0.94813000
O        +1.04702000        -2.28405000        -0.90088000
O        +1.53784000        +1.08301000        -0.93877000
O        +1.01035000        +2.37097000        +0.83478000
C        +2.83449000        +1.70121000        -0.99358000
C        +2.82316000        -1.73208000        +1.00475000
C        -1.74320000        -1.41616000        -0.12552000
C        -2.93952000        -0.70056000        -0.05285000
C        -2.95313000        +0.68255000        +0.06934000
C        -1.77161000        +1.42404000        +0.12810000
H        +2.73835000        +2.77989000        -1.12464000
H        +2.70778000        -2.81319000        +1.09555000
H        -3.90354000        +1.20325000        +0.11710000
H        +3.38998000        +1.50093000        -0.07544000
H        +3.33184000        +1.25269000        -1.85067000
H        +3.31095000        -1.32281000        +1.88650000
H        +3.39889000        -1.50934000        +0.10459000
H        -3.87892000        -1.24211000        -0.08988000
C        -1.83960000        +2.92746000        +0.24839000
C        -1.78103000        -2.92226000        -0.24590000
H        -1.39752000        -3.25223000        -1.21323000
H        -2.80572000        -3.28175000        -0.13627000
H        -1.16958000        -3.40777000        +0.51926000
H        -1.24214000        +3.42352000        -0.52065000
H        -1.45503000        +3.26427000        +1.21284000
H        -2.87211000        +3.26623000        +0.14638000
--
0  1
C        -0.49971000        -1.25045000        +6.40820000
C        -0.51236000        +0.15203000        +6.53002000
C        +0.79442000        -2.00451000        +6.38135000
C        +0.77316000        +0.91761000        +6.54107000
O        +1.58118000        -1.65851000        +7.42322000
O        +1.09175000        -2.85080000        +5.57421000
O        +1.58257000        +0.51626000        +5.53632000
O        +1.05508000        +1.80422000        +7.30987000
C        +2.87922000        +1.13446000        +5.48151000
C        +2.86789000        -2.29883000        +7.47984000
C        -1.69847000        -1.98291000        +6.34957000
C        -2.89479000        -1.26731000        +6.42224000
C        -2.90840000        +0.11580000        +6.54443000
C        -1.72688000        +0.85729000        +6.60319000
H        +2.78308000        +2.21314000        +5.35045000
H        +2.75251000        -3.37994000        +7.57064000
H        -3.85881000        +0.63650000        +6.59219000
H        +3.43471000        +0.93418000        +6.39965000
H        +3.37657000        +0.68594000        +4.62442000
H        +3.35568000        -1.88956000        +8.36159000
H        +3.44362000        -2.07609000        +6.57968000
H        -3.83419000        -1.80886000        +6.38521000
C        -1.79487000        +2.36071000        +6.72348000
C        -1.73630000        -3.48901000        +6.22919000
H        -1.35279000        -3.81898000        +5.26186000
H        -2.76099000        -3.84850000        +6.33882000
H        -1.12485000        -3.97452000        +6.99435000
H        -1.19741000        +2.85677000        +5.95444000
H        -1.41030000        +2.69752000        +7.68793000
H        -2.82738000        +2.69948000        +6.62147000
$end

$rem
JOBTYPE                   SP
METHOD                    B3LYP
DFT_D                     d3_op
BASIS                     6-311++G(d,p)
SYMMETRY                  False
THRESH                    12
SCF_CONVERGENCE           8
MAX_SUB_FILE_NUM          128
MEM_STATIC                400
MEM_TOTAL                 4000
$end
--------------------------------------------------------------

             Standard Nuclear Orientation (Angstroms)
    I     Atom           X                Y                Z
 ----------------------------------------------------------------
    1      C      -3.2354072107     0.4992646019     0.8111240221
    2      C      -3.2787842091     0.5676739599    -0.5943612610
    3      C      -3.1620963856    -0.8232405735     1.5109135955
    4      C      -3.3458733082    -0.6870813840    -1.4066940680
    5      O      -2.1608622522    -1.5817997605     1.0146086849
    6      O      -3.8618623905    -1.1639681950     2.4330410807
    7      O      -4.2893694016    -1.5249853911    -0.9234954240
    8      O      -2.6836804086    -0.9240853373    -2.3874791150
    9      C      -4.4045031034    -2.7974447905    -1.5823337246
   10      C      -2.0180457918    -2.8913657847     1.5920846046
   11      C      -3.2186650151     1.6679622905     1.5926776527
   12      C      -3.2410870852     2.8918796804     0.9218056046
   13      C      -3.2818369453     2.9605059412    -0.4644623297
   14      C      -3.2996629718     1.8093839818    -1.2543041718
   15      H      -4.6618434872    -2.6615529912    -2.6336564683
   16      H      -1.8023095111    -2.8165569000     2.6589573732
   17      H      -3.3039550715     3.9308602981    -0.9488298413
   18      H      -3.4642549647    -3.3476897038    -1.5128624993
   19      H      -5.1986512518    -3.3233585774    -1.0570967419
   20      H      -1.1859286077    -3.3509454426     1.0636041323
   21      H      -2.9328680656    -3.4702820870     1.4530799703
   22      H      -3.2229125051     3.8090944929     1.5010349683
   23      C      -3.3568791423     1.9369606227    -2.7575721223
   24      C      -3.1621785847     1.6460124082     3.1028389517
   25      H      -4.0807132179     1.2369154718     3.5278345681
   26      H      -3.0204486472     2.6574678733     3.4876919888
   27      H      -2.3399446422     1.0267656828     3.4709771393
   28      H      -4.1733006209     1.3486638980    -3.1839750184
   29      H      -2.4350795898     1.5788454327    -3.2196737986
   30      H      -3.5071657265     2.9802868020    -3.0406489305
   31      C       3.2616383834     0.5209108645     0.6163759004
   32      C       3.2182613850     0.5893202225    -0.7891093827
   33      C       3.3349492085    -0.8015943108     1.3161654739
   34      C       3.1511722859    -0.6654351213    -1.6014421896
   35      O       4.3361833419    -1.5601534978     0.8198605633
   36      O       2.6351832036    -1.1423219324     2.2382929591
   37      O       2.2076761925    -1.5033391284    -1.1182435457
   38      O       3.8133651855    -0.9024390747    -2.5822272366
   39      C       2.0925424907    -2.7757985278    -1.7770818463
   40      C       4.4789998023    -2.8697195220     1.3973364829
   41      C       3.2783805790     1.6896085532     1.3979295310
   42      C       3.2559585089     2.9135259431     0.7270574829
   43      C       3.2152086488     2.9821522039    -0.6592104513
   44      C       3.1973826224     1.8310302445    -1.4490522934
   45      H       1.8352021069    -2.6399067286    -2.8284045900
   46      H       4.6947360830    -2.7949106373     2.4642092515
   47      H       3.1930905226     3.9525065607    -1.1435779630
   48      H       3.0327906294    -3.3260434411    -1.7076106209
   49      H       1.2983943423    -3.3017123148    -1.2518448636
   50      H       5.3111169864    -3.3292991799     0.8688560106
   51      H       3.5641775285    -3.4486358243     1.2583318487
   52      H       3.2741330890     3.8307407555     1.3062868467
   53      C       3.1401664518     1.9586068854    -2.9523202440
   54      C       3.3348670095     1.6676586709     2.9080908301
   55      H       2.4163323762     1.2585617345     3.3330864465
   56      H       3.4765969469     2.6791141360     3.2929438672
   57      H       4.1571009519     1.0484119455     3.2762290176
   58      H       2.3237449732     1.3703101606    -3.3787231400
   59      H       4.0619660043     1.6004916953    -3.4144219202
   60      H       2.9898798676     3.0019330647    -3.2353970522
 ----------------------------------------------------------------

   14   -1533.7543038900      8.88E-09 Convergence criterion met
 Total energy in the final basis set = -1533.75430389

                    Orbital Energies (a.u.)
 --------------------------------------------------------------

 Alpha MOs
 -- Occupied --
-19.175 -19.175 -19.172 -19.172 -19.118 -19.118 -19.116 -19.116
-10.310 -10.309 -10.308 -10.307 -10.232 -10.231 -10.229 -10.228
-10.203 -10.203 -10.202 -10.202 -10.199 -10.199 -10.199 -10.198
-10.185 -10.184 -10.184 -10.184 -10.170 -10.169 -10.168 -10.167
 -1.119  -1.119  -1.112  -1.111  -1.030  -1.030  -1.028  -1.027
 -0.883  -0.883  -0.805  -0.805  -0.793  -0.793  -0.745  -0.744
 -0.732  -0.732  -0.723  -0.722  -0.673  -0.673  -0.647  -0.647
 -0.618  -0.618  -0.575  -0.575  -0.563  -0.563  -0.535  -0.535
 -0.515  -0.515  -0.513  -0.512  -0.489  -0.489  -0.486  -0.486
 -0.478  -0.477  -0.475  -0.475  -0.467  -0.467  -0.441  -0.440
 -0.432  -0.432  -0.428  -0.427  -0.418  -0.418  -0.414  -0.414
 -0.409  -0.409  -0.404  -0.403  -0.394  -0.394  -0.385  -0.385
 -0.378  -0.378  -0.371  -0.371  -0.360  -0.360  -0.357  -0.356
 -0.355  -0.355  -0.319  -0.319  -0.311  -0.310  -0.292  -0.292
 -0.290  -0.290  -0.264  -0.264  -0.251  -0.250

          Ground-State Mulliken Net Atomic Charges

     Atom                 Charge (a.u.)
  ----------------------------------------
      1 C                     0.552971
      2 C                     0.742680
      3 C                    -0.525992
      4 C                    -0.921326
      5 O                     0.117296
      6 O                    -0.161030
      7 O                     0.057523
      8 O                    -0.098342
      9 C                    -0.205831
     10 C                    -0.278756
     11 C                     0.319501
     12 C                    -0.488559
     13 C                    -0.538438
     14 C                     0.329294
     15 H                     0.168269
     16 H                     0.181724
     17 H                     0.138839
     18 H                     0.173706
     19 H                     0.170662
     20 H                     0.133497
     21 H                     0.181926
     22 H                     0.144079
     23 C                    -0.584605
     24 C                    -0.638517
     25 H                     0.207662
     26 H                     0.136952
     27 H                     0.182306
     28 H                     0.171554
     29 H                     0.187466
     30 H                     0.143955
     31 C                     0.743633
     32 C                     0.563210
     33 C                    -0.985577
     34 C                    -0.470605
     35 O                     0.073040
     36 O                    -0.086619
     37 O                     0.098556
     38 O                    -0.165129
     39 C                    -0.277948
     40 C                    -0.207247
     41 C                     0.335572
     42 C                    -0.519927
     43 C                    -0.496119
     44 C                     0.303796
     45 H                     0.183353
     46 H                     0.167722
     47 H                     0.144007
     48 H                     0.183819
     49 H                     0.132262
     50 H                     0.168672
     51 H                     0.173029
     52 H                     0.139999
     53 C                    -0.638375
     54 C                    -0.592721
     55 H                     0.187860
     56 H                     0.145627
     57 H                     0.171234
     58 H                     0.181851
     59 H                     0.206681
     60 H                     0.135877
  ----------------------------------------
  Sum of atomic charges =     0.000000

                    Cartesian Multipole Moments
 -----------------------------------------------------------------
    Charge (ESU x 10^10)
                 0.0000
    Dipole Moment (Debye)
         X       0.1744      Y      -0.1292      Z       0.1875
       Tot       0.2868
    Quadrupole Moments (Debye-Ang)
        XX    -196.0181     XY      -1.3259     YY    -153.3878
        XZ      17.8015     YZ       1.7218     ZZ    -195.1786

 Total job time:  2005.60s(wall), 3990.42s(cpu)
        *  Thank you very much for using Q-Chem.  Have a nice day.  *
