                               Psi4 1.1 release

  ==> Input File <==

--------------------------------------------------------------------------
memory 750000 mb

molecule mol {
0 1
C     -0.87988499     -1.02637752     -0.07975710
O     -1.30214786     -2.10620490      0.61844750
O     -1.36520780     -0.68704030     -1.12969804
C     -2.36919945     -2.86378722      0.01859748
H     -2.06562220     -3.24310204     -0.95853059
H     -2.56364860     -3.68499911      0.70499401
H     -3.25844919     -2.24278644     -0.09889950
--
0 1
   C      1.69742646     -2.23361335     -0.64560501
   H      2.67228210     -2.41560366     -1.10259082
   H      1.54056144     -2.96850311      0.14753725
   H      0.93170288     -2.37340578     -1.41104915
--
0 1
  C      0.40570619      1.16662355      0.46957989
  C      0.30338881     -0.38770356      0.61195067
  C     -0.77252757      1.85816982     -0.19438280
  O     -1.90206025      1.63074677      0.51232944
  O     -0.71805356      2.56931067     -1.16341524
  C     -3.11903111      2.13131397     -0.07161675
  C      1.73103700      1.32230606     -0.31372333
  C      2.91151465      1.09400515      0.65024687
  C      2.81616528     -0.44367484      0.86938547
  C      1.64973601     -0.82969771     -0.08464756
  O      1.76611279      0.14400391     -1.13046715
  H      0.48329607      1.60940349      1.46622062
  H      0.28852215     -0.69966743      1.65458368
  H     -3.06951320      3.21382575     -0.19605495
  H      3.84960200      1.36610198      0.16428667
  H      2.82661803      1.67390428      1.57178585
  H      3.73104841     -0.94934682      0.55606189
  H      2.61424857     -0.72465918      1.90497145
  H     -3.90889854      1.86147511      0.62632838
  H     -3.28295561      1.65870553     -1.04117887
  H      1.77472506      2.20703948     -0.94196221

symmetry c1
no_reorient
no_com
}

set {
basis jun-cc-pvdz
scf_type df
guess sad
freeze_core true
}

energy('fisapt0')
--------------------------------------------------------------------------

    Molecular point group: c1

    Geometry (in Angstrom), charge = 0, multiplicity = 1:

       Center              X                  Y                   Z               Mass
    ------------   -----------------  -----------------  -----------------  -----------------
           C         -0.879884990000    -1.026377520000    -0.079757100000    12.000000000000
           O         -1.302147860000    -2.106204900000     0.618447500000    15.994914619560
           O         -1.365207800000    -0.687040300000    -1.129698040000    15.994914619560
           C         -2.369199450000    -2.863787220000     0.018597480000    12.000000000000
           H         -2.065622200000    -3.243102040000    -0.958530590000     1.007825032070
           H         -2.563648600000    -3.684999110000     0.704994010000     1.007825032070
           H         -3.258449190000    -2.242786440000    -0.098899500000     1.007825032070
           C          1.697426460000    -2.233613350000    -0.645605010000    12.000000000000
           H          2.672282100000    -2.415603660000    -1.102590820000     1.007825032070
           H          1.540561440000    -2.968503110000     0.147537250000     1.007825032070
           H          0.931702880000    -2.373405780000    -1.411049150000     1.007825032070
           C          0.405706190000     1.166623550000     0.469579890000    12.000000000000
           C          0.303388810000    -0.387703560000     0.611950670000    12.000000000000
           C         -0.772527570000     1.858169820000    -0.194382800000    12.000000000000
           O         -1.902060250000     1.630746770000     0.512329440000    15.994914619560
           O         -0.718053560000     2.569310670000    -1.163415240000    15.994914619560
           C         -3.119031110000     2.131313970000    -0.071616750000    12.000000000000
           C          1.731037000000     1.322306060000    -0.313723330000    12.000000000000
           C          2.911514650000     1.094005150000     0.650246870000    12.000000000000
           C          2.816165280000    -0.443674840000     0.869385470000    12.000000000000
           C          1.649736010000    -0.829697710000    -0.084647560000    12.000000000000
           O          1.766112790000     0.144003910000    -1.130467150000    15.994914619560
           H          0.483296070000     1.609403490000     1.466220620000     1.007825032070
           H          0.288522150000    -0.699667430000     1.654583680000     1.007825032070
           H         -3.069513200000     3.213825750000    -0.196054950000     1.007825032070
           H          3.849602000000     1.366101980000     0.164286670000     1.007825032070
           H          2.826618030000     1.673904280000     1.571785850000     1.007825032070
           H          3.731048410000    -0.949346820000     0.556061890000     1.007825032070
           H          2.614248570000    -0.724659180000     1.904971450000     1.007825032070
           H         -3.908898540000     1.861475110000     0.626328380000     1.007825032070
           H         -3.282955610000     1.658705530000    -1.041178870000     1.007825032070
           H          1.774725060000     2.207039480000    -0.941962210000     1.007825032070

  Charge       = 0
  Multiplicity = 1
  Basis Set: JUN-CC-PVDZ
    Blend: JUN-CC-PVDZ
  Basis Set: (JUN-CC-PVDZ AUX)
    Blend: JUN-CC-PVDZ-JKFIT

    Orbital Energies (a.u.)
    -----------------------

    Doubly Occupied:

       1A    -20.614248     2A    -20.603757     3A    -20.563624
       4A    -20.556175     5A    -20.549656     6A    -11.391812
       7A    -11.385548     8A    -11.306306     9A    -11.298414
      10A    -11.288341    11A    -11.288275    12A    -11.266043
      13A    -11.263529    14A    -11.240750    15A    -11.238558
      16A    -11.232368    17A     -1.469334    18A     -1.458815
      19A     -1.402765    20A     -1.367950    21A     -1.360347
      22A     -1.114207    23A     -1.063360    24A     -1.050192
      25A     -0.994274    26A     -0.966086    27A     -0.937395
      28A     -0.882869    29A     -0.817896    30A     -0.799348
      31A     -0.763455    32A     -0.759687    33A     -0.722630
      34A     -0.698091    35A     -0.690186    36A     -0.680206
      37A     -0.667046    38A     -0.666719    39A     -0.662495
      40A     -0.649776    41A     -0.627832    42A     -0.595708
      43A     -0.585852    44A     -0.581030    45A     -0.573572
      46A     -0.549705    47A     -0.543997    48A     -0.534710
      49A     -0.531516    50A     -0.523599    51A     -0.520079
      52A     -0.507003    53A     -0.499960    54A     -0.492908
      55A     -0.473889    56A     -0.468647    57A     -0.465672
      58A     -0.455907    59A     -0.448199    60A     -0.434728
      61A     -0.422748

  @DF-RHF Final Energy:  -800.27179846134754

   => Energetics <=

    Nuclear Repulsion Energy =           1253.5289989294919906
    One-Electron Energy =               -3586.4620092532459239
    Two-Electron Energy =                1532.6612118624063896
    DFT Exchange-Correlation Energy =       0.0000000000000000
    Empirical Dispersion Energy =           0.0000000000000000
    PCM Polarization Energy =               0.0000000000000000
    EFP Energy =                            0.0000000000000000
    Total Energy =                       -800.2717984613475437
  Basis Set: (JUN-CC-PVDZ AUX)
    Blend: JUN-CC-PVDZ-JKFIT
  Basis Set: (JUN-CC-PVDZ AUX)
    Blend: JUN-CC-PVDZ-JKFIT
  Basis Set: (JUN-CC-PVDZ AUX)
    Blend: JUN-CC-PVDZ-JKFIT
  Basis Set: (JUN-CC-PVDZ AUX)
    Blend: JUN-CC-PVDZ-JKFIT
  Basis Set: (JUN-CC-PVDZ AUX)
    Blend: JUN-CC-PVDZ-RI

    SAPT Results
  --------------------------------------------------------------------------------------------------------
    Electrostatics                  8.01723451 [mEh]       5.03089082 [kcal/mol]      21.04924921 [kJ/mol]
      Elst10,r                      8.01723451 [mEh]       5.03089082 [kcal/mol]      21.04924921 [kJ/mol]

    Exchange                        3.14050880 [mEh]       1.97069910 [kcal/mol]       8.24540584 [kJ/mol]
      Exch10                        3.14050880 [mEh]       1.97069910 [kcal/mol]       8.24540584 [kJ/mol]
      Exch10(S^2)                   3.13588913 [mEh]       1.96780022 [kcal/mol]       8.23327692 [kJ/mol]

    Induction                      -1.07197046 [mEh]      -0.67267164 [kcal/mol]      -2.81445843 [kJ/mol]
      Ind20,r                      -1.62476049 [mEh]      -1.01955264 [kcal/mol]      -4.26580866 [kJ/mol]
      Exch-Ind20,r                  0.74502534 [mEh]       0.46751048 [kcal/mol]       1.95606402 [kJ/mol]
      delta HF,r (2)               -0.19223530 [mEh]      -0.12062948 [kcal/mol]      -0.50471379 [kJ/mol]
      Induction (A<-B)             -0.29101417 [mEh]      -0.18261415 [kcal/mol]      -0.76405770 [kJ/mol]
      Induction (B<-A)             -0.78095629 [mEh]      -0.49005749 [kcal/mol]      -2.05040074 [kJ/mol]

    Dispersion                     -2.32669430 [mEh]      -1.46002278 [kcal/mol]      -6.10873588 [kJ/mol]
      Disp20                       -2.57610500 [mEh]      -1.61653036 [kcal/mol]      -6.76356367 [kJ/mol]
      Exch-Disp20                   0.24941070 [mEh]       0.15650758 [kcal/mol]       0.65482779 [kJ/mol]

  Total HF                         10.08577285 [mEh]       6.32891828 [kcal/mol]      26.48019662 [kJ/mol]
  Total SAPT0                       7.75907855 [mEh]       4.86889550 [kcal/mol]      20.37146074 [kJ/mol]

  --------------------------------------------------------------------------------------------------------

*** Psi4 exiting successfully. Buy a developer a beer!
