 Q-Chem 5.0, Q-Chem, Inc., Pleasanton, CA (2017)
 Q-Chem 5.0.1 for Intel X86 EM64T Linux

User input:
--------------------------------------------------------------
$molecule
0  1
--
0  1
C        +0.00000000        +1.39198000        +0.00000000
C        +1.20549000        +0.69599000        +0.00000000
C        +1.20549000        -0.69599000        +0.00000000
C        +0.00000000        -1.39198000        +0.00000000
C        -1.20549000        -0.69599000        +0.00000000
C        -1.20549000        +0.69599000        +0.00000000
H        +0.00000000        +2.47223000        +0.00000000
H        +2.14101000        +1.23612000        +0.00000000
H        +2.14101000        -1.23612000        +0.00000000
H        +0.00000000        -2.47223000        +0.00000000
H        -2.14101000        -1.23612000        +0.00000000
H        -2.14101000        +1.23612000        +0.00000000
--
0  1
C        +0.00000000        +1.39198000        +3.90000000
C        +1.20549000        +0.69599000        +3.90000000
C        +1.20549000        -0.69599000        +3.90000000
C        +0.00000000        -1.39198000        +3.90000000
C        -1.20549000        -0.69599000        +3.90000000
C        -1.20549000        +0.69599000        +3.90000000
H        +0.00000000        +2.47223000        +3.90000000
H        +2.14101000        +1.23612000        +3.90000000
H        +2.14101000        -1.23612000        +3.90000000
H        +0.00000000        -2.47223000        +3.90000000
H        -2.14101000        -1.23612000        +3.90000000
H        -2.14101000        +1.23612000        +3.90000000
$end

$rem
JOBTYPE                   SP
METHOD                    B3LYP
DFT_D                     d3_op
BASIS                     6-311++G(d,p)
SYMMETRY                  False
THRESH                    12
SCF_CONVERGENCE           8
MAX_SUB_FILE_NUM          128
MEM_STATIC                400
MEM_TOTAL                 4000
$end
--------------------------------------------------------------

             Standard Nuclear Orientation (Angstroms)
    I     Atom           X                Y                Z
 ----------------------------------------------------------------
    1      C      -1.9500000000     1.3919800000    -0.0000000004
    2      C      -1.9500000000     0.6959899996    -1.2054900002
    3      C      -1.9500000000    -0.6959900004    -1.2054899998
    4      C      -1.9500000000    -1.3919800000     0.0000000004
    5      C      -1.9500000000    -0.6959899996     1.2054900002
    6      C      -1.9500000000     0.6959900004     1.2054899998
    7      H      -1.9500000000     2.4722300000    -0.0000000008
    8      H      -1.9500000000     1.2361199993    -2.1410100004
    9      H      -1.9500000000    -1.2361200007    -2.1410099996
   10      H      -1.9500000000    -2.4722300000     0.0000000008
   11      H      -1.9500000000    -1.2361199993     2.1410100004
   12      H      -1.9500000000     1.2361200007     2.1410099996
   13      C       1.9500000000     1.3919800000    -0.0000000004
   14      C       1.9500000000     0.6959899996    -1.2054900002
   15      C       1.9500000000    -0.6959900004    -1.2054899998
   16      C       1.9500000000    -1.3919800000     0.0000000004
   17      C       1.9500000000    -0.6959899996     1.2054900002
   18      C       1.9500000000     0.6959900004     1.2054899998
   19      H       1.9500000000     2.4722300000    -0.0000000008
   20      H       1.9500000000     1.2361199993    -2.1410100004
   21      H       1.9500000000    -1.2361200007    -2.1410099996
   22      H       1.9500000000    -2.4722300000     0.0000000008
   23      H       1.9500000000    -1.2361199993     2.1410100004
   24      H       1.9500000000     1.2361200007     2.1410099996
 ----------------------------------------------------------------

   11    -464.6409340771      2.43E-10 Convergence criterion met
 Total energy in the final basis set = -464.64093408

             Orbital Energies (a.u.) and Symmetries
 --------------------------------------------------------------

 Alpha MOs, Restricted
 -- Occupied --
-10.172 -10.172 -10.172 -10.172 -10.172 -10.172 -10.172 -10.172
  1 Ag    1 B3u   1 B2u   1 B1g   1 B2g   1 B1u   2 B3u   2 Ag
-10.172 -10.172 -10.171 -10.171  -0.856  -0.855  -0.748  -0.748
  1 Au    1 B3g   2 B1g   2 B2u   3 Ag    3 B3u   2 B1u   3 B2u
 -0.746  -0.746  -0.604  -0.604  -0.603  -0.603  -0.527  -0.525
  2 B2g   3 B1g   2 B3g   4 Ag    2 Au    4 B3u   5 Ag    5 B3u
 -0.463  -0.462  -0.449  -0.448  -0.424  -0.424  -0.423  -0.423
  4 B2u   4 B1g   3 B1u   3 B2g   4 B1u   5 B2u   4 B2g   5 B1g
 -0.376  -0.359  -0.346  -0.346  -0.346  -0.346  -0.262  -0.262
  6 Ag    6 B3u   3 B3g   7 Ag    3 Au    7 B3u   6 B2u   5 B1u
 -0.247  -0.247
  6 B1g   5 B2g

 Beta MOs, Restricted
 -- Occupied --
-10.172 -10.172 -10.172 -10.172 -10.172 -10.172 -10.172 -10.172
  1 Ag    1 B3u   1 B2u   1 B1g   1 B2g   1 B1u   2 B3u   2 Ag
-10.172 -10.172 -10.171 -10.171  -0.856  -0.855  -0.748  -0.748
  1 Au    1 B3g   2 B1g   2 B2u   3 Ag    3 B3u   2 B1u   3 B2u
 -0.746  -0.746  -0.604  -0.604  -0.603  -0.603  -0.527  -0.525
  2 B2g   3 B1g   2 B3g   4 Ag    2 Au    4 B3u   5 Ag    5 B3u
 -0.463  -0.462  -0.449  -0.448  -0.424  -0.424  -0.423  -0.423
  4 B2u   4 B1g   3 B1u   3 B2g   4 B1u   5 B2u   4 B2g   5 B1g
 -0.376  -0.359  -0.346  -0.346  -0.346  -0.346  -0.262  -0.262
  6 Ag    6 B3u   3 B3g   7 Ag    3 Au    7 B3u   6 B2u   5 B1u
 -0.247  -0.247
  6 B1g   5 B2g

          Ground-State Mulliken Net Atomic Charges

     Atom                 Charge (a.u.)
  ----------------------------------------
      1 C                    -0.157819
      2 C                    -0.154638
      3 C                    -0.154638
      4 C                    -0.157819
      5 C                    -0.154638
      6 C                    -0.154638
      7 H                     0.155721
      8 H                     0.155687
      9 H                     0.155687
     10 H                     0.155721
     11 H                     0.155687
     12 H                     0.155687
     13 C                    -0.157819
     14 C                    -0.154638
     15 C                    -0.154638
     16 C                    -0.157819
     17 C                    -0.154638
     18 C                    -0.154638
     19 H                     0.155721
     20 H                     0.155687
     21 H                     0.155687
     22 H                     0.155721
     23 H                     0.155687
     24 H                     0.155687
  ----------------------------------------
  Sum of atomic charges =    -0.000000

                    Cartesian Multipole Moments
 -----------------------------------------------------------------
    Charge (ESU x 10^10)
                -0.0000
    Dipole Moment (Debye)
         X      -0.0000      Y       0.0000      Z      -0.0000
       Tot       0.0000
    Quadrupole Moments (Debye-Ang)
        XX     -81.9006     XY      -0.0000     YY     -64.7873
        XZ      -0.0000     YZ       0.0000     ZZ     -64.7813

 Total job time:  64.19s(wall), 254.38s(cpu)
        *  Thank you very much for using Q-Chem.  Have a nice day.  *
