 Q-Chem 5.0, Q-Chem, Inc., Pleasanton, CA (2017)
 Q-Chem 5.0.1 for Intel X86 EM64T Linux

User input:
--------------------------------------------------------------
$molecule
0  1
--
0  1
C        +0.00000000        +1.39198000        +0.00000000
C        +1.20549000        +0.69599000        +0.00000000
C        +1.20549000        -0.69599000        +0.00000000
C        +0.00000000        -1.39198000        +0.00000000
C        -1.20549000        -0.69599000        +0.00000000
C        -1.20549000        +0.69599000        +0.00000000
H        +0.00000000        +2.47223000        +0.00000000
H        +2.14101000        +1.23612000        +0.00000000
H        +2.14101000        -1.23612000        +0.00000000
H        +0.00000000        -2.47223000        +0.00000000
H        -2.14101000        -1.23612000        +0.00000000
H        -2.14101000        +1.23612000        +0.00000000
--
0  1
C        +0.00000000        +1.39198000       +10.00000000
C        +1.20549000        +0.69599000       +10.00000000
C        +1.20549000        -0.69599000       +10.00000000
C        +0.00000000        -1.39198000       +10.00000000
C        -1.20549000        -0.69599000       +10.00000000
C        -1.20549000        +0.69599000       +10.00000000
H        +0.00000000        +2.47223000       +10.00000000
H        +2.14101000        +1.23612000       +10.00000000
H        +2.14101000        -1.23612000       +10.00000000
H        +0.00000000        -2.47223000       +10.00000000
H        -2.14101000        -1.23612000       +10.00000000
H        -2.14101000        +1.23612000       +10.00000000
$end

$rem
JOBTYPE                   SP
METHOD                    B3LYP
DFT_D                     d3_op
BASIS                     6-311++G(d,p)
SYMMETRY                  False
THRESH                    12
SCF_CONVERGENCE           8
MAX_SUB_FILE_NUM          128
MEM_STATIC                400
MEM_TOTAL                 4000
$end
--------------------------------------------------------------

             Standard Nuclear Orientation (Angstroms)
    I     Atom           X                Y                Z
 ----------------------------------------------------------------
    1      C      -5.0000000000     1.3919800000     0.0000000000
    2      C      -5.0000000000     0.6959900000    -1.2054900000
    3      C      -5.0000000000    -0.6959900000    -1.2054900000
    4      C      -5.0000000000    -1.3919800000     0.0000000000
    5      C      -5.0000000000    -0.6959900000     1.2054900000
    6      C      -5.0000000000     0.6959900000     1.2054900000
    7      H      -5.0000000000     2.4722300000     0.0000000000
    8      H      -5.0000000000     1.2361200000    -2.1410100000
    9      H      -5.0000000000    -1.2361200000    -2.1410100000
   10      H      -5.0000000000    -2.4722300000    -0.0000000000
   11      H      -5.0000000000    -1.2361200000     2.1410100000
   12      H      -5.0000000000     1.2361200000     2.1410100000
   13      C       5.0000000000     1.3919800000     0.0000000000
   14      C       5.0000000000     0.6959900000    -1.2054900000
   15      C       5.0000000000    -0.6959900000    -1.2054900000
   16      C       5.0000000000    -1.3919800000    -0.0000000000
   17      C       5.0000000000    -0.6959900000     1.2054900000
   18      C       5.0000000000     0.6959900000     1.2054900000
   19      H       5.0000000000     2.4722300000     0.0000000000
   20      H       5.0000000000     1.2361200000    -2.1410100000
   21      H       5.0000000000    -1.2361200000    -2.1410100000
   22      H       5.0000000000    -2.4722300000    -0.0000000000
   23      H       5.0000000000    -1.2361200000     2.1410100000
   24      H       5.0000000000     1.2361200000     2.1410100000
 ----------------------------------------------------------------

   10    -464.6387713383      5.52E-09 Convergence criterion met
 Total energy in the final basis set = -464.63877134

             Orbital Energies (a.u.) and Symmetries
 --------------------------------------------------------------

 Alpha MOs, Restricted
 -- Occupied --
-10.177 -10.177 -10.177 -10.177 -10.177 -10.177 -10.176 -10.176
  1 B3u   1 Ag    1 B1g   1 B2u   1 B1u   1 B2g   2 Ag    2 B3u
-10.176 -10.176 -10.176 -10.176  -0.860  -0.860  -0.752  -0.752
  1 B3g   1 Au    2 B2u   2 B1g   3 B3u   3 Ag    2 B1u   2 B2g
 -0.752  -0.752  -0.608  -0.608  -0.608  -0.608  -0.530  -0.530
  3 B2u   3 B1g   2 B3g   2 Au    4 Ag    4 B3u   5 B3u   5 Ag
 -0.466  -0.466  -0.453  -0.453  -0.428  -0.428  -0.428  -0.428
  4 B2u   4 B1g   3 B1u   3 B2g   4 B2g   4 B1u   5 B2u   5 B1g
 -0.373  -0.373  -0.350  -0.350  -0.350  -0.350  -0.260  -0.260
  6 Ag    6 B3u   3 Au    3 B3g   7 B3u   7 Ag    6 B2u   6 B1g
 -0.259  -0.259
  5 B1u   5 B2g

 Beta MOs, Restricted
 -- Occupied --
-10.177 -10.177 -10.177 -10.177 -10.177 -10.177 -10.176 -10.176
  1 B3u   1 Ag    1 B1g   1 B2u   1 B1u   1 B2g   2 Ag    2 B3u
-10.176 -10.176 -10.176 -10.176  -0.860  -0.860  -0.752  -0.752
  1 B3g   1 Au    2 B2u   2 B1g   3 B3u   3 Ag    2 B1u   2 B2g
 -0.752  -0.752  -0.608  -0.608  -0.608  -0.608  -0.530  -0.530
  3 B2u   3 B1g   2 B3g   2 Au    4 Ag    4 B3u   5 B3u   5 Ag
 -0.466  -0.466  -0.453  -0.453  -0.428  -0.428  -0.428  -0.428
  4 B2u   4 B1g   3 B1u   3 B2g   4 B2g   4 B1u   5 B2u   5 B1g
 -0.373  -0.373  -0.350  -0.350  -0.350  -0.350  -0.260  -0.260
  6 Ag    6 B3u   3 Au    3 B3g   7 B3u   7 Ag    6 B2u   6 B1g
 -0.259  -0.259
  5 B1u   5 B2g

          Ground-State Mulliken Net Atomic Charges

     Atom                 Charge (a.u.)
  ----------------------------------------
      1 C                    -0.155399
      2 C                    -0.153729
      3 C                    -0.153729
      4 C                    -0.155399
      5 C                    -0.153729
      6 C                    -0.153729
      7 H                     0.154364
      8 H                     0.154247
      9 H                     0.154247
     10 H                     0.154364
     11 H                     0.154247
     12 H                     0.154247
     13 C                    -0.155399
     14 C                    -0.153729
     15 C                    -0.153729
     16 C                    -0.155399
     17 C                    -0.153729
     18 C                    -0.153729
     19 H                     0.154364
     20 H                     0.154247
     21 H                     0.154247
     22 H                     0.154364
     23 H                     0.154247
     24 H                     0.154247
  ----------------------------------------
  Sum of atomic charges =     0.000000

                    Cartesian Multipole Moments
 -----------------------------------------------------------------
    Charge (ESU x 10^10)
                 0.0000
    Dipole Moment (Debye)
         X       0.0000      Y       0.0000      Z       0.0000
       Tot       0.0000
    Quadrupole Moments (Debye-Ang)
        XX     -80.7432     XY       0.0000     YY     -64.2989
        XZ       0.0000     YZ       0.0000     ZZ     -64.2905

 Total job time:  21.09s(wall), 83.15s(cpu)
        *  Thank you very much for using Q-Chem.  Have a nice day.  *
