 Q-Chem 5.0, Q-Chem, Inc., Pleasanton, CA (2017)
 Q-Chem 5.0.1 for Intel X86 EM64T Linux

User input:
--------------------------------------------------------------
$molecule
0  1
--
0  1
C        +0.00000000        +1.39198000        +0.00000000
C        +1.20549000        +0.69599000        +0.00000000
C        +1.20549000        -0.69599000        +0.00000000
C        +0.00000000        -1.39198000        +0.00000000
C        -1.20549000        -0.69599000        +0.00000000
C        -1.20549000        +0.69599000        +0.00000000
H        +0.00000000        +2.47223000        +0.00000000
H        +2.14101000        +1.23612000        +0.00000000
H        +2.14101000        -1.23612000        +0.00000000
H        +0.00000000        -2.47223000        +0.00000000
H        -2.14101000        -1.23612000        +0.00000000
H        -2.14101000        +1.23612000        +0.00000000
--
0  1
C        +0.00000000        +1.39198000        +4.30000000
C        +1.20549000        +0.69599000        +4.30000000
C        +1.20549000        -0.69599000        +4.30000000
C        +0.00000000        -1.39198000        +4.30000000
C        -1.20549000        -0.69599000        +4.30000000
C        -1.20549000        +0.69599000        +4.30000000
H        +0.00000000        +2.47223000        +4.30000000
H        +2.14101000        +1.23612000        +4.30000000
H        +2.14101000        -1.23612000        +4.30000000
H        +0.00000000        -2.47223000        +4.30000000
H        -2.14101000        -1.23612000        +4.30000000
H        -2.14101000        +1.23612000        +4.30000000
$end

$rem
JOBTYPE                   SP
METHOD                    B3LYP
DFT_D                     d3_op
BASIS                     6-311++G(d,p)
SYMMETRY                  False
THRESH                    12
SCF_CONVERGENCE           8
MAX_SUB_FILE_NUM          128
MEM_STATIC                400
MEM_TOTAL                 4000
$end
--------------------------------------------------------------

             Standard Nuclear Orientation (Angstroms)
    I     Atom           X                Y                Z
 ----------------------------------------------------------------
    1      C      -2.1500000000     1.3919800000     0.0000000004
    2      C      -2.1500000000     0.6959900003    -1.2054899998
    3      C      -2.1500000000    -0.6959899997    -1.2054900002
    4      C      -2.1500000000    -1.3919800000    -0.0000000004
    5      C      -2.1500000000    -0.6959900003     1.2054899998
    6      C      -2.1500000000     0.6959899997     1.2054900002
    7      H      -2.1500000000     2.4722300000     0.0000000007
    8      H      -2.1500000000     1.2361200006    -2.1410099997
    9      H      -2.1500000000    -1.2361199994    -2.1410100003
   10      H      -2.1500000000    -2.4722300000    -0.0000000007
   11      H      -2.1500000000    -1.2361200006     2.1410099997
   12      H      -2.1500000000     1.2361199994     2.1410100003
   13      C       2.1500000000     1.3919800000     0.0000000004
   14      C       2.1500000000     0.6959900003    -1.2054899998
   15      C       2.1500000000    -0.6959899997    -1.2054900002
   16      C       2.1500000000    -1.3919800000    -0.0000000004
   17      C       2.1500000000    -0.6959900003     1.2054899998
   18      C       2.1500000000     0.6959899997     1.2054900002
   19      H       2.1500000000     2.4722300000     0.0000000007
   20      H       2.1500000000     1.2361200006    -2.1410099997
   21      H       2.1500000000    -1.2361199994    -2.1410100003
   22      H       2.1500000000    -2.4722300000    -0.0000000007
   23      H       2.1500000000    -1.2361200006     2.1410099997
   24      H       2.1500000000     1.2361199994     2.1410100003
 ----------------------------------------------------------------

   11    -464.6405106296      2.29E-10 Convergence criterion met
 Total energy in the final basis set = -464.64051063

             Orbital Energies (a.u.) and Symmetries
 --------------------------------------------------------------

 Alpha MOs, Restricted
 -- Occupied --
-10.173 -10.173 -10.173 -10.173 -10.173 -10.173 -10.172 -10.172
  1 Ag    1 B3u   1 B2u   1 B1g   1 B2g   1 B1u   2 B3u   2 Ag
-10.172 -10.172 -10.172 -10.172  -0.856  -0.856  -0.748  -0.748
  1 Au    1 B3g   2 B1g   2 B2u   3 Ag    3 B3u   2 B1u   3 B2u
 -0.747  -0.747  -0.605  -0.605  -0.604  -0.604  -0.527  -0.526
  2 B2g   3 B1g   2 B3g   4 Ag    2 Au    4 B3u   5 Ag    5 B3u
 -0.463  -0.463  -0.449  -0.449  -0.424  -0.424  -0.424  -0.424
  4 B2u   4 B1g   3 B1u   3 B2g   4 B1u   5 B2u   4 B2g   5 B1g
 -0.373  -0.364  -0.347  -0.347  -0.347  -0.347  -0.260  -0.260
  6 Ag    6 B3u   3 B3g   7 Ag    3 Au    7 B3u   6 B2u   5 B1u
 -0.251  -0.251
  6 B1g   5 B2g

 Beta MOs, Restricted
 -- Occupied --
-10.173 -10.173 -10.173 -10.173 -10.173 -10.173 -10.172 -10.172
  1 Ag    1 B3u   1 B2u   1 B1g   1 B2g   1 B1u   2 B3u   2 Ag
-10.172 -10.172 -10.172 -10.172  -0.856  -0.856  -0.748  -0.748
  1 Au    1 B3g   2 B1g   2 B2u   3 Ag    3 B3u   2 B1u   3 B2u
 -0.747  -0.747  -0.605  -0.605  -0.604  -0.604  -0.527  -0.526
  2 B2g   3 B1g   2 B3g   4 Ag    2 Au    4 B3u   5 Ag    5 B3u
 -0.463  -0.463  -0.449  -0.449  -0.424  -0.424  -0.424  -0.424
  4 B2u   4 B1g   3 B1u   3 B2g   4 B1u   5 B2u   4 B2g   5 B1g
 -0.373  -0.364  -0.347  -0.347  -0.347  -0.347  -0.260  -0.260
  6 Ag    6 B3u   3 B3g   7 Ag    3 Au    7 B3u   6 B2u   5 B1u
 -0.251  -0.251
  6 B1g   5 B2g

          Ground-State Mulliken Net Atomic Charges

     Atom                 Charge (a.u.)
  ----------------------------------------
      1 C                    -0.155768
      2 C                    -0.152926
      3 C                    -0.152926
      4 C                    -0.155768
      5 C                    -0.152926
      6 C                    -0.152926
      7 H                     0.153905
      8 H                     0.153858
      9 H                     0.153858
     10 H                     0.153905
     11 H                     0.153858
     12 H                     0.153858
     13 C                    -0.155768
     14 C                    -0.152926
     15 C                    -0.152926
     16 C                    -0.155768
     17 C                    -0.152926
     18 C                    -0.152926
     19 H                     0.153905
     20 H                     0.153858
     21 H                     0.153858
     22 H                     0.153905
     23 H                     0.153858
     24 H                     0.153858
  ----------------------------------------
  Sum of atomic charges =     0.000000

                    Cartesian Multipole Moments
 -----------------------------------------------------------------
    Charge (ESU x 10^10)
                 0.0000
    Dipole Moment (Debye)
         X       0.0000      Y       0.0000      Z      -0.0000
       Tot       0.0000
    Quadrupole Moments (Debye-Ang)
        XX     -81.6716     XY      -0.0000     YY     -64.6428
        XZ      -0.0000     YZ      -0.0000     ZZ     -64.6379

 Total job time:  51.36s(wall), 203.61s(cpu)
        *  Thank you very much for using Q-Chem.  Have a nice day.  *
