 Q-Chem 5.0, Q-Chem, Inc., Pleasanton, CA (2017)
 Q-Chem 5.0.1 for Intel X86 EM64T Linux

User input:
--------------------------------------------------------------
$molecule
0  1
--
0  1
C        +0.00000000        +1.39198000        +0.00000000
C        +1.20549000        +0.69599000        +0.00000000
C        +1.20549000        -0.69599000        +0.00000000
C        +0.00000000        -1.39198000        +0.00000000
C        -1.20549000        -0.69599000        +0.00000000
C        -1.20549000        +0.69599000        +0.00000000
H        +0.00000000        +2.47223000        +0.00000000
H        +2.14101000        +1.23612000        +0.00000000
H        +2.14101000        -1.23612000        +0.00000000
H        +0.00000000        -2.47223000        +0.00000000
H        -2.14101000        -1.23612000        +0.00000000
H        -2.14101000        +1.23612000        +0.00000000
--
0  1
C        +0.00000000        +1.39198000        +7.00000000
C        +1.20549000        +0.69599000        +7.00000000
C        +1.20549000        -0.69599000        +7.00000000
C        +0.00000000        -1.39198000        +7.00000000
C        -1.20549000        -0.69599000        +7.00000000
C        -1.20549000        +0.69599000        +7.00000000
H        +0.00000000        +2.47223000        +7.00000000
H        +2.14101000        +1.23612000        +7.00000000
H        +2.14101000        -1.23612000        +7.00000000
H        +0.00000000        -2.47223000        +7.00000000
H        -2.14101000        -1.23612000        +7.00000000
H        -2.14101000        +1.23612000        +7.00000000
$end

$rem
JOBTYPE                   SP
METHOD                    B3LYP
DFT_D                     d3_op
BASIS                     6-311++G(d,p)
SYMMETRY                  False
THRESH                    12
SCF_CONVERGENCE           8
MAX_SUB_FILE_NUM          128
MEM_STATIC                400
MEM_TOTAL                 4000
$end
--------------------------------------------------------------

             Standard Nuclear Orientation (Angstroms)
    I     Atom           X                Y                Z
 ----------------------------------------------------------------
    1      C      -3.5000000000     1.3919800000     0.0000000000
    2      C      -3.5000000000     0.6959900000    -1.2054900000
    3      C      -3.5000000000    -0.6959900000    -1.2054900000
    4      C      -3.5000000000    -1.3919800000     0.0000000000
    5      C      -3.5000000000    -0.6959900000     1.2054900000
    6      C      -3.5000000000     0.6959900000     1.2054900000
    7      H      -3.5000000000     2.4722300000     0.0000000000
    8      H      -3.5000000000     1.2361200000    -2.1410100000
    9      H      -3.5000000000    -1.2361200000    -2.1410100000
   10      H      -3.5000000000    -2.4722300000    -0.0000000000
   11      H      -3.5000000000    -1.2361200000     2.1410100000
   12      H      -3.5000000000     1.2361200000     2.1410100000
   13      C       3.5000000000     1.3919800000     0.0000000000
   14      C       3.5000000000     0.6959900000    -1.2054900000
   15      C       3.5000000000    -0.6959900000    -1.2054900000
   16      C       3.5000000000    -1.3919800000    -0.0000000000
   17      C       3.5000000000    -0.6959900000     1.2054900000
   18      C       3.5000000000     0.6959900000     1.2054900000
   19      H       3.5000000000     2.4722300000     0.0000000000
   20      H       3.5000000000     1.2361200000    -2.1410100000
   21      H       3.5000000000    -1.2361200000    -2.1410100000
   22      H       3.5000000000    -2.4722300000    -0.0000000000
   23      H       3.5000000000    -1.2361200000     2.1410100000
   24      H       3.5000000000     1.2361200000     2.1410100000
 ----------------------------------------------------------------

   10    -464.6387876871      5.24E-09 Convergence criterion met
 Total energy in the final basis set = -464.63878769

             Orbital Energies (a.u.) and Symmetries
 --------------------------------------------------------------

 Alpha MOs, Restricted
 -- Occupied --
-10.176 -10.176 -10.176 -10.176 -10.176 -10.176 -10.175 -10.175
  1 B3u   1 Ag    1 B1g   1 B2u   1 B2g   1 B1u   2 Ag    2 B3u
-10.175 -10.175 -10.175 -10.175  -0.859  -0.859  -0.751  -0.751
  1 B3g   1 Au    2 B2u   2 B1g   3 B3u   3 Ag    2 B2g   3 B1g
 -0.751  -0.751  -0.607  -0.607  -0.607  -0.607  -0.529  -0.529
  2 B1u   3 B2u   2 Au    2 B3g   4 B3u   4 Ag    5 B3u   5 Ag
 -0.465  -0.465  -0.452  -0.452  -0.427  -0.427  -0.427  -0.427
  4 B2u   4 B1g   3 B1u   3 B2g   4 B1u   4 B2g   5 B2u   5 B1g
 -0.372  -0.372  -0.349  -0.349  -0.349  -0.349  -0.258  -0.258
  6 Ag    6 B3u   3 B3g   3 Au    7 Ag    7 B3u   6 B2u   5 B1u
 -0.258  -0.258
  6 B1g   5 B2g

 Beta MOs, Restricted
 -- Occupied --
-10.176 -10.176 -10.176 -10.176 -10.176 -10.176 -10.175 -10.175
  1 B3u   1 Ag    1 B1g   1 B2u   1 B2g   1 B1u   2 Ag    2 B3u
-10.175 -10.175 -10.175 -10.175  -0.859  -0.859  -0.751  -0.751
  1 B3g   1 Au    2 B2u   2 B1g   3 B3u   3 Ag    2 B2g   3 B1g
 -0.751  -0.751  -0.607  -0.607  -0.607  -0.607  -0.529  -0.529
  2 B1u   3 B2u   2 Au    2 B3g   4 B3u   4 Ag    5 B3u   5 Ag
 -0.465  -0.465  -0.452  -0.452  -0.427  -0.427  -0.427  -0.427
  4 B2u   4 B1g   3 B1u   3 B2g   4 B1u   4 B2g   5 B2u   5 B1g
 -0.372  -0.372  -0.349  -0.349  -0.349  -0.349  -0.258  -0.258
  6 Ag    6 B3u   3 B3g   3 Au    7 Ag    7 B3u   6 B2u   5 B1u
 -0.258  -0.258
  6 B1g   5 B2g

          Ground-State Mulliken Net Atomic Charges

     Atom                 Charge (a.u.)
  ----------------------------------------
      1 C                    -0.156448
      2 C                    -0.154267
      3 C                    -0.154267
      4 C                    -0.156448
      5 C                    -0.154267
      6 C                    -0.154267
      7 H                     0.155073
      8 H                     0.154954
      9 H                     0.154954
     10 H                     0.155073
     11 H                     0.154954
     12 H                     0.154954
     13 C                    -0.156448
     14 C                    -0.154267
     15 C                    -0.154267
     16 C                    -0.156448
     17 C                    -0.154267
     18 C                    -0.154267
     19 H                     0.155073
     20 H                     0.154954
     21 H                     0.154954
     22 H                     0.155073
     23 H                     0.154954
     24 H                     0.154954
  ----------------------------------------
  Sum of atomic charges =    -0.000000

                    Cartesian Multipole Moments
 -----------------------------------------------------------------
    Charge (ESU x 10^10)
                -0.0000
    Dipole Moment (Debye)
         X      -0.0000      Y       0.0000      Z       0.0000
       Tot       0.0000
    Quadrupole Moments (Debye-Ang)
        XX     -81.0550     XY      -0.0000     YY     -64.3463
        XZ       0.0000     YZ       0.0000     ZZ     -64.3373

 Total job time:  26.01s(wall), 102.88s(cpu)
        *  Thank you very much for using Q-Chem.  Have a nice day.  *
