 Q-Chem 5.0, Q-Chem, Inc., Pleasanton, CA (2017)
 Q-Chem 5.0.1 for Intel X86 EM64T Linux

User input:
--------------------------------------------------------------
$molecule
0  1
--
0  1
C        +0.00000000        +1.39198000        +0.00000000
C        +1.20549000        +0.69599000        +0.00000000
C        +1.20549000        -0.69599000        +0.00000000
C        +0.00000000        -1.39198000        +0.00000000
C        -1.20549000        -0.69599000        +0.00000000
C        -1.20549000        +0.69599000        +0.00000000
H        +0.00000000        +2.47223000        +0.00000000
H        +2.14101000        +1.23612000        +0.00000000
H        +2.14101000        -1.23612000        +0.00000000
H        +0.00000000        -2.47223000        +0.00000000
H        -2.14101000        -1.23612000        +0.00000000
H        -2.14101000        +1.23612000        +0.00000000
--
0  1
C        +0.00000000        +1.39198000        +4.90000000
C        +1.20549000        +0.69599000        +4.90000000
C        +1.20549000        -0.69599000        +4.90000000
C        +0.00000000        -1.39198000        +4.90000000
C        -1.20549000        -0.69599000        +4.90000000
C        -1.20549000        +0.69599000        +4.90000000
H        +0.00000000        +2.47223000        +4.90000000
H        +2.14101000        +1.23612000        +4.90000000
H        +2.14101000        -1.23612000        +4.90000000
H        +0.00000000        -2.47223000        +4.90000000
H        -2.14101000        -1.23612000        +4.90000000
H        -2.14101000        +1.23612000        +4.90000000
$end

$rem
JOBTYPE                   SP
METHOD                    B3LYP
DFT_D                     d3_op
BASIS                     6-311++G(d,p)
SYMMETRY                  False
THRESH                    12
SCF_CONVERGENCE           8
MAX_SUB_FILE_NUM          128
MEM_STATIC                400
MEM_TOTAL                 4000
$end
--------------------------------------------------------------

             Standard Nuclear Orientation (Angstroms)
    I     Atom           X                Y                Z
 ----------------------------------------------------------------
    1      C      -2.4500000000     1.3919800000     0.0000000008
    2      C      -2.4500000000     0.6959900007    -1.2054899996
    3      C      -2.4500000000    -0.6959899993    -1.2054900004
    4      C      -2.4500000000    -1.3919800000    -0.0000000008
    5      C      -2.4500000000    -0.6959900007     1.2054899996
    6      C      -2.4500000000     0.6959899993     1.2054900004
    7      H      -2.4500000000     2.4722300000     0.0000000014
    8      H      -2.4500000000     1.2361200012    -2.1410099993
    9      H      -2.4500000000    -1.2361199988    -2.1410100007
   10      H      -2.4500000000    -2.4722300000    -0.0000000014
   11      H      -2.4500000000    -1.2361200012     2.1410099993
   12      H      -2.4500000000     1.2361199988     2.1410100007
   13      C       2.4500000000     1.3919800000     0.0000000008
   14      C       2.4500000000     0.6959900007    -1.2054899996
   15      C       2.4500000000    -0.6959899993    -1.2054900004
   16      C       2.4500000000    -1.3919800000    -0.0000000008
   17      C       2.4500000000    -0.6959900007     1.2054899996
   18      C       2.4500000000     0.6959899993     1.2054900004
   19      H       2.4500000000     2.4722300000     0.0000000014
   20      H       2.4500000000     1.2361200012    -2.1410099993
   21      H       2.4500000000    -1.2361199988    -2.1410100007
   22      H       2.4500000000    -2.4722300000    -0.0000000014
   23      H       2.4500000000    -1.2361200012     2.1410099993
   24      H       2.4500000000     1.2361199988     2.1410100007
 ----------------------------------------------------------------

   10    -464.6395061656      8.18E-09 Convergence criterion met
 Total energy in the final basis set = -464.63950617

             Orbital Energies (a.u.) and Symmetries
 --------------------------------------------------------------

 Alpha MOs, Restricted
 -- Occupied --
-10.174 -10.174 -10.174 -10.174 -10.174 -10.174 -10.173 -10.173
  1 B3u   1 Ag    1 B1g   1 B2u   1 B2g   1 B1u   2 Ag    2 B3u
-10.173 -10.173 -10.173 -10.173  -0.857  -0.857  -0.749  -0.749
  1 Au    1 B3g   2 B2u   2 B1g   3 Ag    3 B3u   2 B1u   3 B2u
 -0.748  -0.748  -0.605  -0.605  -0.605  -0.605  -0.528  -0.527
  2 B2g   3 B1g   2 B3g   4 Ag    2 Au    4 B3u   5 Ag    5 B3u
 -0.464  -0.464  -0.450  -0.450  -0.425  -0.425  -0.425  -0.425
  4 B2u   4 B1g   3 B1u   3 B2g   4 B1u   5 B2u   4 B2g   5 B1g
 -0.371  -0.368  -0.348  -0.348  -0.347  -0.347  -0.258  -0.258
  6 Ag    6 B3u   3 B3g   7 Ag    3 Au    7 B3u   6 B2u   5 B1u
 -0.254  -0.254
  6 B1g   5 B2g

 Beta MOs, Restricted
 -- Occupied --
-10.174 -10.174 -10.174 -10.174 -10.174 -10.174 -10.173 -10.173
  1 B3u   1 Ag    1 B1g   1 B2u   1 B2g   1 B1u   2 Ag    2 B3u
-10.173 -10.173 -10.173 -10.173  -0.857  -0.857  -0.749  -0.749
  1 Au    1 B3g   2 B2u   2 B1g   3 Ag    3 B3u   2 B1u   3 B2u
 -0.748  -0.748  -0.605  -0.605  -0.605  -0.605  -0.528  -0.527
  2 B2g   3 B1g   2 B3g   4 Ag    2 Au    4 B3u   5 Ag    5 B3u
 -0.464  -0.464  -0.450  -0.450  -0.425  -0.425  -0.425  -0.425
  4 B2u   4 B1g   3 B1u   3 B2g   4 B1u   5 B2u   4 B2g   5 B1g
 -0.371  -0.368  -0.348  -0.348  -0.347  -0.347  -0.258  -0.258
  6 Ag    6 B3u   3 B3g   7 Ag    3 Au    7 B3u   6 B2u   5 B1u
 -0.254  -0.254
  6 B1g   5 B2g

          Ground-State Mulliken Net Atomic Charges

     Atom                 Charge (a.u.)
  ----------------------------------------
      1 C                    -0.158040
      2 C                    -0.154096
      3 C                    -0.154096
      4 C                    -0.158040
      5 C                    -0.154096
      6 C                    -0.154096
      7 H                     0.155375
      8 H                     0.155429
      9 H                     0.155429
     10 H                     0.155375
     11 H                     0.155429
     12 H                     0.155429
     13 C                    -0.158040
     14 C                    -0.154096
     15 C                    -0.154096
     16 C                    -0.158040
     17 C                    -0.154096
     18 C                    -0.154096
     19 H                     0.155375
     20 H                     0.155429
     21 H                     0.155429
     22 H                     0.155375
     23 H                     0.155429
     24 H                     0.155429
  ----------------------------------------
  Sum of atomic charges =     0.000000

                    Cartesian Multipole Moments
 -----------------------------------------------------------------
    Charge (ESU x 10^10)
                 0.0000
    Dipole Moment (Debye)
         X      -0.0000      Y       0.0000      Z       0.0000
       Tot       0.0000
    Quadrupole Moments (Debye-Ang)
        XX     -81.5377     XY      -0.0000     YY     -64.5018
        XZ      -0.0000     YZ      -0.0000     ZZ     -64.4933

 Total job time:  33.10s(wall), 131.12s(cpu)
        *  Thank you very much for using Q-Chem.  Have a nice day.  *
