 Q-Chem 5.0, Q-Chem, Inc., Pleasanton, CA (2017)
 Q-Chem 5.0.1 for Intel X86 EM64T Linux

User input:
--------------------------------------------------------------
$molecule
0  1
--
0  1
C        +0.00000000        +1.39198000        +0.00000000
C        +1.20549000        +0.69599000        +0.00000000
C        +1.20549000        -0.69599000        +0.00000000
C        +0.00000000        -1.39198000        +0.00000000
C        -1.20549000        -0.69599000        +0.00000000
C        -1.20549000        +0.69599000        +0.00000000
H        +0.00000000        +2.47223000        +0.00000000
H        +2.14101000        +1.23612000        +0.00000000
H        +2.14101000        -1.23612000        +0.00000000
H        +0.00000000        -2.47223000        +0.00000000
H        -2.14101000        -1.23612000        +0.00000000
H        -2.14101000        +1.23612000        +0.00000000
--
0  1
C        +0.00000000        +1.39198000        +3.00000000
C        +1.20549000        +0.69599000        +3.00000000
C        +1.20549000        -0.69599000        +3.00000000
C        +0.00000000        -1.39198000        +3.00000000
C        -1.20549000        -0.69599000        +3.00000000
C        -1.20549000        +0.69599000        +3.00000000
H        +0.00000000        +2.47223000        +3.00000000
H        +2.14101000        +1.23612000        +3.00000000
H        +2.14101000        -1.23612000        +3.00000000
H        +0.00000000        -2.47223000        +3.00000000
H        -2.14101000        -1.23612000        +3.00000000
H        -2.14101000        +1.23612000        +3.00000000
$end

$rem
JOBTYPE                   SP
METHOD                    B3LYP
DFT_D                     d3_op
BASIS                     6-311++G(d,p)
SYMMETRY                  False
THRESH                    12
SCF_CONVERGENCE           8
MAX_SUB_FILE_NUM          128
MEM_STATIC                400
MEM_TOTAL                 4000
$end
--------------------------------------------------------------

             Standard Nuclear Orientation (Angstroms)
    I     Atom           X                Y                Z
 ----------------------------------------------------------------
    1      C       1.5000000000     1.3919800000    -0.0000000000
    2      C       1.5000000000     0.6959900000     1.2054900000
    3      C       1.5000000000    -0.6959900000     1.2054900000
    4      C       1.5000000000    -1.3919800000    -0.0000000000
    5      C       1.5000000000    -0.6959900000    -1.2054900000
    6      C       1.5000000000     0.6959900000    -1.2054900000
    7      H       1.5000000000     2.4722300000     0.0000000000
    8      H       1.5000000000     1.2361200000     2.1410100000
    9      H       1.5000000000    -1.2361200000     2.1410100000
   10      H       1.5000000000    -2.4722300000    -0.0000000000
   11      H       1.5000000000    -1.2361200000    -2.1410100000
   12      H       1.5000000000     1.2361200000    -2.1410100000
   13      C      -1.5000000000     1.3919800000     0.0000000000
   14      C      -1.5000000000     0.6959900000     1.2054900000
   15      C      -1.5000000000    -0.6959900000     1.2054900000
   16      C      -1.5000000000    -1.3919800000     0.0000000000
   17      C      -1.5000000000    -0.6959900000    -1.2054900000
   18      C      -1.5000000000     0.6959900000    -1.2054900000
   19      H      -1.5000000000     2.4722300000     0.0000000000
   20      H      -1.5000000000     1.2361200000     2.1410100000
   21      H      -1.5000000000    -1.2361200000     2.1410100000
   22      H      -1.5000000000    -2.4722300000    -0.0000000000
   23      H      -1.5000000000    -1.2361200000    -2.1410100000
   24      H      -1.5000000000     1.2361200000    -2.1410100000
 ----------------------------------------------------------------

   11    -464.6235802926      3.44E-10 Convergence criterion met
 Total energy in the final basis set = -464.62358029

             Orbital Energies (a.u.) and Symmetries
 --------------------------------------------------------------

 Alpha MOs, Restricted
 -- Occupied --
-10.169 -10.169 -10.169 -10.169 -10.169 -10.169 -10.169 -10.169
  1 B3u   1 Ag    1 B1g   1 B2g   1 B2u   1 B1u   2 B3u   2 Ag
-10.169 -10.169 -10.168 -10.168  -0.860  -0.848  -0.751  -0.751
  1 Au    1 B3g   2 B1g   2 B2u   3 Ag    3 B3u   3 B2u   2 B1u
 -0.740  -0.740  -0.607  -0.607  -0.598  -0.598  -0.530  -0.521
  2 B2g   3 B1g   2 B3g   4 Ag    2 Au    4 B3u   5 Ag    5 B3u
 -0.467  -0.457  -0.449  -0.444  -0.426  -0.426  -0.419  -0.419
  4 B2u   4 B1g   3 B1u   3 B2g   4 B1u   5 B2u   4 B2g   5 B1g
 -0.396  -0.348  -0.348  -0.342  -0.342  -0.334  -0.281  -0.281
  6 Ag    3 B3g   7 Ag    3 Au    6 B3u   7 B3u   6 B2u   5 B1u
 -0.223  -0.223
  6 B1g   5 B2g

 Beta MOs, Restricted
 -- Occupied --
-10.169 -10.169 -10.169 -10.169 -10.169 -10.169 -10.169 -10.169
  1 B3u   1 Ag    1 B1g   1 B2g   1 B2u   1 B1u   2 B3u   2 Ag
-10.169 -10.169 -10.168 -10.168  -0.860  -0.848  -0.751  -0.751
  1 Au    1 B3g   2 B1g   2 B2u   3 Ag    3 B3u   3 B2u   2 B1u
 -0.740  -0.740  -0.607  -0.607  -0.598  -0.598  -0.530  -0.521
  2 B2g   3 B1g   2 B3g   4 Ag    2 Au    4 B3u   5 Ag    5 B3u
 -0.467  -0.457  -0.449  -0.444  -0.426  -0.426  -0.419  -0.419
  4 B2u   4 B1g   3 B1u   3 B2g   4 B1u   5 B2u   4 B2g   5 B1g
 -0.396  -0.348  -0.348  -0.342  -0.342  -0.334  -0.281  -0.281
  6 Ag    3 B3g   7 Ag    3 Au    6 B3u   7 B3u   6 B2u   5 B1u
 -0.223  -0.223
  6 B1g   5 B2g

          Ground-State Mulliken Net Atomic Charges

     Atom                 Charge (a.u.)
  ----------------------------------------
      1 C                    -0.162668
      2 C                    -0.153927
      3 C                    -0.153927
      4 C                    -0.162668
      5 C                    -0.153927
      6 C                    -0.153927
      7 H                     0.156636
      8 H                     0.156943
      9 H                     0.156943
     10 H                     0.156636
     11 H                     0.156943
     12 H                     0.156943
     13 C                    -0.162668
     14 C                    -0.153927
     15 C                    -0.153927
     16 C                    -0.162668
     17 C                    -0.153927
     18 C                    -0.153927
     19 H                     0.156636
     20 H                     0.156943
     21 H                     0.156943
     22 H                     0.156636
     23 H                     0.156943
     24 H                     0.156943
  ----------------------------------------
  Sum of atomic charges =     0.000000

                    Cartesian Multipole Moments
 -----------------------------------------------------------------
    Charge (ESU x 10^10)
                 0.0000
    Dipole Moment (Debye)
         X       0.0000      Y      -0.0000      Z      -0.0000
       Tot       0.0000
    Quadrupole Moments (Debye-Ang)
        XX     -83.2011     XY      -0.0000     YY     -65.1717
        XZ       0.0000     YZ       0.0000     ZZ     -65.1634

 Total job time:  81.69s(wall), 323.12s(cpu)
        *  Thank you very much for using Q-Chem.  Have a nice day.  *
