 Q-Chem 5.0, Q-Chem, Inc., Pleasanton, CA (2017)
 Q-Chem 5.0.1 for Intel X86 EM64T Linux

User input:
--------------------------------------------------------------
$molecule
0  1
--
0  1
C        +0.00000000        +1.39198000        +0.00000000
C        +1.20549000        +0.69599000        +0.00000000
C        +1.20549000        -0.69599000        +0.00000000
C        +0.00000000        -1.39198000        +0.00000000
C        -1.20549000        -0.69599000        +0.00000000
C        -1.20549000        +0.69599000        +0.00000000
H        +0.00000000        +2.47223000        +0.00000000
H        +2.14101000        +1.23612000        +0.00000000
H        +2.14101000        -1.23612000        +0.00000000
H        +0.00000000        -2.47223000        +0.00000000
H        -2.14101000        -1.23612000        +0.00000000
H        -2.14101000        +1.23612000        +0.00000000
--
0  1
C        +0.00000000        +1.39198000        +6.50000000
C        +1.20549000        +0.69599000        +6.50000000
C        +1.20549000        -0.69599000        +6.50000000
C        +0.00000000        -1.39198000        +6.50000000
C        -1.20549000        -0.69599000        +6.50000000
C        -1.20549000        +0.69599000        +6.50000000
H        +0.00000000        +2.47223000        +6.50000000
H        +2.14101000        +1.23612000        +6.50000000
H        +2.14101000        -1.23612000        +6.50000000
H        +0.00000000        -2.47223000        +6.50000000
H        -2.14101000        -1.23612000        +6.50000000
H        -2.14101000        +1.23612000        +6.50000000
$end

$rem
JOBTYPE                   SP
METHOD                    B3LYP
DFT_D                     d3_op
BASIS                     6-311++G(d,p)
SYMMETRY                  False
THRESH                    12
SCF_CONVERGENCE           8
MAX_SUB_FILE_NUM          128
MEM_STATIC                400
MEM_TOTAL                 4000
$end
--------------------------------------------------------------

             Standard Nuclear Orientation (Angstroms)
    I     Atom           X                Y                Z
 ----------------------------------------------------------------
    1      C      -3.2500000000     1.3919800000     0.0000000000
    2      C      -3.2500000000     0.6959900000    -1.2054900000
    3      C      -3.2500000000    -0.6959900000    -1.2054900000
    4      C      -3.2500000000    -1.3919800000     0.0000000000
    5      C      -3.2500000000    -0.6959900000     1.2054900000
    6      C      -3.2500000000     0.6959900000     1.2054900000
    7      H      -3.2500000000     2.4722300000     0.0000000000
    8      H      -3.2500000000     1.2361200000    -2.1410100000
    9      H      -3.2500000000    -1.2361200000    -2.1410100000
   10      H      -3.2500000000    -2.4722300000     0.0000000000
   11      H      -3.2500000000    -1.2361200000     2.1410100000
   12      H      -3.2500000000     1.2361200000     2.1410100000
   13      C       3.2500000000     1.3919800000    -0.0000000000
   14      C       3.2500000000     0.6959900000    -1.2054900000
   15      C       3.2500000000    -0.6959900000    -1.2054900000
   16      C       3.2500000000    -1.3919800000    -0.0000000000
   17      C       3.2500000000    -0.6959900000     1.2054900000
   18      C       3.2500000000     0.6959900000     1.2054900000
   19      H       3.2500000000     2.4722300000     0.0000000000
   20      H       3.2500000000     1.2361200000    -2.1410100000
   21      H       3.2500000000    -1.2361200000    -2.1410100000
   22      H       3.2500000000    -2.4722300000    -0.0000000000
   23      H       3.2500000000    -1.2361200000     2.1410100000
   24      H       3.2500000000     1.2361200000     2.1410100000
 ----------------------------------------------------------------

   10    -464.6388473807      5.52E-09 Convergence criterion met
 Total energy in the final basis set = -464.63884738

             Orbital Energies (a.u.) and Symmetries
 --------------------------------------------------------------

 Alpha MOs, Restricted
 -- Occupied --
-10.176 -10.176 -10.176 -10.176 -10.176 -10.176 -10.175 -10.175
  1 B3u   1 Ag    1 B1g   1 B2u   1 B2g   1 B1u   2 Ag    2 B3u
-10.175 -10.175 -10.175 -10.175  -0.859  -0.859  -0.750  -0.750
  1 B3g   1 Au    2 B2u   2 B1g   3 B3u   3 Ag    2 B2g   2 B1u
 -0.750  -0.750  -0.607  -0.607  -0.607  -0.607  -0.529  -0.529
  3 B1g   3 B2u   2 B3g   2 Au    4 Ag    4 B3u   5 B3u   5 Ag
 -0.465  -0.465  -0.452  -0.452  -0.427  -0.427  -0.427  -0.427
  4 B2u   4 B1g   3 B1u   3 B2g   4 B1u   4 B2g   5 B2u   5 B1g
 -0.372  -0.371  -0.349  -0.349  -0.349  -0.349  -0.258  -0.258
  6 Ag    6 B3u   3 B3g   3 Au    7 Ag    7 B3u   6 B2u   5 B1u
 -0.258  -0.258
  6 B1g   5 B2g

 Beta MOs, Restricted
 -- Occupied --
-10.176 -10.176 -10.176 -10.176 -10.176 -10.176 -10.175 -10.175
  1 B3u   1 Ag    1 B1g   1 B2u   1 B2g   1 B1u   2 Ag    2 B3u
-10.175 -10.175 -10.175 -10.175  -0.859  -0.859  -0.750  -0.750
  1 B3g   1 Au    2 B2u   2 B1g   3 B3u   3 Ag    2 B2g   2 B1u
 -0.750  -0.750  -0.607  -0.607  -0.607  -0.607  -0.529  -0.529
  3 B1g   3 B2u   2 B3g   2 Au    4 Ag    4 B3u   5 B3u   5 Ag
 -0.465  -0.465  -0.452  -0.452  -0.427  -0.427  -0.427  -0.427
  4 B2u   4 B1g   3 B1u   3 B2g   4 B1u   4 B2g   5 B2u   5 B1g
 -0.372  -0.371  -0.349  -0.349  -0.349  -0.349  -0.258  -0.258
  6 Ag    6 B3u   3 B3g   3 Au    7 Ag    7 B3u   6 B2u   5 B1u
 -0.258  -0.258
  6 B1g   5 B2g

          Ground-State Mulliken Net Atomic Charges

     Atom                 Charge (a.u.)
  ----------------------------------------
      1 C                    -0.157451
      2 C                    -0.155101
      3 C                    -0.155101
      4 C                    -0.157451
      5 C                    -0.155101
      6 C                    -0.155101
      7 H                     0.155965
      8 H                     0.155844
      9 H                     0.155844
     10 H                     0.155965
     11 H                     0.155844
     12 H                     0.155844
     13 C                    -0.157451
     14 C                    -0.155101
     15 C                    -0.155101
     16 C                    -0.157451
     17 C                    -0.155101
     18 C                    -0.155101
     19 H                     0.155965
     20 H                     0.155844
     21 H                     0.155844
     22 H                     0.155965
     23 H                     0.155844
     24 H                     0.155844
  ----------------------------------------
  Sum of atomic charges =     0.000000

                    Cartesian Multipole Moments
 -----------------------------------------------------------------
    Charge (ESU x 10^10)
                -0.0000
    Dipole Moment (Debye)
         X      -0.0000      Y       0.0000      Z      -0.0000
       Tot       0.0000
    Quadrupole Moments (Debye-Ang)
        XX     -81.1425     XY       0.0000     YY     -64.3662
        XZ       0.0000     YZ      -0.0000     ZZ     -64.3573

 Total job time:  25.35s(wall), 100.30s(cpu)
        *  Thank you very much for using Q-Chem.  Have a nice day.  *
