 Q-Chem 5.0, Q-Chem, Inc., Pleasanton, CA (2017)
 Q-Chem 5.0.1 for Intel X86 EM64T Linux

User input:
--------------------------------------------------------------
$molecule
0  1
C        +0.00000000        +1.39198000        +3.70000000
C        +1.20549000        +0.69599000        +3.70000000
C        +1.20549000        -0.69599000        +3.70000000
C        +0.00000000        -1.39198000        +3.70000000
C        -1.20549000        -0.69599000        +3.70000000
C        -1.20549000        +0.69599000        +3.70000000
H        +0.00000000        +2.47223000        +3.70000000
H        +2.14101000        +1.23612000        +3.70000000
H        +2.14101000        -1.23612000        +3.70000000
H        +0.00000000        -2.47223000        +3.70000000
H        -2.14101000        -1.23612000        +3.70000000
H        -2.14101000        +1.23612000        +3.70000000
@C        +0.00000000        +1.39198000        +0.00000000
@C        +1.20549000        +0.69599000        +0.00000000
@C        +1.20549000        -0.69599000        +0.00000000
@C        +0.00000000        -1.39198000        +0.00000000
@C        -1.20549000        -0.69599000        +0.00000000
@C        -1.20549000        +0.69599000        +0.00000000
@H        +0.00000000        +2.47223000        +0.00000000
@H        +2.14101000        +1.23612000        +0.00000000
@H        +2.14101000        -1.23612000        +0.00000000
@H        +0.00000000        -2.47223000        +0.00000000
@H        -2.14101000        -1.23612000        +0.00000000
@H        -2.14101000        +1.23612000        +0.00000000
$end

$rem
JOBTYPE                   SP
METHOD                    B3LYP
DFT_D                     d3_op
BASIS                     6-311++G(d,p)
SYMMETRY                  False
THRESH                    12
SCF_CONVERGENCE           8
MAX_SUB_FILE_NUM          128
MEM_STATIC                400
MEM_TOTAL                 4000
$end
--------------------------------------------------------------

             Standard Nuclear Orientation (Angstroms)
    I     Atom           X                Y                Z
 ----------------------------------------------------------------
    1      C       0.0000000000     1.3919800000     3.7000000000
    2      C       1.2054900000     0.6959900000     3.7000000000
    3      C       1.2054900000    -0.6959900000     3.7000000000
    4      C       0.0000000000    -1.3919800000     3.7000000000
    5      C      -1.2054900000    -0.6959900000     3.7000000000
    6      C      -1.2054900000     0.6959900000     3.7000000000
    7      H       0.0000000000     2.4722300000     3.7000000000
    8      H       2.1410100000     1.2361200000     3.7000000000
    9      H       2.1410100000    -1.2361200000     3.7000000000
   10      H       0.0000000000    -2.4722300000     3.7000000000
   11      H      -2.1410100000    -1.2361200000     3.7000000000
   12      H      -2.1410100000     1.2361200000     3.7000000000
   13      GH      0.0000000000     1.3919800000     0.0000000000
   14      GH      1.2054900000     0.6959900000     0.0000000000
   15      GH      1.2054900000    -0.6959900000     0.0000000000
   16      GH      0.0000000000    -1.3919800000     0.0000000000
   17      GH     -1.2054900000    -0.6959900000     0.0000000000
   18      GH     -1.2054900000     0.6959900000     0.0000000000
   19      GH      0.0000000000     2.4722300000     0.0000000000
   20      GH      2.1410100000     1.2361200000     0.0000000000
   21      GH      2.1410100000    -1.2361200000     0.0000000000
   22      GH      0.0000000000    -2.4722300000     0.0000000000
   23      GH     -2.1410100000    -1.2361200000     0.0000000000
   24      GH     -2.1410100000     1.2361200000     0.0000000000
 ----------------------------------------------------------------

   10    -232.3199822866      5.74E-09 Convergence criterion met
 Total energy in the final basis set = -232.31998229

                    Orbital Energies (a.u.)
 --------------------------------------------------------------

 Alpha MOs
 -- Occupied --
-10.178 -10.178 -10.178 -10.177 -10.177 -10.177  -0.861  -0.752
 -0.752  -0.609  -0.609  -0.531  -0.467  -0.454  -0.429  -0.428
 -0.374  -0.351  -0.351  -0.260  -0.260

          Ground-State Mulliken Net Atomic Charges

     Atom                 Charge (a.u.)
  ----------------------------------------
      1 C                    -0.170765
      2 C                    -0.168237
      3 C                    -0.168237
      4 C                    -0.170765
      5 C                    -0.168237
      6 C                    -0.168237
      7 H                     0.158556
      8 H                     0.158456
      9 H                     0.158456
     10 H                     0.158556
     11 H                     0.158456
     12 H                     0.158456
     13 GH                    0.005303
     14 GH                    0.007243
     15 GH                    0.007243
     16 GH                    0.005303
     17 GH                    0.007243
     18 GH                    0.007243
     19 GH                    0.003931
     20 GH                    0.004025
     21 GH                    0.004025
     22 GH                    0.003931
     23 GH                    0.004025
     24 GH                    0.004025
  ----------------------------------------
  Sum of atomic charges =    -0.000000

                    Cartesian Multipole Moments
 -----------------------------------------------------------------
    Charge (ESU x 10^10)
                -0.0000
    Dipole Moment (Debye)
         X       0.0000      Y      -0.0000      Z       0.0124
       Tot       0.0124
    Quadrupole Moments (Debye-Ang)
        XX     -32.2185     XY       0.0000     YY     -32.2227
        XZ       0.0000     YZ       0.0000     ZZ     -40.0960

 Total job time:  54.47s(wall), 216.32s(cpu)
        *  Thank you very much for using Q-Chem.  Have a nice day.  *
