 Q-Chem 5.0, Q-Chem, Inc., Pleasanton, CA (2017)
 Q-Chem 5.0.1 for Intel X86 EM64T Linux

User input:
--------------------------------------------------------------
$molecule
0  1
--
0  1
C        +0.00000000        +1.39198000        +0.00000000
C        +1.20549000        +0.69599000        +0.00000000
C        +1.20549000        -0.69599000        +0.00000000
C        +0.00000000        -1.39198000        +0.00000000
C        -1.20549000        -0.69599000        +0.00000000
C        -1.20549000        +0.69599000        +0.00000000
H        +0.00000000        +2.47223000        +0.00000000
H        +2.14101000        +1.23612000        +0.00000000
H        +2.14101000        -1.23612000        +0.00000000
H        +0.00000000        -2.47223000        +0.00000000
H        -2.14101000        -1.23612000        +0.00000000
H        -2.14101000        +1.23612000        +0.00000000
--
0  1
C        +0.00000000        +1.39198000        +3.50000000
C        +1.20549000        +0.69599000        +3.50000000
C        +1.20549000        -0.69599000        +3.50000000
C        +0.00000000        -1.39198000        +3.50000000
C        -1.20549000        -0.69599000        +3.50000000
C        -1.20549000        +0.69599000        +3.50000000
H        +0.00000000        +2.47223000        +3.50000000
H        +2.14101000        +1.23612000        +3.50000000
H        +2.14101000        -1.23612000        +3.50000000
H        +0.00000000        -2.47223000        +3.50000000
H        -2.14101000        -1.23612000        +3.50000000
H        -2.14101000        +1.23612000        +3.50000000
$end

$rem
JOBTYPE                   SP
METHOD                    B3LYP
DFT_D                     d3_op
BASIS                     6-311++G(d,p)
SYMMETRY                  False
THRESH                    12
SCF_CONVERGENCE           8
MAX_SUB_FILE_NUM          128
MEM_STATIC                400
MEM_TOTAL                 4000
$end
--------------------------------------------------------------

             Standard Nuclear Orientation (Angstroms)
    I     Atom           X                Y                Z
 ----------------------------------------------------------------
    1      C      -1.7500000000     1.3919800000     0.0000000000
    2      C      -1.7500000000     0.6959900000    -1.2054900000
    3      C      -1.7500000000    -0.6959900000    -1.2054900000
    4      C      -1.7500000000    -1.3919800000     0.0000000000
    5      C      -1.7500000000    -0.6959900000     1.2054900000
    6      C      -1.7500000000     0.6959900000     1.2054900000
    7      H      -1.7500000000     2.4722300000     0.0000000000
    8      H      -1.7500000000     1.2361200000    -2.1410100000
    9      H      -1.7500000000    -1.2361200000    -2.1410100000
   10      H      -1.7500000000    -2.4722300000     0.0000000000
   11      H      -1.7500000000    -1.2361200000     2.1410100000
   12      H      -1.7500000000     1.2361200000     2.1410100000
   13      C       1.7500000000     1.3919800000    -0.0000000000
   14      C       1.7500000000     0.6959900000    -1.2054900000
   15      C       1.7500000000    -0.6959900000    -1.2054900000
   16      C       1.7500000000    -1.3919800000    -0.0000000000
   17      C       1.7500000000    -0.6959900000     1.2054900000
   18      C       1.7500000000     0.6959900000     1.2054900000
   19      H       1.7500000000     2.4722300000    -0.0000000000
   20      H       1.7500000000     1.2361200000    -2.1410100000
   21      H       1.7500000000    -1.2361200000    -2.1410100000
   22      H       1.7500000000    -2.4722300000     0.0000000000
   23      H       1.7500000000    -1.2361200000     2.1410100000
   24      H       1.7500000000     1.2361200000     2.1410100000
 ----------------------------------------------------------------

   11    -464.6405973177      2.74E-10 Convergence criterion met
 Total energy in the final basis set = -464.64059732

             Orbital Energies (a.u.) and Symmetries
 --------------------------------------------------------------

 Alpha MOs, Restricted
 -- Occupied --
-10.171 -10.171 -10.171 -10.171 -10.171 -10.171 -10.171 -10.171
  1 Ag    1 B3u   1 B1g   1 B2u   1 B2g   1 B1u   2 B3u   2 Ag
-10.171 -10.171 -10.170 -10.170  -0.856  -0.853  -0.748  -0.748
  1 Au    1 B3g   2 B1g   2 B2u   3 Ag    3 B3u   2 B1u   3 B2u
 -0.744  -0.744  -0.605  -0.605  -0.602  -0.602  -0.527  -0.524
  2 B2g   3 B1g   2 B3g   4 Ag    2 Au    4 B3u   5 Ag    5 B3u
 -0.463  -0.460  -0.448  -0.447  -0.424  -0.424  -0.421  -0.421
  4 B2u   4 B1g   3 B1u   3 B2g   4 B1u   5 B2u   4 B2g   5 B1g
 -0.382  -0.351  -0.346  -0.346  -0.344  -0.344  -0.268  -0.268
  6 Ag    6 B3u   3 B3g   7 Ag    3 Au    7 B3u   6 B2u   5 B1u
 -0.239  -0.239
  6 B1g   5 B2g

 Beta MOs, Restricted
 -- Occupied --
-10.171 -10.171 -10.171 -10.171 -10.171 -10.171 -10.171 -10.171
  1 Ag    1 B3u   1 B1g   1 B2u   1 B2g   1 B1u   2 B3u   2 Ag
-10.171 -10.171 -10.170 -10.170  -0.856  -0.853  -0.748  -0.748
  1 Au    1 B3g   2 B1g   2 B2u   3 Ag    3 B3u   2 B1u   3 B2u
 -0.744  -0.744  -0.605  -0.605  -0.602  -0.602  -0.527  -0.524
  2 B2g   3 B1g   2 B3g   4 Ag    2 Au    4 B3u   5 Ag    5 B3u
 -0.463  -0.460  -0.448  -0.447  -0.424  -0.424  -0.421  -0.421
  4 B2u   4 B1g   3 B1u   3 B2g   4 B1u   5 B2u   4 B2g   5 B1g
 -0.382  -0.351  -0.346  -0.346  -0.344  -0.344  -0.268  -0.268
  6 Ag    6 B3u   3 B3g   7 Ag    3 Au    7 B3u   6 B2u   5 B1u
 -0.239  -0.239
  6 B1g   5 B2g

          Ground-State Mulliken Net Atomic Charges

     Atom                 Charge (a.u.)
  ----------------------------------------
      1 C                    -0.159592
      2 C                    -0.154251
      3 C                    -0.154251
      4 C                    -0.159592
      5 C                    -0.154251
      6 C                    -0.154251
      7 H                     0.156040
      8 H                     0.156027
      9 H                     0.156027
     10 H                     0.156040
     11 H                     0.156027
     12 H                     0.156027
     13 C                    -0.159592
     14 C                    -0.154251
     15 C                    -0.154251
     16 C                    -0.159592
     17 C                    -0.154251
     18 C                    -0.154251
     19 H                     0.156040
     20 H                     0.156027
     21 H                     0.156027
     22 H                     0.156040
     23 H                     0.156027
     24 H                     0.156027
  ----------------------------------------
  Sum of atomic charges =    -0.000000

                    Cartesian Multipole Moments
 -----------------------------------------------------------------
    Charge (ESU x 10^10)
                -0.0000
    Dipole Moment (Debye)
         X      -0.0000      Y      -0.0000      Z       0.0000
       Tot       0.0000
    Quadrupole Moments (Debye-Ang)
        XX     -82.1685     XY      -0.0000     YY     -64.9834
        XZ       0.0000     YZ       0.0000     ZZ     -64.9755

 Total job time:  73.55s(wall), 291.59s(cpu)
        *  Thank you very much for using Q-Chem.  Have a nice day.  *
