 Q-Chem 5.0, Q-Chem, Inc., Pleasanton, CA (2017)
 Q-Chem 5.0.1 for Intel X86 EM64T Linux

User input:
--------------------------------------------------------------
$molecule
0  1
--
0  1
C        +0.00000000        +1.39198000        +0.00000000
C        +1.20549000        +0.69599000        +0.00000000
C        +1.20549000        -0.69599000        +0.00000000
C        +0.00000000        -1.39198000        +0.00000000
C        -1.20549000        -0.69599000        +0.00000000
C        -1.20549000        +0.69599000        +0.00000000
H        +0.00000000        +2.47223000        +0.00000000
H        +2.14101000        +1.23612000        +0.00000000
H        +2.14101000        -1.23612000        +0.00000000
H        +0.00000000        -2.47223000        +0.00000000
H        -2.14101000        -1.23612000        +0.00000000
H        -2.14101000        +1.23612000        +0.00000000
--
0  1
C        +0.00000000        +1.39198000        +5.60000000
C        +1.20549000        +0.69599000        +5.60000000
C        +1.20549000        -0.69599000        +5.60000000
C        +0.00000000        -1.39198000        +5.60000000
C        -1.20549000        -0.69599000        +5.60000000
C        -1.20549000        +0.69599000        +5.60000000
H        +0.00000000        +2.47223000        +5.60000000
H        +2.14101000        +1.23612000        +5.60000000
H        +2.14101000        -1.23612000        +5.60000000
H        +0.00000000        -2.47223000        +5.60000000
H        -2.14101000        -1.23612000        +5.60000000
H        -2.14101000        +1.23612000        +5.60000000
$end

$rem
JOBTYPE                   SP
METHOD                    B3LYP
DFT_D                     d3_op
BASIS                     6-311++G(d,p)
SYMMETRY                  False
THRESH                    12
SCF_CONVERGENCE           8
MAX_SUB_FILE_NUM          128
MEM_STATIC                400
MEM_TOTAL                 4000
$end
--------------------------------------------------------------

             Standard Nuclear Orientation (Angstroms)
    I     Atom           X                Y                Z
 ----------------------------------------------------------------
    1      C      -2.8000000000     1.3919800000     0.0000000000
    2      C      -2.8000000000     0.6959900000    -1.2054900000
    3      C      -2.8000000000    -0.6959900000    -1.2054900000
    4      C      -2.8000000000    -1.3919800000     0.0000000000
    5      C      -2.8000000000    -0.6959900000     1.2054900000
    6      C      -2.8000000000     0.6959900000     1.2054900000
    7      H      -2.8000000000     2.4722300000     0.0000000000
    8      H      -2.8000000000     1.2361200000    -2.1410100000
    9      H      -2.8000000000    -1.2361200000    -2.1410100000
   10      H      -2.8000000000    -2.4722300000    -0.0000000000
   11      H      -2.8000000000    -1.2361200000     2.1410100000
   12      H      -2.8000000000     1.2361200000     2.1410100000
   13      C       2.8000000000     1.3919800000     0.0000000000
   14      C       2.8000000000     0.6959900000    -1.2054900000
   15      C       2.8000000000    -0.6959900000    -1.2054900000
   16      C       2.8000000000    -1.3919800000    -0.0000000000
   17      C       2.8000000000    -0.6959900000     1.2054900000
   18      C       2.8000000000     0.6959900000     1.2054900000
   19      H       2.8000000000     2.4722300000     0.0000000000
   20      H       2.8000000000     1.2361200000    -2.1410100000
   21      H       2.8000000000    -1.2361200000    -2.1410100000
   22      H       2.8000000000    -2.4722300000    -0.0000000000
   23      H       2.8000000000    -1.2361200000     2.1410100000
   24      H       2.8000000000     1.2361200000     2.1410100000
 ----------------------------------------------------------------

   10    -464.6390894183      6.63E-09 Convergence criterion met
 Total energy in the final basis set = -464.63908942

             Orbital Energies (a.u.) and Symmetries
 --------------------------------------------------------------

 Alpha MOs, Restricted
 -- Occupied --
-10.175 -10.175 -10.175 -10.175 -10.175 -10.175 -10.174 -10.174
  1 B3u   1 Ag    1 B1g   1 B2u   1 B2g   1 B1u   2 Ag    2 B3u
-10.174 -10.174 -10.174 -10.174  -0.858  -0.858  -0.749  -0.749
  1 B3g   1 Au    2 B2u   2 B1g   3 B3u   3 Ag    2 B1u   3 B2u
 -0.749  -0.749  -0.606  -0.606  -0.606  -0.606  -0.528  -0.528
  2 B2g   3 B1g   2 B3g   4 Ag    2 Au    4 B3u   5 Ag    5 B3u
 -0.464  -0.464  -0.451  -0.451  -0.426  -0.426  -0.426  -0.426
  4 B2u   4 B1g   3 B1u   3 B2g   4 B1u   5 B2u   4 B2g   5 B1g
 -0.371  -0.370  -0.348  -0.348  -0.348  -0.348  -0.258  -0.258
  6 Ag    6 B3u   3 B3g   7 Ag    3 Au    7 B3u   6 B2u   5 B1u
 -0.257  -0.256
  6 B1g   5 B2g

 Beta MOs, Restricted
 -- Occupied --
-10.175 -10.175 -10.175 -10.175 -10.175 -10.175 -10.174 -10.174
  1 B3u   1 Ag    1 B1g   1 B2u   1 B2g   1 B1u   2 Ag    2 B3u
-10.174 -10.174 -10.174 -10.174  -0.858  -0.858  -0.749  -0.749
  1 B3g   1 Au    2 B2u   2 B1g   3 B3u   3 Ag    2 B1u   3 B2u
 -0.749  -0.749  -0.606  -0.606  -0.606  -0.606  -0.528  -0.528
  2 B2g   3 B1g   2 B3g   4 Ag    2 Au    4 B3u   5 Ag    5 B3u
 -0.464  -0.464  -0.451  -0.451  -0.426  -0.426  -0.426  -0.426
  4 B2u   4 B1g   3 B1u   3 B2g   4 B1u   5 B2u   4 B2g   5 B1g
 -0.371  -0.370  -0.348  -0.348  -0.348  -0.348  -0.258  -0.258
  6 Ag    6 B3u   3 B3g   7 Ag    3 Au    7 B3u   6 B2u   5 B1u
 -0.257  -0.256
  6 B1g   5 B2g

          Ground-State Mulliken Net Atomic Charges

     Atom                 Charge (a.u.)
  ----------------------------------------
      1 C                    -0.157953
      2 C                    -0.155134
      3 C                    -0.155134
      4 C                    -0.157953
      5 C                    -0.155134
      6 C                    -0.155134
      7 H                     0.156132
      8 H                     0.156044
      9 H                     0.156044
     10 H                     0.156132
     11 H                     0.156044
     12 H                     0.156044
     13 C                    -0.157953
     14 C                    -0.155134
     15 C                    -0.155134
     16 C                    -0.157953
     17 C                    -0.155134
     18 C                    -0.155134
     19 H                     0.156132
     20 H                     0.156044
     21 H                     0.156044
     22 H                     0.156132
     23 H                     0.156044
     24 H                     0.156044
  ----------------------------------------
  Sum of atomic charges =    -0.000000

                    Cartesian Multipole Moments
 -----------------------------------------------------------------
    Charge (ESU x 10^10)
                -0.0000
    Dipole Moment (Debye)
         X       0.0000      Y      -0.0000      Z       0.0000
       Tot       0.0000
    Quadrupole Moments (Debye-Ang)
        XX     -81.3638     XY       0.0000     YY     -64.4170
        XZ       0.0000     YZ       0.0000     ZZ     -64.4087

 Total job time:  40.13s(wall), 158.78s(cpu)
        *  Thank you very much for using Q-Chem.  Have a nice day.  *
