 Q-Chem 5.0, Q-Chem, Inc., Pleasanton, CA (2017)
 Q-Chem 5.0.1 for Intel X86 EM64T Linux

User input:
--------------------------------------------------------------
$molecule
0  1
C        +0.00000000        +1.39198000        +5.40000000
C        +1.20549000        +0.69599000        +5.40000000
C        +1.20549000        -0.69599000        +5.40000000
C        +0.00000000        -1.39198000        +5.40000000
C        -1.20549000        -0.69599000        +5.40000000
C        -1.20549000        +0.69599000        +5.40000000
H        +0.00000000        +2.47223000        +5.40000000
H        +2.14101000        +1.23612000        +5.40000000
H        +2.14101000        -1.23612000        +5.40000000
H        +0.00000000        -2.47223000        +5.40000000
H        -2.14101000        -1.23612000        +5.40000000
H        -2.14101000        +1.23612000        +5.40000000
@C        +0.00000000        +1.39198000        +0.00000000
@C        +1.20549000        +0.69599000        +0.00000000
@C        +1.20549000        -0.69599000        +0.00000000
@C        +0.00000000        -1.39198000        +0.00000000
@C        -1.20549000        -0.69599000        +0.00000000
@C        -1.20549000        +0.69599000        +0.00000000
@H        +0.00000000        +2.47223000        +0.00000000
@H        +2.14101000        +1.23612000        +0.00000000
@H        +2.14101000        -1.23612000        +0.00000000
@H        +0.00000000        -2.47223000        +0.00000000
@H        -2.14101000        -1.23612000        +0.00000000
@H        -2.14101000        +1.23612000        +0.00000000
$end

$rem
JOBTYPE                   SP
METHOD                    B3LYP
DFT_D                     d3_op
BASIS                     6-311++G(d,p)
SYMMETRY                  False
THRESH                    12
SCF_CONVERGENCE           8
MAX_SUB_FILE_NUM          128
MEM_STATIC                400
MEM_TOTAL                 4000
$end
--------------------------------------------------------------

             Standard Nuclear Orientation (Angstroms)
    I     Atom           X                Y                Z
 ----------------------------------------------------------------
    1      C       0.0000000000     1.3919800000     5.4000000000
    2      C       1.2054900000     0.6959900000     5.4000000000
    3      C       1.2054900000    -0.6959900000     5.4000000000
    4      C       0.0000000000    -1.3919800000     5.4000000000
    5      C      -1.2054900000    -0.6959900000     5.4000000000
    6      C      -1.2054900000     0.6959900000     5.4000000000
    7      H       0.0000000000     2.4722300000     5.4000000000
    8      H       2.1410100000     1.2361200000     5.4000000000
    9      H       2.1410100000    -1.2361200000     5.4000000000
   10      H       0.0000000000    -2.4722300000     5.4000000000
   11      H      -2.1410100000    -1.2361200000     5.4000000000
   12      H      -2.1410100000     1.2361200000     5.4000000000
   13      GH      0.0000000000     1.3919800000     0.0000000000
   14      GH      1.2054900000     0.6959900000     0.0000000000
   15      GH      1.2054900000    -0.6959900000     0.0000000000
   16      GH      0.0000000000    -1.3919800000     0.0000000000
   17      GH     -1.2054900000    -0.6959900000     0.0000000000
   18      GH     -1.2054900000     0.6959900000     0.0000000000
   19      GH      0.0000000000     2.4722300000     0.0000000000
   20      GH      2.1410100000     1.2361200000     0.0000000000
   21      GH      2.1410100000    -1.2361200000     0.0000000000
   22      GH      0.0000000000    -2.4722300000     0.0000000000
   23      GH     -2.1410100000    -1.2361200000     0.0000000000
   24      GH     -2.1410100000     1.2361200000     0.0000000000
 ----------------------------------------------------------------

   10    -232.3194922143      4.46E-09 Convergence criterion met
 Total energy in the final basis set = -232.31949221

                    Orbital Energies (a.u.)
 --------------------------------------------------------------

 Alpha MOs
 -- Occupied --
-10.178 -10.178 -10.178 -10.177 -10.177 -10.177  -0.861  -0.752
 -0.752  -0.609  -0.609  -0.531  -0.467  -0.454  -0.429  -0.428
 -0.374  -0.351  -0.351  -0.260  -0.260

          Ground-State Mulliken Net Atomic Charges

     Atom                 Charge (a.u.)
  ----------------------------------------
      1 C                    -0.159414
      2 C                    -0.156816
      3 C                    -0.156816
      4 C                    -0.159414
      5 C                    -0.156816
      6 C                    -0.156816
      7 H                     0.158311
      8 H                     0.158178
      9 H                     0.158178
     10 H                     0.158311
     11 H                     0.158178
     12 H                     0.158178
     13 GH                   -0.000986
     14 GH                   -0.000686
     15 GH                   -0.000686
     16 GH                   -0.000986
     17 GH                   -0.000686
     18 GH                   -0.000686
     19 GH                    0.000212
     20 GH                    0.000262
     21 GH                    0.000262
     22 GH                    0.000212
     23 GH                    0.000262
     24 GH                    0.000262
  ----------------------------------------
  Sum of atomic charges =     0.000000

                    Cartesian Multipole Moments
 -----------------------------------------------------------------
    Charge (ESU x 10^10)
                 0.0000
    Dipole Moment (Debye)
         X      -0.0000      Y       0.0000      Z      -0.0013
       Tot       0.0013
    Quadrupole Moments (Debye-Ang)
        XX     -32.1419     XY       0.0000     YY     -32.1461
        XZ      -0.0000     YZ       0.0000     ZZ     -40.2556

 Total job time:  41.85s(wall), 166.01s(cpu)
        *  Thank you very much for using Q-Chem.  Have a nice day.  *
