 Q-Chem 5.0, Q-Chem, Inc., Pleasanton, CA (2017)
 Q-Chem 5.0.1 for Intel X86 EM64T Linux

User input:
--------------------------------------------------------------
$molecule
0  1
--
0  1
C        +0.00000000        +1.39198000        +0.00000000
C        +1.20549000        +0.69599000        +0.00000000
C        +1.20549000        -0.69599000        +0.00000000
C        +0.00000000        -1.39198000        +0.00000000
C        -1.20549000        -0.69599000        +0.00000000
C        -1.20549000        +0.69599000        +0.00000000
H        +0.00000000        +2.47223000        +0.00000000
H        +2.14101000        +1.23612000        +0.00000000
H        +2.14101000        -1.23612000        +0.00000000
H        +0.00000000        -2.47223000        +0.00000000
H        -2.14101000        -1.23612000        +0.00000000
H        -2.14101000        +1.23612000        +0.00000000
--
0  1
C        +0.00000000        +1.39198000        +3.70000000
C        +1.20549000        +0.69599000        +3.70000000
C        +1.20549000        -0.69599000        +3.70000000
C        +0.00000000        -1.39198000        +3.70000000
C        -1.20549000        -0.69599000        +3.70000000
C        -1.20549000        +0.69599000        +3.70000000
H        +0.00000000        +2.47223000        +3.70000000
H        +2.14101000        +1.23612000        +3.70000000
H        +2.14101000        -1.23612000        +3.70000000
H        +0.00000000        -2.47223000        +3.70000000
H        -2.14101000        -1.23612000        +3.70000000
H        -2.14101000        +1.23612000        +3.70000000
$end

$rem
JOBTYPE                   SP
METHOD                    B3LYP
DFT_D                     d3_op
BASIS                     6-311++G(d,p)
SYMMETRY                  False
THRESH                    12
SCF_CONVERGENCE           8
MAX_SUB_FILE_NUM          128
MEM_STATIC                400
MEM_TOTAL                 4000
$end
--------------------------------------------------------------

             Standard Nuclear Orientation (Angstroms)
    I     Atom           X                Y                Z
 ----------------------------------------------------------------
    1      C      -1.8500000000     1.3919800000     0.0000000000
    2      C      -1.8500000000     0.6959900000    -1.2054900000
    3      C      -1.8500000000    -0.6959900000    -1.2054900000
    4      C      -1.8500000000    -1.3919800000     0.0000000000
    5      C      -1.8500000000    -0.6959900000     1.2054900000
    6      C      -1.8500000000     0.6959900000     1.2054900000
    7      H      -1.8500000000     2.4722300000     0.0000000000
    8      H      -1.8500000000     1.2361200000    -2.1410100000
    9      H      -1.8500000000    -1.2361200000    -2.1410100000
   10      H      -1.8500000000    -2.4722300000     0.0000000000
   11      H      -1.8500000000    -1.2361200000     2.1410100000
   12      H      -1.8500000000     1.2361200000     2.1410100000
   13      C       1.8500000000     1.3919800000    -0.0000000000
   14      C       1.8500000000     0.6959900000    -1.2054900000
   15      C       1.8500000000    -0.6959900000    -1.2054900000
   16      C       1.8500000000    -1.3919800000    -0.0000000000
   17      C       1.8500000000    -0.6959900000     1.2054900000
   18      C       1.8500000000     0.6959900000     1.2054900000
   19      H       1.8500000000     2.4722300000    -0.0000000000
   20      H       1.8500000000     1.2361200000    -2.1410100000
   21      H       1.8500000000    -1.2361200000    -2.1410100000
   22      H       1.8500000000    -2.4722300000     0.0000000000
   23      H       1.8500000000    -1.2361200000     2.1410100000
   24      H       1.8500000000     1.2361200000     2.1410100000
 ----------------------------------------------------------------

   11    -464.6414517765      2.58E-10 Convergence criterion met
 Total energy in the final basis set = -464.64145178

             Orbital Energies (a.u.) and Symmetries
 --------------------------------------------------------------

 Alpha MOs, Restricted
 -- Occupied --
-10.172 -10.172 -10.172 -10.172 -10.172 -10.172 -10.171 -10.171
  1 Ag    1 B3u   1 B1g   1 B2u   1 B2g   1 B1u   2 B3u   2 Ag
-10.171 -10.171 -10.171 -10.171  -0.856  -0.854  -0.748  -0.748
  1 Au    1 B3g   2 B1g   2 B2u   3 Ag    3 B3u   2 B1u   3 B2u
 -0.745  -0.745  -0.604  -0.604  -0.603  -0.602  -0.527  -0.525
  2 B2g   3 B1g   2 B3g   4 Ag    2 Au    4 B3u   5 Ag    5 B3u
 -0.463  -0.461  -0.448  -0.448  -0.424  -0.424  -0.422  -0.422
  4 B2u   4 B1g   3 B1u   3 B2g   4 B1u   5 B2u   4 B2g   5 B1g
 -0.379  -0.356  -0.346  -0.346  -0.345  -0.345  -0.265  -0.264
  6 Ag    6 B3u   3 B3g   7 Ag    3 Au    7 B3u   6 B2u   5 B1u
 -0.243  -0.243
  6 B1g   5 B2g

 Beta MOs, Restricted
 -- Occupied --
-10.172 -10.172 -10.172 -10.172 -10.172 -10.172 -10.171 -10.171
  1 Ag    1 B3u   1 B1g   1 B2u   1 B2g   1 B1u   2 B3u   2 Ag
-10.171 -10.171 -10.171 -10.171  -0.856  -0.854  -0.748  -0.748
  1 Au    1 B3g   2 B1g   2 B2u   3 Ag    3 B3u   2 B1u   3 B2u
 -0.745  -0.745  -0.604  -0.604  -0.603  -0.602  -0.527  -0.525
  2 B2g   3 B1g   2 B3g   4 Ag    2 Au    4 B3u   5 Ag    5 B3u
 -0.463  -0.461  -0.448  -0.448  -0.424  -0.424  -0.422  -0.422
  4 B2u   4 B1g   3 B1u   3 B2g   4 B1u   5 B2u   4 B2g   5 B1g
 -0.379  -0.356  -0.346  -0.346  -0.345  -0.345  -0.265  -0.264
  6 Ag    6 B3u   3 B3g   7 Ag    3 Au    7 B3u   6 B2u   5 B1u
 -0.243  -0.243
  6 B1g   5 B2g

          Ground-State Mulliken Net Atomic Charges

     Atom                 Charge (a.u.)
  ----------------------------------------
      1 C                    -0.158854
      2 C                    -0.154211
      3 C                    -0.154211
      4 C                    -0.158854
      5 C                    -0.154211
      6 C                    -0.154211
      7 H                     0.155727
      8 H                     0.155775
      9 H                     0.155775
     10 H                     0.155727
     11 H                     0.155775
     12 H                     0.155775
     13 C                    -0.158854
     14 C                    -0.154211
     15 C                    -0.154211
     16 C                    -0.158854
     17 C                    -0.154211
     18 C                    -0.154211
     19 H                     0.155727
     20 H                     0.155775
     21 H                     0.155775
     22 H                     0.155727
     23 H                     0.155775
     24 H                     0.155775
  ----------------------------------------
  Sum of atomic charges =     0.000000

                    Cartesian Multipole Moments
 -----------------------------------------------------------------
    Charge (ESU x 10^10)
                 0.0000
    Dipole Moment (Debye)
         X       0.0000      Y       0.0000      Z       0.0000
       Tot       0.0000
    Quadrupole Moments (Debye-Ang)
        XX     -81.9701     XY      -0.0000     YY     -64.8826
        XZ      -0.0000     YZ       0.0000     ZZ     -64.8748

 Total job time:  61.57s(wall), 244.02s(cpu)
        *  Thank you very much for using Q-Chem.  Have a nice day.  *
