 Q-Chem 5.0, Q-Chem, Inc., Pleasanton, CA (2017)
 Q-Chem 5.0.1 for Intel X86 EM64T Linux

User input:
--------------------------------------------------------------
$molecule
0 1
C 0.06095410 0.63889407 0.66541820
C 0.48277495 -0.86993622 0.63542576
C -1.21236640 0.96953300 -0.07974992
C -0.57672910 -1.79733324 0.05763349
O -1.89295552 1.94400808 0.56651798
O -1.57370198 0.49406550 -1.12712895
O -1.69565778 -1.70368573 0.81955023
O -0.47777264 -2.54996139 -0.87409694
C -2.84048543 -2.43286643 0.34142279
C -3.09419266 2.40502652 -0.07886246
C 1.30218796 1.31178386 -0.03645511
C 2.47042136 1.28443544 0.98144602
C 2.87287353 -0.21170522 0.94955990
C 1.87020216 -0.79962198 -0.08446631
O 1.68992931 0.31220716 -0.98498711
H -0.04949190 1.00619769 1.68399376
H 0.61436345 -1.21341392 1.66476653
H -2.62529968 -3.50132953 0.29347541
H -3.78829474 1.57671084 -0.22769427
H 3.28038601 1.92374287 0.62458888
H 2.17251365 1.64066991 1.96948408
H 3.89104845 -0.33949122 0.57837195
H 2.80825065 -0.70472619 1.92187818
H -3.63235774 -2.23463132 1.06082799
H -3.12071951 -2.07404730 -0.65020725
H -2.86001219 2.85386401 -1.04555178
H -3.51948808 3.14611712 0.59428743
C 2.38138403 -2.01478744 -0.82721513
H 3.38026103 -1.80272038 -1.21606422
H 2.44881463 -2.87154044 -0.15122609
H 1.72047143 -2.28260065 -1.64719148
C 1.05874229 2.63886096 -0.72093520
H 1.98344478 2.98664571 -1.18577622
H 0.30025955 2.54285244 -1.50006303
H 0.72860973 3.38844648 0.00248013
$end

$rem
sym_ignore      true
jobtype         opt
method          b3lyp
basis           6-311++G(d,p)
dft_d           d3_op
mem_total       62000
MEM_STATIC      4000
ao2mo_disk      350000
max_scf_cycles  200
geom_opt_max_cycles 1000
geom_opt_tol_displacement 1
GEOM_OPT_TOL_GRADIENT       1
GEOM_OPT_TOL_ENERGY         1
$end

--------------------------------------------------------------

   15    -844.5291225056      4.19E-09 Convergence criterion met
 Total energy in the final basis set = -844.52912251
   10    -844.5291217419      8.86E-09 Convergence criterion met
 Total energy in the final basis set = -844.52912174
    9    -844.5291231334      3.90E-09 Convergence criterion met
 Total energy in the final basis set = -844.52912313
   10    -844.5291212487      5.22E-09 Convergence criterion met
 Total energy in the final basis set = -844.52912125
    9    -844.5291224862      7.50E-09 Convergence criterion met
 Total energy in the final basis set = -844.52912249
   10    -844.5291221596      9.03E-09 Convergence criterion met
 Total energy in the final basis set = -844.52912216
   10    -844.5291228251      5.88E-09 Convergence criterion met
 Total energy in the final basis set = -844.52912283
    8    -844.5291229147      3.89E-09 Convergence criterion met
    6    -844.5291227473      5.72E-09 Convergence criterion met
 Total energy in the final basis set = -844.52912275
    6    -844.5291228130      9.11E-09 Convergence criterion met
 Total energy in the final basis set = -844.52912281
    7    -844.5291227048      5.52E-09 Convergence criterion met
 Total energy in the final basis set = -844.52912270
    7    -844.5291228428      8.14E-09 Convergence criterion met
 Total energy in the final basis set = -844.52912284
    6    -844.5291227650      9.47E-09 Convergence criterion met
 Total energy in the final basis set = -844.52912277
    5    -844.5291227643      5.41E-09 Convergence criterion met
 Total energy in the final basis set = -844.52912276
 Final energy is   -844.529122764256
 **  OPTIMIZATION CONVERGED  **
 Total job time:  1439.74s(wall), 24034.08s(cpu)
        *  Thank you very much for using Q-Chem.  Have a nice day.  *

User input: 2 of 2

r0217.ten.osc.edu 10.25.156
Q-Chem Developer Version! Running on 10.25.156.*
                  Welcome to Q-Chem
     A Quantum Leap Into The Future Of Chemistry

 Q-Chem 5.0, Q-Chem, Inc., Pleasanton, CA (2017)

 Yihan Shao,  Zhengting Gan,  E. Epifanovsky,  A. T. B. Gilbert,  M. Wormit,
 J. Kussmann,  A. W. Lange,  A. Behn,  Jia Deng,  Xintian Feng,  D. Ghosh,
 M. Goldey,  P. R. Horn,  L. D. Jacobson,  I. Kaliman,  T. Kus,  A. Landau,
 Jie Liu,  E. I. Proynov,  R. M. Richard,  R. P. Steele,  E. J. Sundstrom,
 H. L. Woodcock III,  P. M. Zimmerman,  D. Zuev,  B. Albrecht,  E. Alguire,
 S. A. Baeppler,  Z. Benda,  Y. A. Bernard,  E. J. Berquist,  K. B. Bravaya,
 D. Casanova,  Chun-Min Chang,  Yunqing Chen,  A. Chien,  K. D. Closser,
 M. P. Coons,  S. Dasgupta,  M. Diedenhofen,  Hainam Do,  R. G. Edgar,
 Po-Tung Fang,  S. Fatehi,  Qingguo Feng,  Qinghui Ge,  A. Ghysels,
 J. Gomes,  J. Gonthier,  A. Gunina,  M. W. D. Hanson-Heine,
 P. H. P. Harbach,  A. W. Hauser,  J. E. Herr,  E. G. Hohenstein,
 Z. C. Holden,  Kerwin Hui,  T.-C. Jagau,  Hyunjun Ji,  B. Kaduk,
 K. Khistyaev,  Jaehoon Kim,  P. Klunzinger,  K. Koh,  D. Kosenkov,
 T. Kowalczyk,  C. M. Krauter,  A. Kunitsa,  Ka Un Lao,  A. Laurent,
 K. V. Lawler,  Joonho Lee,  D. Lefrancois,  S. Lehtola,  D. S. Levine,
 Yi-Pei Li,  You-Sheng Lin,  Fenglai Liu,  E. Livshits,  A. Luenser,
 P. Manohar,  E. Mansoor,  S. F. Manzer,  Shan-Ping Mao,  Yuezhi Mao,
 N. Mardirossian,  A. V. Marenich,  L. A. Martinez-Martinez,  S. A. Maurer,
 N. J. Mayhall,  S. C. McKenzie,  J.-M. Mewes,  A. F. Morrison,  K. Nanda,
 T. S. Nguyen-Beck,  R. Olivares-Amaya,  J. A. Parkhill,  T. M. Perrine,
 F. Plasser,  S. Prager,  A. Prociuk,  D. R. Rehn,  F. Rob,  M. Schneider,
 N. Sergueev,  S. M. Sharada,  S. Sharma,  D. W. Small,  T. Stauch,
 T. Stein,  Yu-Chuan Su,  A. J. W. Thom,  T. Tsuchimochi,  L. Vogt,
 O. Vydrov,  M. A. Watson,  J. Wenzel,  M. de Wergifosse,  T. A. Wesolowski,
 A. White,  J. Witte,  A. Yamada,  Jun Yang,  K. Yao,  S. Yeganeh,
 S. R. Yost,  Zhi-Qiang You,  A. Zech,  Igor Ying Zhang,  Xing Zhang,
 Yan Zhao,  Ying Zhu,  B. R. Brooks,  G. K. L. Chan,  C. J. Cramer,
 M. S. Gordon,  W. J. Hehre,  A. Klamt,  M. W. Schmidt,  C. D. Sherrill,
 D. G. Truhlar,  A. Aspuru-Guzik,  R. Baer,  A. T. Bell,  N. A. Besley,
 Jeng-Da Chai,  A. Dreuw,  B. D. Dunietz,  T. R. Furlani,  Chao-Ping Hsu,
 Yousung Jung,  Jing Kong,  D. S. Lambrecht,  WanZhen Liang,  C. Ochsenfeld,
 V. A. Rassolov,  L. V. Slipchenko,  J. E. Subotnik,  T. Van Voorhis,
 J. M. Herbert,  A. I. Krylov,  P. M. W. Gill,  M. Head-Gordon

 Contributors to earlier versions of Q-Chem not listed above:
 R. D. Adamson,  B. Austin,  J. Baker,  G. J. O. Beran,  K. Brandhorst,
 S. T. Brown,  E. F. C. Byrd,  A. K. Chakraborty,  C.-L. Cheng,
 Siu Hung Chien,  D. M. Chipman,  D. L. Crittenden,  H. Dachsel,
 R. A. DiStasio Jr.,  R. J. Doerksen,  A. D. Dutoi,  L. Fusti-Molnar,
 W. A. Goddard III,  A. Golubeva-Zadorozhnaya,  S. R. Gwaltney,  G. Hawkins,
 A. Heyden,  S. Hirata,  G. Kedziora,  F. J. Keil,  C. Kelley,  Jihan Kim,
 R. A. King,  R. Z. Khaliullin,  P. P. Korambath,  W. Kurlancheek,
 A. M. Lee,  M. S. Lee,  S. V. Levchenko,  Ching Yeh Lin,  D. Liotard,
 R. C. Lochan,  I. Lotan,  P. E. Maslen,  N. Nair,  D. P. O'Neill,
 D. Neuhauser,  E. Neuscamman,  C. M. Oana,  R. Olson,  B. Peters,
 R. Peverati,  P. A. Pieniazek,  Y. M. Rhee,  J. Ritchie,  M. A. Rohrdanz,
 E. Rosta,  N. J. Russ,  H. F. Schaefer III,  N. E. Schultz,  N. Shenvi,
 A. C. Simmonett,  A. Sodt,  D. Stuck,  K. S. Thanthiriwatte,  V. Vanovschi,
 Tao Wang,  A. Warshel,  C. F. Williams,  Q. Wu,  X. Xu,  W. Zhang

 Please cite Q-Chem as follows:
 Y. Shao et al., Mol. Phys. 113, 184-215 (2015)
 DOI: 10.1080/00268976.2014.952696

 Q-Chem 5.0.1 for Intel X86 EM64T Linux

 Parts of Q-Chem use Armadillo 5.200.1 (Boston Tea Smuggler).
 http://arma.sourceforge.net/

 Q-Chem begins on Sat Oct 14 17:51:22 2017

Host: r0217.ten.osc.edu
0

     Scratch files written to /tmp/pbstmp.1310469/00//
Processing $rem in /users/PAS0291/osu6415/.qchemrc.
molden_format             true
The previous job contains 0 fragments, simply inherited here

Checking the input file for inconsistencies... 	...done.

--------------------------------------------------------------
User input:
--------------------------------------------------------------

$molecule
read
$end

$rem
sym_ignore      true
scf_guess       read
jobtype         freq
method          b3lyp
basis           6-311++G(d,p)
dft_d           d3_op
mem_total       62000
MEM_STATIC      4000
ao2mo_disk      350000
max_scf_cycles  200
$end
--------------------------------------------------------------

             Standard Nuclear Orientation (Angstroms)
    I     Atom           X                Y                Z
 ----------------------------------------------------------------
    1      C       0.0611847370     0.6382807514     0.6660744235
    2      C       0.4826390792    -0.8705595984     0.6355640888
    3      C      -1.2132664258     0.9699023919    -0.0767730915
    4      C      -0.5762299163    -1.7974581840     0.0555141853
    5      O      -1.8914348113     1.9454775044     0.5703376088
    6      O      -1.5771992182     0.4944166170    -1.1232650578
    7      O      -1.6958452684    -1.7051359958     0.8165668993
    8      O      -0.4758223537    -2.5496120613    -0.8764511903
    9      C      -2.8401173112    -2.4336615662     0.3361150053
   10      C      -3.0933329139     2.4077281109    -0.0730131582
   11      C       1.3015211744     1.3111101606    -0.0380273415
   12      C       2.4702399759     1.2863352942     0.9791784681
   13      C       2.8721844971    -0.2099566547     0.9509930219
   14      C       1.8705750033    -0.8001506123    -0.0828577696
   15      O       1.6896546619     0.3102074758    -0.9851076547
   16      H      -0.0472617423     1.0055278460     1.6848854916
   17      H       0.6126441722    -1.2153709513     1.6646820600
   18      H      -2.6254270073    -3.5022596210     0.2885937926
   19      H      -3.7889900657     1.5803091619    -0.2195783959
   20      H       3.2802462721     1.9242954263     0.6199745204
   21      H       2.1730173968     1.6454586507     1.9663696515
   22      H       3.8906896654    -0.3387342375     0.5810623613
   23      H       2.8065223724    -0.7009175124     1.9242778930
   24      H      -3.6333367618    -2.2350078399     1.0539121137
   25      H      -3.1181308745    -2.0747023648    -0.6560802361
   26      H      -2.8604648317     2.8551677083    -1.0406662261
   27      H      -3.5160497619     3.1501334746     0.6002942307
   28      C       2.3830950085    -2.0160353123    -0.8236065794
   29      H       3.3840020575    -1.8057988906    -1.2081809635
   30      H       2.4460397231    -2.8731808178    -0.1476886279
   31      H       1.7250373264    -2.2823679306    -1.6463730972
   32      C       1.0567167103     2.6365628137    -0.7251866894
   33      H       1.9808361999     2.9836503060    -1.1916833778
   34      H       0.2974393163     2.5383137049    -1.5032281363
   35      H       0.7269916143     3.3876958125    -0.0031709828
 ----------------------------------------------------------------

    2    -844.5291227635      1.99E-09 Convergence criterion met
 Total energy in the final basis set = -844.52912276

                    Orbital Energies (a.u.)
 --------------------------------------------------------------

 Alpha MOs
 -- Occupied --
-19.176 -19.166 -19.125 -19.117 -19.111 -10.306 -10.303 -10.242
-10.236 -10.231 -10.223 -10.203 -10.203 -10.177 -10.175 -10.169
-10.154  -1.117  -1.108  -1.059  -1.029  -1.023  -0.830  -0.803
 -0.782  -0.749  -0.725  -0.720  -0.670  -0.642  -0.601  -0.581
 -0.563  -0.553  -0.526  -0.508  -0.501  -0.491  -0.488  -0.480
 -0.473  -0.470  -0.456  -0.439  -0.433  -0.422  -0.419  -0.411
 -0.405  -0.396  -0.392  -0.373  -0.369  -0.365  -0.358  -0.355
 -0.352  -0.346  -0.331  -0.323  -0.318  -0.308  -0.289  -0.274
 -0.269

          Ground-State Mulliken Net Atomic Charges

     Atom                 Charge (a.u.)
  ----------------------------------------
      1 C                     0.679016
      2 C                     0.422023
      3 C                    -1.524399
      4 C                    -0.512024
      5 O                     0.041149
      6 O                    -0.151102
      7 O                    -0.018451
      8 O                    -0.172240
      9 C                    -0.176503
     10 C                    -0.186418
     11 C                    -0.167848
     12 C                    -0.285220
     13 C                    -0.444831
     14 C                    -0.752549
     15 O                     0.039438
     16 H                     0.294850
     17 H                     0.260625
     18 H                     0.169630
     19 H                     0.162341
     20 H                     0.170268
     21 H                     0.140865
     22 H                     0.174794
     23 H                     0.139590
     24 H                     0.148891
     25 H                     0.190369
     26 H                     0.178473
     27 H                     0.154026
     28 C                    -0.026030
     29 H                     0.141385
     30 H                     0.160476
     31 H                     0.207846
     32 C                    -0.019270
     33 H                     0.177950
     34 H                     0.218566
     35 H                     0.164317
  ----------------------------------------
  Sum of atomic charges =    -0.000000

                    Cartesian Multipole Moments
 -----------------------------------------------------------------
    Charge (ESU x 10^10)
                -0.0000
    Dipole Moment (Debye)
         X      -0.7299      Y       1.9879      Z       3.5279
       Tot       4.1147
    Quadrupole Moments (Debye-Ang)
        XX     -89.3124     XY      -1.3347     YY     -97.6527
        XZ       1.3780     YZ      -4.6986     ZZ    -107.8967

 Frequency:        18.87                  38.32                  77.94
 Force Cnst:      0.0008                 0.0042                 0.0187
 Red. Mass:       3.8779                 4.8366                 5.2147
 IR Intens:        0.016                  0.816                  3.110
 Frequency:       100.56                 120.35                 147.31
 Force Cnst:      0.0215                 0.0155                 0.0370
 Red. Mass:       3.6019                 1.8119                 2.8942
 IR Intens:        1.949                  0.255                  1.872
 Frequency:       151.20                 153.08                 187.32
 Force Cnst:      0.0207                 0.0170                 0.0665
 Red. Mass:       1.5378                 1.2330                 3.2187
 IR Intens:        0.499                  0.234                  0.499
 Frequency:       205.63                 220.26                 226.41
 Force Cnst:      0.0283                 0.1219                 0.0836
 Red. Mass:       1.1360                 4.2665                 2.7682
 IR Intens:        0.691                  1.079                  5.167
 Frequency:       241.98                 247.86                 260.92
 Force Cnst:      0.0545                 0.0635                 0.1838
 Red. Mass:       1.5804                 1.7550                 4.5830
 IR Intens:        2.031                  1.211                  4.115
 Frequency:       282.03                 317.65                 324.98
 Force Cnst:      0.1689                 0.2378                 0.1485
 Red. Mass:       3.6043                 4.0005                 2.3863
 IR Intens:        0.990                  9.501                  1.979
 Frequency:       338.65                 365.82                 366.94
 Force Cnst:      0.2398                 0.2931                 0.3420
 Red. Mass:       3.5490                 3.7179                 4.3104
 IR Intens:        6.400                  8.069                  4.808
 Frequency:       422.36                 488.87                 571.05
 Force Cnst:      0.3061                 0.4724                 0.7449
 Red. Mass:       2.9126                 3.3550                 3.8772
 IR Intens:        3.982                 12.713                 11.518
 Frequency:       596.17                 613.10                 647.59
 Force Cnst:      0.9957                 0.8932                 1.1307
 Red. Mass:       4.7548                 4.0332                 4.5763
 IR Intens:        8.947                  3.864                  2.314
 Frequency:       674.68                 719.42                 754.27
 Force Cnst:      1.2855                 1.8159                 1.5544
 Red. Mass:       4.7931                 5.9551                 4.6371
 IR Intens:        0.879                  7.297                  2.888
 Frequency:       807.57                 825.83                 856.99
 Force Cnst:      1.2035                 1.0290                 1.4252
 Red. Mass:       3.1320                 2.5608                 3.2937
 IR Intens:        1.792                  8.000                  7.952
 Frequency:       861.61                 871.57                 887.44
 Force Cnst:      1.8208                 1.8173                 1.1519
 Red. Mass:       4.1628                 4.0605                 2.4826
 IR Intens:        5.116                 22.501                 18.990
 Frequency:       888.70                 911.17                 924.63
 Force Cnst:      1.1579                 1.1110                 1.3320
 Red. Mass:       2.4884                 2.2713                 2.6444
 IR Intens:        8.218                 11.302                 32.402
 Frequency:       967.36                 973.09                 986.77
 Force Cnst:      1.9298                 2.4953                 1.8606
 Red. Mass:       3.5002                 4.4726                 3.2432
 IR Intens:        6.650                  5.096                  4.747
 Frequency:      1012.30                1057.28                1065.67
 Force Cnst:      0.9534                 2.4510                 1.9759
 Red. Mass:       1.5790                 3.7215                 2.9531
 IR Intens:        1.779                 61.629                 55.188
 Frequency:      1110.34                1127.58                1135.40
 Force Cnst:      1.0855                 1.3146                 1.8853
 Red. Mass:       1.4945                 1.7549                 2.4822
 IR Intens:        7.294                 19.072                 23.418
 Frequency:      1165.31                1171.98                1173.03
 Force Cnst:      1.7466                 1.0626                 1.0800
 Red. Mass:       2.1831                 1.3130                 1.3321
 IR Intens:      119.391                  9.067                  9.899
 Frequency:      1180.74                1196.19                1204.66
 Force Cnst:      1.9556                 2.5127                 1.7265
 Red. Mass:       2.3809                 2.9805                 2.0193
 IR Intens:       56.457                368.247                 10.406
 Frequency:      1209.74                1211.92                1221.39
 Force Cnst:      1.3230                 1.5824                 1.5882
 Red. Mass:       1.5343                 1.8285                 1.8070
 IR Intens:       13.955                157.893                 20.838
 Frequency:      1245.87                1258.65                1262.60
 Force Cnst:      2.0174                 1.2668                 1.3761
 Red. Mass:       2.2059                 1.3572                 1.4651
 IR Intens:       38.301                  4.290                 22.840
 Frequency:      1285.92                1328.95                1342.15
 Force Cnst:      1.6693                 1.6329                 2.4376
 Red. Mass:       1.7134                 1.5692                 2.2967
 IR Intens:        8.494                  1.917                  5.124
 Frequency:      1371.12                1393.61                1414.09
 Force Cnst:      1.7218                 1.8085                 1.6326
 Red. Mass:       1.5545                 1.5805                 1.3857
 IR Intens:      109.633                 31.582                 24.840
 Frequency:      1427.76                1467.43                1468.89
 Force Cnst:      1.5899                 1.5036                 1.5256
 Red. Mass:       1.3238                 1.1851                 1.2001
 IR Intens:       12.770                 15.737                 11.985
 Frequency:      1480.61                1483.82                1484.70
 Force Cnst:      1.3699                 1.3574                 1.3571
 Red. Mass:       1.0606                 1.0464                 1.0449
 IR Intens:        5.457                  7.849                 10.552
 Frequency:      1488.52                1494.85                1496.36
 Force Cnst:      1.3900                 1.3956                 1.3830
 Red. Mass:       1.0648                 1.0600                 1.0483
 IR Intens:        4.571                  0.983                  7.557
 Frequency:      1499.62                1501.93                1504.63
 Force Cnst:      1.3850                 1.3975                 1.3993
 Red. Mass:       1.0453                 1.0515                 1.0491
 IR Intens:       13.509                  5.169                 14.106
 Frequency:      1512.78                1790.69                1811.55
 Force Cnst:      1.4820                20.8418                22.1317
 Red. Mass:       1.0992                11.0317                11.4463
 IR Intens:        7.551                 90.851                318.856
 Frequency:      3040.38                3042.15                3048.59
 Force Cnst:      5.6367                 5.6744                 5.6364
 Red. Mass:       1.0350                 1.0407                 1.0293
 IR Intens:       12.979                 17.287                 29.802
 Frequency:      3049.45                3052.57                3060.33
 Force Cnst:      5.6423                 5.8227                 5.9073
 Red. Mass:       1.0298                 1.0606                 1.0705
 IR Intens:       40.251                 31.512                 21.969
 Frequency:      3066.63                3089.64                3099.35
 Force Cnst:      5.9355                 6.2254                 6.2383
 Red. Mass:       1.0712                 1.1069                 1.1022
 IR Intens:       29.582                  0.264                 11.854
 Frequency:      3107.63                3110.34                3114.64
 Force Cnst:      6.2799                 6.2748                 6.3027
 Red. Mass:       1.1037                 1.1009                 1.1027
 IR Intens:       19.309                 24.216                 21.916
 Frequency:      3118.10                3122.33                3123.22
 Force Cnst:      6.2371                 6.3580                 6.3635
 Red. Mass:       1.0888                 1.1069                 1.1072
 IR Intens:       25.641                 21.522                 13.068
 Frequency:      3152.46                3156.57                3164.07
 Force Cnst:      6.4784                 6.4936                 6.4692
 Red. Mass:       1.1064                 1.1061                 1.0968
 IR Intens:       14.085                 14.371                  2.288

 STANDARD THERMODYNAMIC QUANTITIES AT   298.15 K  AND     1.00 ATM

   This Molecule has  0 Imaginary Frequencies
   Zero point vibrational energy:      183.590 kcal/mol

   Atom    1 Element C  Has Mass   12.00000
   Atom    2 Element C  Has Mass   12.00000
   Atom    3 Element C  Has Mass   12.00000
   Atom    4 Element C  Has Mass   12.00000
   Atom    5 Element O  Has Mass   15.99491
   Atom    6 Element O  Has Mass   15.99491
   Atom    7 Element O  Has Mass   15.99491
   Atom    8 Element O  Has Mass   15.99491
   Atom    9 Element C  Has Mass   12.00000
   Atom   10 Element C  Has Mass   12.00000
   Atom   11 Element C  Has Mass   12.00000
   Atom   12 Element C  Has Mass   12.00000
   Atom   13 Element C  Has Mass   12.00000
   Atom   14 Element C  Has Mass   12.00000
   Atom   15 Element O  Has Mass   15.99491
   Atom   16 Element H  Has Mass    1.00783
   Atom   17 Element H  Has Mass    1.00783
   Atom   18 Element H  Has Mass    1.00783
   Atom   19 Element H  Has Mass    1.00783
   Atom   20 Element H  Has Mass    1.00783
   Atom   21 Element H  Has Mass    1.00783
   Atom   22 Element H  Has Mass    1.00783
   Atom   23 Element H  Has Mass    1.00783
   Atom   24 Element H  Has Mass    1.00783
   Atom   25 Element H  Has Mass    1.00783
   Atom   26 Element H  Has Mass    1.00783
   Atom   27 Element H  Has Mass    1.00783
   Atom   28 Element C  Has Mass   12.00000
   Atom   29 Element H  Has Mass    1.00783
   Atom   30 Element H  Has Mass    1.00783
   Atom   31 Element H  Has Mass    1.00783
   Atom   32 Element C  Has Mass   12.00000
   Atom   33 Element H  Has Mass    1.00783
   Atom   34 Element H  Has Mass    1.00783
   Atom   35 Element H  Has Mass    1.00783
   Molecular Mass:   242.115490 amu
   Principal axes and moments of inertia in amu*Bohr^2:
                             1           2           3
    Eigenvalues --     2982.54384  3612.15675  5613.74973
          X               0.99965     0.02576     0.00569
          Y              -0.02566     0.99952    -0.01753
          Z              -0.00614     0.01737     0.99983
   Rotational Symmetry Number is   1
   The Molecule is an Asymmetric Top
   Translational Enthalpy:        0.889 kcal/mol
   Rotational Enthalpy:           0.889 kcal/mol
   Vibrational Enthalpy:        192.658 kcal/mol
   gas constant (RT):             0.592 kcal/mol
   Translational Entropy:        42.354  cal/mol.K
   Rotational Entropy:           32.469  cal/mol.K
   Vibrational Entropy:          58.623  cal/mol.K

   Total Enthalpy:              195.028 kcal/mol
   Total Entropy:               133.446  cal/mol.K

 Total job time:  10732.52s(wall), 40769.51s(cpu)
        *  Thank you very much for using Q-Chem.  Have a nice day.  *
