 Q-Chem 5.0, Q-Chem, Inc., Pleasanton, CA (2017)
 Q-Chem 5.0.1 for Intel X86 EM64T Linux

User input:
--------------------------------------------------------------
$molecule
0 1
C 0.20687017 0.94764158 0.60335512
C 0.36803923 -0.58942025 0.87405820
C -1.17677192 1.35828848 0.12796977
C -0.73472734 -1.49987478 0.37415282
O -2.09232920 0.91539642 1.02592973
O -1.47058707 2.01654936 -0.83519300
O -1.18044053 -1.14631426 -0.84504633
O -1.13088902 -2.46935965 0.97601087
C -2.21120581 -1.96724284 -1.41998004
C -3.47038840 1.17019730 0.70349117
C 1.44115178 1.24842022 -0.31478505
C 2.68196892 1.27718216 0.62113014
C 2.85153848 -0.22204941 0.97569995
C 1.72463444 -0.87478231 0.13158301
O 1.63235198 -0.00331452 -1.00306579
H 0.32431116 1.47595850 1.55418084
H 0.45626022 -0.80480180 1.93712411
H -3.07305112 -2.02240823 -0.75289587
H -3.72262934 0.71654730 -0.25659435
H 3.54255792 1.64865368 0.06229038
H 2.54176496 1.92220981 1.49124491
H 3.82303363 -0.60247268 0.65440681
H 2.74459557 -0.43745592 2.04083364
H -2.47642375 -1.48084202 -2.35590798
H -1.83685761 -2.97562738 -1.60376132
H -3.66298064 2.24293265 0.65414700
H -4.04527638 0.71325844 1.50596447
C 1.97510868 -2.30308710 -0.29892054
H 2.93981109 -2.37151077 -0.80591095
H 1.98646084 -2.96646389 0.56899339
H 1.20198798 -2.64975929 -0.98702830
C 1.37112513 2.39297796 -1.30194320
H 2.33199221 2.48187957 -1.81429008
H 0.58141697 2.23427051 -2.03143289
H 1.16584984 3.33275115 -0.78312920
$end

$rem
sym_ignore      true
jobtype         opt
method          b3lyp
basis           6-311++G(d,p)
dft_d           d3_op
mem_total       62000
MEM_STATIC      4000
ao2mo_disk      350000
max_scf_cycles  200
geom_opt_max_cycles 1000
geom_opt_tol_displacement 1
GEOM_OPT_TOL_GRADIENT       1
GEOM_OPT_TOL_ENERGY         1
$end

--------------------------------------------------------------

   15    -844.5292216587      3.23E-09 Convergence criterion met
 Total energy in the final basis set = -844.52922166
    9    -844.5292224777      9.38E-09 Convergence criterion met
 Total energy in the final basis set = -844.52922248
   10    -844.5292255897      8.56E-09 Convergence criterion met
 Total energy in the final basis set = -844.52922559
   11    -844.5292217242      3.86E-09 Convergence criterion met
 Total energy in the final basis set = -844.52922172
    9    -844.5292213023      9.34E-09 Convergence criterion met
 Total energy in the final basis set = -844.52922130
   10    -844.5292235974      5.13E-09 Convergence criterion met
 Total energy in the final basis set = -844.52922360
    9    -844.5292245567      8.90E-09 Convergence criterion met
 Total energy in the final basis set = -844.52922456
    9    -844.5292234661      4.80E-09 Convergence criterion met
    8    -844.5292237890      4.28E-09 Convergence criterion met
 Total energy in the final basis set = -844.52922379
    8    -844.5292237068      6.25E-09 Convergence criterion met
 Total energy in the final basis set = -844.52922371
    8    -844.5292235752      6.49E-09 Convergence criterion met
 Total energy in the final basis set = -844.52922358
    6    -844.5292235063      5.59E-09 Convergence criterion met
 Total energy in the final basis set = -844.52922351
    5    -844.5292235221      9.71E-09 Convergence criterion met
 Total energy in the final basis set = -844.52922352
    5    -844.5292235224      5.71E-09 Convergence criterion met
 Total energy in the final basis set = -844.52922352
 Final energy is   -844.529223522419
 **  OPTIMIZATION CONVERGED  **
 Total job time:  930.87s(wall), 15708.44s(cpu)
        *  Thank you very much for using Q-Chem.  Have a nice day.  *

User input: 2 of 2

r0213.ten.osc.edu 10.25.156
Q-Chem Developer Version! Running on 10.25.156.*
                  Welcome to Q-Chem
     A Quantum Leap Into The Future Of Chemistry

 Q-Chem 5.0, Q-Chem, Inc., Pleasanton, CA (2017)

 Yihan Shao,  Zhengting Gan,  E. Epifanovsky,  A. T. B. Gilbert,  M. Wormit,
 J. Kussmann,  A. W. Lange,  A. Behn,  Jia Deng,  Xintian Feng,  D. Ghosh,
 M. Goldey,  P. R. Horn,  L. D. Jacobson,  I. Kaliman,  T. Kus,  A. Landau,
 Jie Liu,  E. I. Proynov,  R. M. Richard,  R. P. Steele,  E. J. Sundstrom,
 H. L. Woodcock III,  P. M. Zimmerman,  D. Zuev,  B. Albrecht,  E. Alguire,
 S. A. Baeppler,  Z. Benda,  Y. A. Bernard,  E. J. Berquist,  K. B. Bravaya,
 D. Casanova,  Chun-Min Chang,  Yunqing Chen,  A. Chien,  K. D. Closser,
 M. P. Coons,  S. Dasgupta,  M. Diedenhofen,  Hainam Do,  R. G. Edgar,
 Po-Tung Fang,  S. Fatehi,  Qingguo Feng,  Qinghui Ge,  A. Ghysels,
 J. Gomes,  J. Gonthier,  A. Gunina,  M. W. D. Hanson-Heine,
 P. H. P. Harbach,  A. W. Hauser,  J. E. Herr,  E. G. Hohenstein,
 Z. C. Holden,  Kerwin Hui,  T.-C. Jagau,  Hyunjun Ji,  B. Kaduk,
 K. Khistyaev,  Jaehoon Kim,  P. Klunzinger,  K. Koh,  D. Kosenkov,
 T. Kowalczyk,  C. M. Krauter,  A. Kunitsa,  Ka Un Lao,  A. Laurent,
 K. V. Lawler,  Joonho Lee,  D. Lefrancois,  S. Lehtola,  D. S. Levine,
 Yi-Pei Li,  You-Sheng Lin,  Fenglai Liu,  E. Livshits,  A. Luenser,
 P. Manohar,  E. Mansoor,  S. F. Manzer,  Shan-Ping Mao,  Yuezhi Mao,
 N. Mardirossian,  A. V. Marenich,  L. A. Martinez-Martinez,  S. A. Maurer,
 N. J. Mayhall,  S. C. McKenzie,  J.-M. Mewes,  A. F. Morrison,  K. Nanda,
 T. S. Nguyen-Beck,  R. Olivares-Amaya,  J. A. Parkhill,  T. M. Perrine,
 F. Plasser,  S. Prager,  A. Prociuk,  D. R. Rehn,  F. Rob,  M. Schneider,
 N. Sergueev,  S. M. Sharada,  S. Sharma,  D. W. Small,  T. Stauch,
 T. Stein,  Yu-Chuan Su,  A. J. W. Thom,  T. Tsuchimochi,  L. Vogt,
 O. Vydrov,  M. A. Watson,  J. Wenzel,  M. de Wergifosse,  T. A. Wesolowski,
 A. White,  J. Witte,  A. Yamada,  Jun Yang,  K. Yao,  S. Yeganeh,
 S. R. Yost,  Zhi-Qiang You,  A. Zech,  Igor Ying Zhang,  Xing Zhang,
 Yan Zhao,  Ying Zhu,  B. R. Brooks,  G. K. L. Chan,  C. J. Cramer,
 M. S. Gordon,  W. J. Hehre,  A. Klamt,  M. W. Schmidt,  C. D. Sherrill,
 D. G. Truhlar,  A. Aspuru-Guzik,  R. Baer,  A. T. Bell,  N. A. Besley,
 Jeng-Da Chai,  A. Dreuw,  B. D. Dunietz,  T. R. Furlani,  Chao-Ping Hsu,
 Yousung Jung,  Jing Kong,  D. S. Lambrecht,  WanZhen Liang,  C. Ochsenfeld,
 V. A. Rassolov,  L. V. Slipchenko,  J. E. Subotnik,  T. Van Voorhis,
 J. M. Herbert,  A. I. Krylov,  P. M. W. Gill,  M. Head-Gordon

 Contributors to earlier versions of Q-Chem not listed above:
 R. D. Adamson,  B. Austin,  J. Baker,  G. J. O. Beran,  K. Brandhorst,
 S. T. Brown,  E. F. C. Byrd,  A. K. Chakraborty,  C.-L. Cheng,
 Siu Hung Chien,  D. M. Chipman,  D. L. Crittenden,  H. Dachsel,
 R. A. DiStasio Jr.,  R. J. Doerksen,  A. D. Dutoi,  L. Fusti-Molnar,
 W. A. Goddard III,  A. Golubeva-Zadorozhnaya,  S. R. Gwaltney,  G. Hawkins,
 A. Heyden,  S. Hirata,  G. Kedziora,  F. J. Keil,  C. Kelley,  Jihan Kim,
 R. A. King,  R. Z. Khaliullin,  P. P. Korambath,  W. Kurlancheek,
 A. M. Lee,  M. S. Lee,  S. V. Levchenko,  Ching Yeh Lin,  D. Liotard,
 R. C. Lochan,  I. Lotan,  P. E. Maslen,  N. Nair,  D. P. O'Neill,
 D. Neuhauser,  E. Neuscamman,  C. M. Oana,  R. Olson,  B. Peters,
 R. Peverati,  P. A. Pieniazek,  Y. M. Rhee,  J. Ritchie,  M. A. Rohrdanz,
 E. Rosta,  N. J. Russ,  H. F. Schaefer III,  N. E. Schultz,  N. Shenvi,
 A. C. Simmonett,  A. Sodt,  D. Stuck,  K. S. Thanthiriwatte,  V. Vanovschi,
 Tao Wang,  A. Warshel,  C. F. Williams,  Q. Wu,  X. Xu,  W. Zhang

 Please cite Q-Chem as follows:
 Y. Shao et al., Mol. Phys. 113, 184-215 (2015)
 DOI: 10.1080/00268976.2014.952696

 Q-Chem 5.0.1 for Intel X86 EM64T Linux

 Parts of Q-Chem use Armadillo 5.200.1 (Boston Tea Smuggler).
 http://arma.sourceforge.net/

 Q-Chem begins on Sat Oct 14 17:42:53 2017

Host: r0213.ten.osc.edu
0

     Scratch files written to /tmp/pbstmp.1310471/02//
Processing $rem in /users/PAS0291/osu6415/.qchemrc.
molden_format             true
The previous job contains 0 fragments, simply inherited here

Checking the input file for inconsistencies... 	...done.

--------------------------------------------------------------
User input:
--------------------------------------------------------------

$molecule
read
$end

$rem
sym_ignore      true
scf_guess       read
jobtype         freq
method          b3lyp
basis           6-311++G(d,p)
dft_d           d3_op
mem_total       62000
MEM_STATIC      4000
ao2mo_disk      350000
max_scf_cycles  200
$end
--------------------------------------------------------------

             Standard Nuclear Orientation (Angstroms)
    I     Atom           X                Y                Z
 ----------------------------------------------------------------
    1      C       0.2063520274     0.9493119529     0.6040254344
    2      C       0.3702018330    -0.5882050555     0.8740207968
    3      C      -1.1760564542     1.3553137528     0.1206888151
    4      C      -0.7354197650    -1.4995160212     0.3821711089
    5      O      -2.0935026014     0.9235630436     1.0222027599
    6      O      -1.4682680981     1.9986124803    -0.8529083280
    7      O      -1.1800966914    -1.1547947465    -0.8399271626
    8      O      -1.1356274013    -2.4617703098     0.9928065248
    9      C      -2.2134958480    -1.9771389750    -1.4079708330
   10      C      -3.4708952365     1.1727447947     0.6926094249
   11      C       1.4423375905     1.2523139395    -0.3104016931
   12      C       2.6822946510     1.2754777568     0.6272058222
   13      C       2.8542275482    -0.2261279773     0.9702288498
   14      C       1.7241493988    -0.8730226852     0.1264535659
   15      O       1.6316776216     0.0033307504    -1.0043601005
   16      H       0.3187082212     1.4774237621     1.5554166718
   17      H       0.4636073111    -0.8019998272     1.9369575673
   18      H      -3.0746119887    -2.0259513475    -0.7394619316
   19      H      -3.7191737187     0.7092263177    -0.2637723253
   20      H       3.5430480883     1.6535067495     0.0731101503
   21      H       2.5393499422     1.9127740816     1.5025653442
   22      H       3.8242185944    -0.6038974584     0.6412525758
   23      H       2.7527410410    -0.4493278889     2.0342944266
   24      H      -2.4786985287    -1.4965277343    -2.3468716670
   25      H      -1.8416827326    -2.9876553177    -1.5852475904
   26      H      -3.6650023239     2.2446478799     0.6317440738
   27      H      -4.0477589895     0.7230954000     1.4977508161
   28      C       1.9707899904    -2.3001056909    -0.3104829934
   29      H       2.9319203408    -2.3670973041    -0.8244016248
   30      H       1.9882741619    -2.9663606568     0.5551609794
   31      H       1.1927909682    -2.6440036400    -0.9944251572
   32      C       1.3757190621     2.4017747570    -1.2922897047
   33      H       2.3379482404     2.4922968384    -1.8017710358
   34      H       0.5877889676     2.2471712835    -2.0244817741
   35      H       1.1704178482     3.3392450855    -0.7692103466
 ----------------------------------------------------------------

    2    -844.5292235231      3.94E-09 Convergence criterion met
 Total energy in the final basis set = -844.52922352

                    Orbital Energies (a.u.)
 --------------------------------------------------------------

 Alpha MOs
 -- Occupied --
-19.173 -19.173 -19.126 -19.118 -19.115 -10.309 -10.305 -10.243
-10.238 -10.231 -10.230 -10.206 -10.203 -10.178 -10.176 -10.169
-10.157  -1.119  -1.112  -1.060  -1.030  -1.027  -0.832  -0.804
 -0.785  -0.747  -0.728  -0.722  -0.675  -0.644  -0.603  -0.581
 -0.569  -0.558  -0.522  -0.513  -0.508  -0.492  -0.486  -0.478
 -0.475  -0.471  -0.459  -0.442  -0.434  -0.429  -0.416  -0.410
 -0.406  -0.399  -0.396  -0.373  -0.372  -0.367  -0.360  -0.355
 -0.352  -0.347  -0.332  -0.330  -0.318  -0.314  -0.287  -0.277
 -0.272

          Ground-State Mulliken Net Atomic Charges

     Atom                 Charge (a.u.)
  ----------------------------------------
      1 C                     0.434083
      2 C                     0.735209
      3 C                    -0.772208
      4 C                    -1.136522
      5 O                     0.012515
      6 O                    -0.166188
      7 O                    -0.012177
      8 O                    -0.130501
      9 C                    -0.202386
     10 C                    -0.173919
     11 C                    -0.555598
     12 C                    -0.481961
     13 C                    -0.341982
     14 C                    -0.433902
     15 O                     0.036962
     16 H                     0.267817
     17 H                     0.285309
     18 H                     0.187643
     19 H                     0.174236
     20 H                     0.174888
     21 H                     0.138128
     22 H                     0.175026
     23 H                     0.139636
     24 H                     0.175519
     25 H                     0.174495
     26 H                     0.172713
     27 H                     0.164478
     28 C                    -0.033066
     29 H                     0.172105
     30 H                     0.172067
     31 H                     0.184915
     32 C                    -0.040737
     33 H                     0.140303
     34 H                     0.200104
     35 H                     0.163000
  ----------------------------------------
  Sum of atomic charges =     0.000000

                    Cartesian Multipole Moments
 -----------------------------------------------------------------
    Charge (ESU x 10^10)
                 0.0000
    Dipole Moment (Debye)
         X       0.0734      Y       0.5317      Z       1.0386
       Tot       1.1691
    Quadrupole Moments (Debye-Ang)
        XX     -89.8600     XY      -0.1140     YY    -106.0988
        XZ       4.5705     YZ       9.7571     ZZ    -104.6954

 Frequency:        29.60                  63.76                  77.87
 Force Cnst:      0.0021                 0.0141                 0.0153
 Red. Mass:       3.9870                 5.8727                 4.2706
 IR Intens:        0.111                  2.770                  1.135
 Frequency:        88.25                 110.89                 136.05
 Force Cnst:      0.0213                 0.0219                 0.0411
 Red. Mass:       4.6504                 3.0285                 3.7656
 IR Intens:        0.362                  1.345                  2.075
 Frequency:       149.65                 166.05                 170.90
 Force Cnst:      0.0151                 0.0180                 0.0434
 Red. Mass:       1.1413                 1.1077                 2.5232
 IR Intens:        0.131                  0.113                  2.152
 Frequency:       197.91                 220.34                 225.46
 Force Cnst:      0.0288                 0.0505                 0.0540
 Red. Mass:       1.2499                 1.7661                 1.8027
 IR Intens:        0.346                  3.129                  1.167
 Frequency:       233.05                 245.57                 261.10
 Force Cnst:      0.0712                 0.0975                 0.1420
 Red. Mass:       2.2258                 2.7427                 3.5357
 IR Intens:        1.558                  3.255                  1.341
 Frequency:       287.09                 315.33                 318.80
 Force Cnst:      0.2103                 0.2196                 0.1566
 Red. Mass:       4.3302                 3.7486                 2.6146
 IR Intens:        2.547                  8.034                  0.807
 Frequency:       338.35                 363.42                 375.47
 Force Cnst:      0.2419                 0.2783                 0.4476
 Red. Mass:       3.5867                 3.5760                 5.3890
 IR Intens:        2.427                  1.399                 15.789
 Frequency:       418.53                 491.55                 570.28
 Force Cnst:      0.3293                 0.4893                 0.7215
 Red. Mass:       3.1907                 3.4370                 3.7657
 IR Intens:        1.541                 11.860                 10.416
 Frequency:       594.18                 612.54                 648.22
 Force Cnst:      1.0144                 0.8653                 1.0709
 Red. Mass:       4.8766                 3.9142                 4.3256
 IR Intens:        9.362                  4.698                  2.918
 Frequency:       667.38                 712.90                 757.07
 Force Cnst:      1.2799                 1.6895                 1.6507
 Red. Mass:       4.8773                 5.6422                 4.8883
 IR Intens:        0.670                  4.530                  2.806
 Frequency:       803.21                 835.29                 840.82
 Force Cnst:      1.1556                 1.3359                 1.0885
 Red. Mass:       3.0403                 3.2497                 2.6132
 IR Intens:        1.920                 20.533                  3.856
 Frequency:       863.50                 873.70                 883.18
 Force Cnst:      1.8689                 2.0876                 1.4048
 Red. Mass:       4.2542                 4.6416                 3.0569
 IR Intens:        5.576                 11.184                  9.054
 Frequency:       888.22                 902.99                 925.90
 Force Cnst:      1.0879                 1.0623                 1.1591
 Red. Mass:       2.3405                 2.2111                 2.2948
 IR Intens:       15.583                 14.768                 20.152
 Frequency:       937.28                 979.00                 998.82
 Force Cnst:      1.7732                 1.5037                 1.8070
 Red. Mass:       3.4258                 2.6628                 3.0742
 IR Intens:       18.284                  0.577                  3.753
 Frequency:      1008.97                1054.86                1063.74
 Force Cnst:      0.9627                 2.3645                 3.3762
 Red. Mass:       1.6051                 3.6066                 5.0641
 IR Intens:        1.557                 74.135                 47.914
 Frequency:      1106.31                1125.31                1137.72
 Force Cnst:      1.0599                 1.3052                 1.8587
 Red. Mass:       1.4699                 1.7493                 2.4372
 IR Intens:       14.957                 23.894                 41.518
 Frequency:      1170.18                1170.39                1171.85
 Force Cnst:      1.1939                 1.0385                 1.3249
 Red. Mass:       1.4799                 1.2868                 1.6375
 IR Intens:       17.160                  0.183                 14.742
 Frequency:      1192.37                1206.11                1206.63
 Force Cnst:      2.8309                 1.5077                 1.3664
 Red. Mass:       3.3795                 1.7591                 1.5929
 IR Intens:      226.954                 50.961                  4.809
 Frequency:      1207.89                1210.85                1238.30
 Force Cnst:      1.4148                 1.9704                 2.0430
 Red. Mass:       1.6459                 2.2810                 2.2613
 IR Intens:        2.158                 28.615                166.443
 Frequency:      1243.99                1258.30                1283.08
 Force Cnst:      1.8967                 1.1659                 1.6600
 Red. Mass:       2.0803                 1.2498                 1.7114
 IR Intens:       62.656                  4.435                  4.006
 Frequency:      1294.04                1330.95                1340.01
 Force Cnst:      2.4720                 1.6853                 1.9405
 Red. Mass:       2.5055                 1.6148                 1.8342
 IR Intens:      139.367                 22.413                  2.695
 Frequency:      1353.61                1379.13                1415.15
 Force Cnst:      1.7404                 1.8436                 1.5513
 Red. Mass:       1.6122                 1.6451                 1.3148
 IR Intens:        7.900                 38.497                 18.511
 Frequency:      1419.66                1466.31                1466.75
 Force Cnst:      1.6313                 1.5035                 1.5223
 Red. Mass:       1.3738                 1.1868                 1.2010
 IR Intens:        9.347                  9.749                 17.932
 Frequency:      1480.00                1483.53                1484.88
 Force Cnst:      1.3645                 1.3573                 1.3737
 Red. Mass:       1.0573                 1.0467                 1.0574
 IR Intens:        0.549                  0.757                  2.940
 Frequency:      1485.96                1491.91                1494.55
 Force Cnst:      1.3606                 1.3942                 1.3799
 Red. Mass:       1.0458                 1.0632                 1.0485
 IR Intens:       14.702                  2.306                 18.511
 Frequency:      1496.41                1502.70                1503.36
 Force Cnst:      1.3914                 1.3975                 1.4001
 Red. Mass:       1.0547                 1.0504                 1.0514
 IR Intens:        5.299                  3.046                  6.473
 Frequency:      1511.38                1779.98                1804.28
 Force Cnst:      1.4791                20.1002                22.3606
 Red. Mass:       1.0990                10.7676                11.6580
 IR Intens:        9.121                272.916                250.562
 Frequency:      3042.63                3043.71                3047.39
 Force Cnst:      5.6474                 5.6751                 5.6361
 Red. Mass:       1.0354                 1.0397                 1.0301
 IR Intens:       13.117                 14.804                 12.133
 Frequency:      3048.43                3051.38                3058.11
 Force Cnst:      5.6418                 5.8438                 5.9069
 Red. Mass:       1.0304                 1.0653                 1.0720
 IR Intens:       53.916                 20.838                 25.814
 Frequency:      3064.34                3089.35                3102.28
 Force Cnst:      5.8859                 6.2242                 6.2527
 Red. Mass:       1.0639                 1.1069                 1.1027
 IR Intens:       35.186                  0.220                  6.358
 Frequency:      3108.09                3111.88                3116.35
 Force Cnst:      6.2847                 6.2864                 6.3051
 Red. Mass:       1.1042                 1.1018                 1.1019
 IR Intens:       29.236                 26.977                 18.662
 Frequency:      3118.49                3120.27                3120.99
 Force Cnst:      6.3422                 6.3486                 6.2455
 Red. Mass:       1.1069                 1.1067                 1.0883
 IR Intens:       37.429                  5.788                 20.108
 Frequency:      3156.42                3158.70                3160.22
 Force Cnst:      6.4915                 6.5009                 6.4585
 Red. Mass:       1.1059                 1.1059                 1.0976
 IR Intens:       10.851                  9.421                  4.125

 STANDARD THERMODYNAMIC QUANTITIES AT   298.15 K  AND     1.00 ATM

   This Molecule has  0 Imaginary Frequencies
   Zero point vibrational energy:      183.471 kcal/mol

   Atom    1 Element C  Has Mass   12.00000
   Atom    2 Element C  Has Mass   12.00000
   Atom    3 Element C  Has Mass   12.00000
   Atom    4 Element C  Has Mass   12.00000
   Atom    5 Element O  Has Mass   15.99491
   Atom    6 Element O  Has Mass   15.99491
   Atom    7 Element O  Has Mass   15.99491
   Atom    8 Element O  Has Mass   15.99491
   Atom    9 Element C  Has Mass   12.00000
   Atom   10 Element C  Has Mass   12.00000
   Atom   11 Element C  Has Mass   12.00000
   Atom   12 Element C  Has Mass   12.00000
   Atom   13 Element C  Has Mass   12.00000
   Atom   14 Element C  Has Mass   12.00000
   Atom   15 Element O  Has Mass   15.99491
   Atom   16 Element H  Has Mass    1.00783
   Atom   17 Element H  Has Mass    1.00783
   Atom   18 Element H  Has Mass    1.00783
   Atom   19 Element H  Has Mass    1.00783
   Atom   20 Element H  Has Mass    1.00783
   Atom   21 Element H  Has Mass    1.00783
   Atom   22 Element H  Has Mass    1.00783
   Atom   23 Element H  Has Mass    1.00783
   Atom   24 Element H  Has Mass    1.00783
   Atom   25 Element H  Has Mass    1.00783
   Atom   26 Element H  Has Mass    1.00783
   Atom   27 Element H  Has Mass    1.00783
   Atom   28 Element C  Has Mass   12.00000
   Atom   29 Element H  Has Mass    1.00783
   Atom   30 Element H  Has Mass    1.00783
   Atom   31 Element H  Has Mass    1.00783
   Atom   32 Element C  Has Mass   12.00000
   Atom   33 Element H  Has Mass    1.00783
   Atom   34 Element H  Has Mass    1.00783
   Atom   35 Element H  Has Mass    1.00783
   Molecular Mass:   242.115490 amu
   Principal axes and moments of inertia in amu*Bohr^2:
                             1           2           3
    Eigenvalues --     2744.34077  3743.24709  5140.23983
          X               0.99898    -0.04507     0.00410
          Y               0.04482     0.99786     0.04760
          Z              -0.00623    -0.04737     0.99886
   Rotational Symmetry Number is   1
   The Molecule is an Asymmetric Top
   Translational Enthalpy:        0.889 kcal/mol
   Rotational Enthalpy:           0.889 kcal/mol
   Vibrational Enthalpy:        192.559 kcal/mol
   gas constant (RT):             0.592 kcal/mol
   Translational Entropy:        42.354  cal/mol.K
   Rotational Entropy:           32.335  cal/mol.K
   Vibrational Entropy:          57.517  cal/mol.K

   Total Enthalpy:              194.929 kcal/mol
   Total Entropy:               132.206  cal/mol.K

 Total job time:  11172.47s(wall), 41813.33s(cpu)
        *  Thank you very much for using Q-Chem.  Have a nice day.  *
