 Q-Chem 5.0, Q-Chem, Inc., Pleasanton, CA (2017)
 Q-Chem 5.0.1 for Intel X86 EM64T Linux

User input:
--------------------------------------------------------------
$molecule
0 1
C 0.37964386 -0.64735783 -0.59542067
C 0.62002482 0.89390522 -0.48796958
C -0.87099078 -1.17009192 0.07839873
C -0.54884806 1.73315827 -0.00200708
O -1.19516566 -2.37977984 -0.43541166
O -1.47970035 -0.64695858 0.97633024
O -1.59716783 1.59002616 -0.84221013
O -0.53470741 2.48515649 0.93714309
C -2.81323060 2.25180544 -0.45017479
C -2.32573445 -3.03820072 0.16659029
C 1.63009860 -1.16824824 0.18418698
C 2.90919865 -0.90734051 -0.64550925
C 3.11633444 0.62064596 -0.40685135
C 1.86615315 0.95413779 0.43149941
O 1.72868326 -0.22237030 1.24954454
H 0.37992697 -0.99585718 -1.62728692
H 0.85455025 1.27895214 -1.48443850
H -3.15673399 1.85596140 0.50680570
H -3.22769432 -2.43776687 0.03795045
H 1.52541920 -2.17455483 0.58457873
H 3.74122520 -1.49127500 -0.24994229
H 2.78277145 -1.16829679 -1.69823987
H 4.02107030 0.81348614 0.17130595
H 3.17172680 1.19803955 -1.33184970
H 1.91448541 1.83596882 1.06304715
H -2.65541730 3.32784921 -0.36469524
H -3.53115805 2.03102439 -1.23732558
H -2.15167218 -3.20009413 1.23138034
H -2.42058948 -3.98734748 -0.35628327
$end

$rem
sym_ignore      true
jobtype         opt
method          b3lyp
basis           6-311++G(d,p)
dft_d           d3_op
mem_total       62000
MEM_STATIC      4000
ao2mo_disk      350000
max_scf_cycles  200
geom_opt_max_cycles 1000
geom_opt_tol_displacement 1
GEOM_OPT_TOL_GRADIENT       1
GEOM_OPT_TOL_ENERGY         1
$end

--------------------------------------------------------------

   15    -765.8625285252      3.44E-09 Convergence criterion met
 Total energy in the final basis set = -765.86252853
    9    -765.8625291473      4.49E-09 Convergence criterion met
 Total energy in the final basis set = -765.86252915
   10    -765.8625291722      5.83E-09 Convergence criterion met
 Total energy in the final basis set = -765.86252917
   10    -765.8625305155      3.68E-09 Convergence criterion met
 Total energy in the final basis set = -765.86253052
    8    -765.8625303285      5.50E-09 Convergence criterion met
 Total energy in the final basis set = -765.86253033
    8    -765.8625304586      8.41E-09 Convergence criterion met
 Total energy in the final basis set = -765.86253046
    8    -765.8625303599      6.72E-09 Convergence criterion met
 Total energy in the final basis set = -765.86253036
    8    -765.8625302326      4.60E-09 Convergence criterion met
    7    -765.8625301861      3.61E-09 Convergence criterion met
 Total energy in the final basis set = -765.86253019
    6    -765.8625301685      7.77E-09 Convergence criterion met
 Total energy in the final basis set = -765.86253017
    6    -765.8625301570      5.45E-09 Convergence criterion met
 Total energy in the final basis set = -765.86253016
    6    -765.8625301506      3.99E-09 Convergence criterion met
 Total energy in the final basis set = -765.86253015
    6    -765.8625301454      3.44E-09 Convergence criterion met
 Total energy in the final basis set = -765.86253015
    5    -765.8625301385      9.65E-09 Convergence criterion met
 Total energy in the final basis set = -765.86253014
 Final energy is   -765.862530138543
 **  OPTIMIZATION CONVERGED  **
 Total job time:  583.22s(wall), 9604.99s(cpu)
        *  Thank you very much for using Q-Chem.  Have a nice day.  *

User input: 2 of 2

r0176.ten.osc.edu 10.25.155
Q-Chem Developer Version! Running on 10.25.155.*
                  Welcome to Q-Chem
     A Quantum Leap Into The Future Of Chemistry

 Q-Chem 5.0, Q-Chem, Inc., Pleasanton, CA (2017)

 Yihan Shao,  Zhengting Gan,  E. Epifanovsky,  A. T. B. Gilbert,  M. Wormit,
 J. Kussmann,  A. W. Lange,  A. Behn,  Jia Deng,  Xintian Feng,  D. Ghosh,
 M. Goldey,  P. R. Horn,  L. D. Jacobson,  I. Kaliman,  T. Kus,  A. Landau,
 Jie Liu,  E. I. Proynov,  R. M. Richard,  R. P. Steele,  E. J. Sundstrom,
 H. L. Woodcock III,  P. M. Zimmerman,  D. Zuev,  B. Albrecht,  E. Alguire,
 S. A. Baeppler,  Z. Benda,  Y. A. Bernard,  E. J. Berquist,  K. B. Bravaya,
 D. Casanova,  Chun-Min Chang,  Yunqing Chen,  A. Chien,  K. D. Closser,
 M. P. Coons,  S. Dasgupta,  M. Diedenhofen,  Hainam Do,  R. G. Edgar,
 Po-Tung Fang,  S. Fatehi,  Qingguo Feng,  Qinghui Ge,  A. Ghysels,
 J. Gomes,  J. Gonthier,  A. Gunina,  M. W. D. Hanson-Heine,
 P. H. P. Harbach,  A. W. Hauser,  J. E. Herr,  E. G. Hohenstein,
 Z. C. Holden,  Kerwin Hui,  T.-C. Jagau,  Hyunjun Ji,  B. Kaduk,
 K. Khistyaev,  Jaehoon Kim,  P. Klunzinger,  K. Koh,  D. Kosenkov,
 T. Kowalczyk,  C. M. Krauter,  A. Kunitsa,  Ka Un Lao,  A. Laurent,
 K. V. Lawler,  Joonho Lee,  D. Lefrancois,  S. Lehtola,  D. S. Levine,
 Yi-Pei Li,  You-Sheng Lin,  Fenglai Liu,  E. Livshits,  A. Luenser,
 P. Manohar,  E. Mansoor,  S. F. Manzer,  Shan-Ping Mao,  Yuezhi Mao,
 N. Mardirossian,  A. V. Marenich,  L. A. Martinez-Martinez,  S. A. Maurer,
 N. J. Mayhall,  S. C. McKenzie,  J.-M. Mewes,  A. F. Morrison,  K. Nanda,
 T. S. Nguyen-Beck,  R. Olivares-Amaya,  J. A. Parkhill,  T. M. Perrine,
 F. Plasser,  S. Prager,  A. Prociuk,  D. R. Rehn,  F. Rob,  M. Schneider,
 N. Sergueev,  S. M. Sharada,  S. Sharma,  D. W. Small,  T. Stauch,
 T. Stein,  Yu-Chuan Su,  A. J. W. Thom,  T. Tsuchimochi,  L. Vogt,
 O. Vydrov,  M. A. Watson,  J. Wenzel,  M. de Wergifosse,  T. A. Wesolowski,
 A. White,  J. Witte,  A. Yamada,  Jun Yang,  K. Yao,  S. Yeganeh,
 S. R. Yost,  Zhi-Qiang You,  A. Zech,  Igor Ying Zhang,  Xing Zhang,
 Yan Zhao,  Ying Zhu,  B. R. Brooks,  G. K. L. Chan,  C. J. Cramer,
 M. S. Gordon,  W. J. Hehre,  A. Klamt,  M. W. Schmidt,  C. D. Sherrill,
 D. G. Truhlar,  A. Aspuru-Guzik,  R. Baer,  A. T. Bell,  N. A. Besley,
 Jeng-Da Chai,  A. Dreuw,  B. D. Dunietz,  T. R. Furlani,  Chao-Ping Hsu,
 Yousung Jung,  Jing Kong,  D. S. Lambrecht,  WanZhen Liang,  C. Ochsenfeld,
 V. A. Rassolov,  L. V. Slipchenko,  J. E. Subotnik,  T. Van Voorhis,
 J. M. Herbert,  A. I. Krylov,  P. M. W. Gill,  M. Head-Gordon

 Contributors to earlier versions of Q-Chem not listed above:
 R. D. Adamson,  B. Austin,  J. Baker,  G. J. O. Beran,  K. Brandhorst,
 S. T. Brown,  E. F. C. Byrd,  A. K. Chakraborty,  C.-L. Cheng,
 Siu Hung Chien,  D. M. Chipman,  D. L. Crittenden,  H. Dachsel,
 R. A. DiStasio Jr.,  R. J. Doerksen,  A. D. Dutoi,  L. Fusti-Molnar,
 W. A. Goddard III,  A. Golubeva-Zadorozhnaya,  S. R. Gwaltney,  G. Hawkins,
 A. Heyden,  S. Hirata,  G. Kedziora,  F. J. Keil,  C. Kelley,  Jihan Kim,
 R. A. King,  R. Z. Khaliullin,  P. P. Korambath,  W. Kurlancheek,
 A. M. Lee,  M. S. Lee,  S. V. Levchenko,  Ching Yeh Lin,  D. Liotard,
 R. C. Lochan,  I. Lotan,  P. E. Maslen,  N. Nair,  D. P. O'Neill,
 D. Neuhauser,  E. Neuscamman,  C. M. Oana,  R. Olson,  B. Peters,
 R. Peverati,  P. A. Pieniazek,  Y. M. Rhee,  J. Ritchie,  M. A. Rohrdanz,
 E. Rosta,  N. J. Russ,  H. F. Schaefer III,  N. E. Schultz,  N. Shenvi,
 A. C. Simmonett,  A. Sodt,  D. Stuck,  K. S. Thanthiriwatte,  V. Vanovschi,
 Tao Wang,  A. Warshel,  C. F. Williams,  Q. Wu,  X. Xu,  W. Zhang

 Please cite Q-Chem as follows:
 Y. Shao et al., Mol. Phys. 113, 184-215 (2015)
 DOI: 10.1080/00268976.2014.952696

 Q-Chem 5.0.1 for Intel X86 EM64T Linux

 Parts of Q-Chem use Armadillo 5.200.1 (Boston Tea Smuggler).
 http://arma.sourceforge.net/

 Q-Chem begins on Sat Oct 14 17:22:09 2017

Host: r0176.ten.osc.edu
0

     Scratch files written to /tmp/pbstmp.1310452/00//
Processing $rem in /users/PAS0291/osu6415/.qchemrc.
molden_format             true
The previous job contains 0 fragments, simply inherited here

Checking the input file for inconsistencies... 	...done.

--------------------------------------------------------------
User input:
--------------------------------------------------------------

$molecule
read
$end

$rem
sym_ignore      true
scf_guess       read
jobtype         freq
method          b3lyp
basis           6-311++G(d,p)
dft_d           d3_op
mem_total       62000
MEM_STATIC      4000
ao2mo_disk      350000
max_scf_cycles  200
$end
--------------------------------------------------------------

             Standard Nuclear Orientation (Angstroms)
    I     Atom           X                Y                Z
 ----------------------------------------------------------------
    1      C       0.3821041709    -0.6478586060    -0.5928476534
    2      C       0.6208617904     0.8940969339    -0.4905590703
    3      C      -0.8695089565    -1.1699244027     0.0789964185
    4      C      -0.5480595375     1.7320786156    -0.0025442447
    5      O      -1.1997784084    -2.3748303190    -0.4421144101
    6      O      -1.4741992341    -0.6502027053     0.9817244259
    7      O      -1.5985494222     1.5861706433    -0.8395617492
    8      O      -0.5329181988     2.4845062234     0.9362886009
    9      C      -2.8151189692     2.2450810510    -0.4438877254
   10      C      -2.3313467276    -3.0328057908     0.1585365115
   11      C       1.6319524877    -1.1648590770     0.1911554960
   12      C       2.9107007793    -0.9093177287    -0.6408079532
   13      C       3.1178316211     0.6200495124    -0.4112848834
   14      C       1.8684647150     0.9586518350     0.4263503554
   15      O       1.7312306386    -0.2130602677     1.2509297603
   16      H       0.3862144332    -0.9997561445    -1.6234908149
   17      H       0.8519256822     1.2768247923    -1.4887180303
   18      H      -3.1567337771     1.8454507858     0.5121828487
   19      H      -3.2332641477    -2.4329774269     0.0266113420
   20      H       1.5266602673    -2.1688551023     0.5971601187
   21      H       3.7431558972    -1.4906538609    -0.2423096403
   22      H       2.7834978999    -1.1766627470    -1.6918374755
   23      H       4.0226745554     0.8155660301     0.1658170286
   24      H       3.1734453431     1.1924491576    -1.3393840841
   25      H       1.9181252171     1.8444542682     1.0522000000
   26      H      -2.6586898078     3.3210282432    -0.3553207245
   27      H      -3.5337040248     2.0256870885    -1.2308518450
   28      H      -2.1596815672    -3.1930038525     1.2239103835
   29      H      -2.4247908194    -3.9827503892    -0.3631972655
 ----------------------------------------------------------------

    2    -765.8625301377      4.38E-09 Convergence criterion met
 Total energy in the final basis set = -765.86253014

                    Orbital Energies (a.u.)
 --------------------------------------------------------------

 Alpha MOs
 -- Occupied --
-19.177 -19.167 -19.131 -19.120 -19.111 -10.308 -10.302 -10.240
-10.232 -10.229 -10.222 -10.207 -10.203 -10.183 -10.180  -1.118
 -1.108  -1.064  -1.031  -1.023  -0.831  -0.785  -0.777  -0.738
 -0.725  -0.654  -0.605  -0.597  -0.577  -0.559  -0.546  -0.520
 -0.504  -0.492  -0.487  -0.485  -0.478  -0.471  -0.459  -0.431
 -0.421  -0.420  -0.412  -0.397  -0.386  -0.374  -0.368  -0.366
 -0.360  -0.358  -0.339  -0.333  -0.320  -0.307  -0.291  -0.281
 -0.273

          Ground-State Mulliken Net Atomic Charges

     Atom                 Charge (a.u.)
  ----------------------------------------
      1 C                     0.042435
      2 C                     0.099232
      3 C                    -0.652096
      4 C                    -0.404423
      5 O                    -0.027876
      6 O                    -0.202362
      7 O                    -0.045042
      8 O                    -0.220187
      9 C                    -0.190601
     10 C                    -0.237170
     11 C                     0.351152
     12 C                    -0.468068
     13 C                    -0.464362
     14 C                    -0.145561
     15 O                    -0.141756
     16 H                     0.284559
     17 H                     0.234836
     18 H                     0.190071
     19 H                     0.172261
     20 H                     0.267114
     21 H                     0.180058
     22 H                     0.123619
     23 H                     0.192329
     24 H                     0.125210
     25 H                     0.286344
     26 H                     0.165802
     27 H                     0.148943
     28 H                     0.184339
     29 H                     0.151199
  ----------------------------------------
  Sum of atomic charges =     0.000000

                    Cartesian Multipole Moments
 -----------------------------------------------------------------
    Charge (ESU x 10^10)
                -0.0000
    Dipole Moment (Debye)
         X      -0.0046      Y      -2.1312      Z      -3.7233
       Tot       4.2901
    Quadrupole Moments (Debye-Ang)
        XX     -76.7395     XY       2.2455     YY     -83.6535
        XZ      -0.9090     YZ      -5.2548     ZZ     -95.1841

 Frequency:        25.35                  62.13                  84.21
 Force Cnst:      0.0018                 0.0082                 0.0180
 Red. Mass:       4.7765                 3.6097                 4.3094
 IR Intens:        0.514                  0.724                  3.736
 Frequency:        87.42                 106.81                 133.89
 Force Cnst:      0.0142                 0.0088                 0.0193
 Red. Mass:       3.1444                 1.3076                 1.8233
 IR Intens:        0.550                  1.044                  0.324
 Frequency:       139.41                 144.54                 196.64
 Force Cnst:      0.0196                 0.0380                 0.0966
 Red. Mass:       1.7125                 3.0910                 4.2419
 IR Intens:        0.887                  2.160                  0.296
 Frequency:       216.95                 243.41                 275.63
 Force Cnst:      0.1444                 0.1182                 0.2248
 Red. Mass:       5.2090                 3.3858                 5.0213
 IR Intens:        2.356                  3.314                  8.188
 Frequency:       294.13                 329.09                 335.31
 Force Cnst:      0.1569                 0.2292                 0.2811
 Red. Mass:       3.0774                 3.5913                 4.2432
 IR Intens:        5.620                  5.071                 11.662
 Frequency:       372.60                 469.16                 563.66
 Force Cnst:      0.4710                 0.6375                 0.8174
 Red. Mass:       5.7589                 4.9156                 4.3668
 IR Intens:        9.909                  9.750                 22.075
 Frequency:       627.84                 657.99                 685.52
 Force Cnst:      1.4692                 1.1650                 1.5628
 Red. Mass:       6.3261                 4.5672                 5.6444
 IR Intens:       13.949                  1.333                  4.140
 Frequency:       741.59                 796.89                 816.55
 Force Cnst:      1.7896                 1.6091                 0.9320
 Red. Mass:       5.5230                 4.3005                 2.3725
 IR Intens:        7.607                  7.109                  5.886
 Frequency:       828.49                 836.11                 860.71
 Force Cnst:      1.3419                 1.8561                 1.6072
 Red. Mass:       3.3181                 4.5064                 3.6822
 IR Intens:       19.955                  3.358                  2.045
 Frequency:       897.96                 909.15                 915.66
 Force Cnst:      1.2609                 1.3496                 1.5270
 Red. Mass:       2.6541                 2.7712                 3.0911
 IR Intens:        3.415                 11.514                  4.187
 Frequency:       934.63                 957.76                 974.87
 Force Cnst:      1.6919                 3.0887                 1.3232
 Red. Mass:       3.2873                 5.7149                 2.3632
 IR Intens:       26.045                 33.658                 16.849
 Frequency:       984.51                1015.00                1026.09
 Force Cnst:      2.5187                 2.0032                 2.3004
 Red. Mass:       4.4104                 3.3002                 3.7084
 IR Intens:        3.807                 30.379                 18.407
 Frequency:      1067.86                1073.10                1073.52
 Force Cnst:      2.3182                 1.3363                 1.6965
 Red. Mass:       3.4504                 1.9696                 2.4985
 IR Intens:       35.002                 21.129                 13.890
 Frequency:      1162.91                1172.11                1173.00
 Force Cnst:      1.0110                 1.0749                 1.0904
 Red. Mass:       1.2689                 1.3280                 1.3450
 IR Intens:       55.818                 15.268                 28.047
 Frequency:      1177.10                1200.33                1207.91
 Force Cnst:      1.7389                 1.2907                 1.4828
 Red. Mass:       2.1301                 1.5204                 1.7250
 IR Intens:      212.708                  4.014                 97.566
 Frequency:      1211.69                1216.08                1230.71
 Force Cnst:      1.3824                 1.7460                 1.0893
 Red. Mass:       1.5981                 2.0039                 1.2207
 IR Intens:       59.289                262.015                 19.419
 Frequency:      1242.16                1248.19                1282.15
 Force Cnst:      1.3781                 1.4307                 1.2183
 Red. Mass:       1.5159                 1.5586                 1.2578
 IR Intens:       24.332                 25.734                  4.139
 Frequency:      1287.02                1314.02                1319.96
 Force Cnst:      1.5175                 1.4341                 1.4944
 Red. Mass:       1.5549                 1.4097                 1.4558
 IR Intens:       17.238                  1.855                 36.970
 Frequency:      1352.92                1372.59                1389.51
 Force Cnst:      1.6811                 1.8003                 1.9513
 Red. Mass:       1.5588                 1.6218                 1.7153
 IR Intens:       24.484                 79.400                 37.170
 Frequency:      1470.28                1470.89                1482.72
 Force Cnst:      1.5207                 1.5323                 1.3527
 Red. Mass:       1.1940                 1.2021                 1.0443
 IR Intens:       19.340                 10.326                  8.150
 Frequency:      1484.31                1490.12                1497.94
 Force Cnst:      1.3543                 1.4150                 1.3855
 Red. Mass:       1.0433                 1.0816                 1.0480
 IR Intens:       10.909                  2.327                 12.776
 Frequency:      1499.03                1511.22                1796.23
 Force Cnst:      1.3842                 1.4812                21.9164
 Red. Mass:       1.0455                 1.1008                11.5291
 IR Intens:        6.096                  6.023                 65.637
 Frequency:      1804.99                3049.52                3049.82
 Force Cnst:     21.9854                 5.6409                 5.6413
 Red. Mass:      11.4534                 1.0295                 1.0294
 IR Intens:      396.213                 22.435                 48.331
 Frequency:      3056.88                3061.26                3067.66
 Force Cnst:      5.8628                 5.9372                 5.8924
 Red. Mass:       1.0649                 1.0753                 1.0627
 IR Intens:       14.909                 15.480                 36.020
 Frequency:      3096.62                3110.61                3117.21
 Force Cnst:      6.2533                 6.2297                 6.2971
 Red. Mass:       1.1068                 1.0928                 1.0999
 IR Intens:        0.891                  8.248                 36.006
 Frequency:      3122.78                3124.76                3131.46
 Force Cnst:      6.3606                 6.3706                 6.2971
 Red. Mass:       1.1071                 1.1074                 1.0899
 IR Intens:       18.637                 15.441                 21.860
 Frequency:      3153.17                3156.08                3162.61
 Force Cnst:      6.4815                 6.4920                 6.4270
 Red. Mass:       1.1065                 1.1062                 1.0906
 IR Intens:       14.088                 14.336                  5.643

 STANDARD THERMODYNAMIC QUANTITIES AT   298.15 K  AND     1.00 ATM

   This Molecule has  0 Imaginary Frequencies
   Zero point vibrational energy:      149.091 kcal/mol

   Atom    1 Element C  Has Mass   12.00000
   Atom    2 Element C  Has Mass   12.00000
   Atom    3 Element C  Has Mass   12.00000
   Atom    4 Element C  Has Mass   12.00000
   Atom    5 Element O  Has Mass   15.99491
   Atom    6 Element O  Has Mass   15.99491
   Atom    7 Element O  Has Mass   15.99491
   Atom    8 Element O  Has Mass   15.99491
   Atom    9 Element C  Has Mass   12.00000
   Atom   10 Element C  Has Mass   12.00000
   Atom   11 Element C  Has Mass   12.00000
   Atom   12 Element C  Has Mass   12.00000
   Atom   13 Element C  Has Mass   12.00000
   Atom   14 Element C  Has Mass   12.00000
   Atom   15 Element O  Has Mass   15.99491
   Atom   16 Element H  Has Mass    1.00783
   Atom   17 Element H  Has Mass    1.00783
   Atom   18 Element H  Has Mass    1.00783
   Atom   19 Element H  Has Mass    1.00783
   Atom   20 Element H  Has Mass    1.00783
   Atom   21 Element H  Has Mass    1.00783
   Atom   22 Element H  Has Mass    1.00783
   Atom   23 Element H  Has Mass    1.00783
   Atom   24 Element H  Has Mass    1.00783
   Atom   25 Element H  Has Mass    1.00783
   Atom   26 Element H  Has Mass    1.00783
   Atom   27 Element H  Has Mass    1.00783
   Atom   28 Element H  Has Mass    1.00783
   Atom   29 Element H  Has Mass    1.00783
   Molecular Mass:   214.084170 amu
   Principal axes and moments of inertia in amu*Bohr^2:
                             1           2           3
    Eigenvalues --     2452.01839  2970.52592  4688.06769
          X               0.99991     0.00912    -0.00958
          Y              -0.00913     0.99996    -0.00153
          Z               0.00956     0.00162     0.99995
   Rotational Symmetry Number is   1
   The Molecule is an Asymmetric Top
   Translational Enthalpy:        0.889 kcal/mol
   Rotational Enthalpy:           0.889 kcal/mol
   Vibrational Enthalpy:        156.343 kcal/mol
   gas constant (RT):             0.592 kcal/mol
   Translational Entropy:        41.987  cal/mol.K
   Rotational Entropy:           31.901  cal/mol.K
   Vibrational Entropy:          47.823  cal/mol.K

   Total Enthalpy:              158.713 kcal/mol
   Total Entropy:               121.711  cal/mol.K

 Total job time:  5812.14s(wall), 19926.25s(cpu)
        *  Thank you very much for using Q-Chem.  Have a nice day.  *
