 Q-Chem 5.0, Q-Chem, Inc., Pleasanton, CA (2017)
 Q-Chem 5.0.1 for Intel X86 EM64T Linux

User input:
--------------------------------------------------------------
$molecule
0 1
C -0.45609665 -0.85278374 0.40048012
C -0.62392778 0.67715223 0.72978490
C 0.88988421 -1.34184110 -0.10073377
C 0.40243975 1.69069393 0.23251392
O 1.73033188 -1.53878465 0.93821161
O 1.16434800 -1.60879444 -1.24325454
O 1.60165012 1.16314285 -0.04770041
O 0.15560142 2.86871449 0.13265095
C 2.59936371 2.07222729 -0.55156420
C 3.05744537 -1.97082608 0.59651404
C -1.61282847 -1.06852898 -0.61733096
C -2.92737149 -1.24771796 0.16448932
C -3.13066177 0.19745035 0.71399577
C -1.97592350 0.95443538 0.01691482
O -1.79071678 0.23007733 -1.20753482
H -0.64317267 -1.41248376 1.31938666
H -0.69257759 0.83312227 1.80950797
H 2.24721448 2.54537083 -1.46842678
H 3.54638195 -1.22525783 -0.03273753
H -1.39663043 -1.79707119 -1.39308170
H -3.73136452 -1.52994272 -0.51687464
H -2.86064462 -2.00582149 0.94763409
H -4.09379736 0.61102357 0.41302234
H -3.06536763 0.25531728 1.80274010
H -2.14984935 2.00578761 -0.19064218
H 2.82342835 2.83852167 0.19154873
H 3.47462631 1.45798276 -0.74934998
H 3.02664322 -2.92306945 0.06468261
H 3.58317322 -2.07651826 1.54296954
$end

$rem
sym_ignore      true
jobtype         ts
method          b3lyp
basis           6-311++G(d,p)
dft_d           d3_op
mem_total       62000
MEM_STATIC      4000
ao2mo_disk      350000
max_scf_cycles  200
geom_opt_max_cycles 1000
geom_opt_tol_displacement 1
GEOM_OPT_TOL_GRADIENT       1
GEOM_OPT_TOL_ENERGY         1
$end

--------------------------------------------------------------

   15    -765.8593636463      3.23E-09 Convergence criterion met
 Total energy in the final basis set = -765.85936365
   12    -765.8591230024      8.94E-09 Convergence criterion met
 Total energy in the final basis set = -765.85912300
   12    -765.8586954323      5.88E-09 Convergence criterion met
 Total energy in the final basis set = -765.85869543
   12    -765.8590229740      6.79E-09 Convergence criterion met
 Total energy in the final basis set = -765.85902297
   12    -765.8589612450      7.62E-09 Convergence criterion met
 Total energy in the final basis set = -765.85896125
   13    -765.8590203616      2.68E-09 Convergence criterion met
 Total energy in the final basis set = -765.85902036
   13    -765.8591189576      3.40E-09 Convergence criterion met
 Total energy in the final basis set = -765.85911896
   12    -765.8590172272      6.42E-09 Convergence criterion met
    6    -765.8594307138      4.40E-09 Convergence criterion met
 Total energy in the final basis set = -765.85943071
    6    -765.8594307081      3.14E-09 Convergence criterion met
 Total energy in the final basis set = -765.85943071
    6    -765.8594307150      3.50E-09 Convergence criterion met
 Total energy in the final basis set = -765.85943071
    6    -765.8594307108      2.62E-09 Convergence criterion met
 Total energy in the final basis set = -765.85943071
    6    -765.8594307147      2.73E-09 Convergence criterion met
 Total energy in the final basis set = -765.85943071
    5    -765.8594307114      9.03E-09 Convergence criterion met
 Total energy in the final basis set = -765.85943071
 Final energy is   -765.859430711378
 **  OPTIMIZATION CONVERGED  **
 Total job time:  2567.58s(wall), 43309.87s(cpu)
        *  Thank you very much for using Q-Chem.  Have a nice day.  *

User input: 2 of 2

r0093.ten.osc.edu 10.25.153
Q-Chem Developer Version! Running on 10.25.153.*
                  Welcome to Q-Chem
     A Quantum Leap Into The Future Of Chemistry

 Q-Chem 5.0, Q-Chem, Inc., Pleasanton, CA (2017)

 Yihan Shao,  Zhengting Gan,  E. Epifanovsky,  A. T. B. Gilbert,  M. Wormit,
 J. Kussmann,  A. W. Lange,  A. Behn,  Jia Deng,  Xintian Feng,  D. Ghosh,
 M. Goldey,  P. R. Horn,  L. D. Jacobson,  I. Kaliman,  T. Kus,  A. Landau,
 Jie Liu,  E. I. Proynov,  R. M. Richard,  R. P. Steele,  E. J. Sundstrom,
 H. L. Woodcock III,  P. M. Zimmerman,  D. Zuev,  B. Albrecht,  E. Alguire,
 S. A. Baeppler,  Z. Benda,  Y. A. Bernard,  E. J. Berquist,  K. B. Bravaya,
 D. Casanova,  Chun-Min Chang,  Yunqing Chen,  A. Chien,  K. D. Closser,
 M. P. Coons,  S. Dasgupta,  M. Diedenhofen,  Hainam Do,  R. G. Edgar,
 Po-Tung Fang,  S. Fatehi,  Qingguo Feng,  Qinghui Ge,  A. Ghysels,
 J. Gomes,  J. Gonthier,  A. Gunina,  M. W. D. Hanson-Heine,
 P. H. P. Harbach,  A. W. Hauser,  J. E. Herr,  E. G. Hohenstein,
 Z. C. Holden,  Kerwin Hui,  T.-C. Jagau,  Hyunjun Ji,  B. Kaduk,
 K. Khistyaev,  Jaehoon Kim,  P. Klunzinger,  K. Koh,  D. Kosenkov,
 T. Kowalczyk,  C. M. Krauter,  A. Kunitsa,  Ka Un Lao,  A. Laurent,
 K. V. Lawler,  Joonho Lee,  D. Lefrancois,  S. Lehtola,  D. S. Levine,
 Yi-Pei Li,  You-Sheng Lin,  Fenglai Liu,  E. Livshits,  A. Luenser,
 P. Manohar,  E. Mansoor,  S. F. Manzer,  Shan-Ping Mao,  Yuezhi Mao,
 N. Mardirossian,  A. V. Marenich,  L. A. Martinez-Martinez,  S. A. Maurer,
 N. J. Mayhall,  S. C. McKenzie,  J.-M. Mewes,  A. F. Morrison,  K. Nanda,
 T. S. Nguyen-Beck,  R. Olivares-Amaya,  J. A. Parkhill,  T. M. Perrine,
 F. Plasser,  S. Prager,  A. Prociuk,  D. R. Rehn,  F. Rob,  M. Schneider,
 N. Sergueev,  S. M. Sharada,  S. Sharma,  D. W. Small,  T. Stauch,
 T. Stein,  Yu-Chuan Su,  A. J. W. Thom,  T. Tsuchimochi,  L. Vogt,
 O. Vydrov,  M. A. Watson,  J. Wenzel,  M. de Wergifosse,  T. A. Wesolowski,
 A. White,  J. Witte,  A. Yamada,  Jun Yang,  K. Yao,  S. Yeganeh,
 S. R. Yost,  Zhi-Qiang You,  A. Zech,  Igor Ying Zhang,  Xing Zhang,
 Yan Zhao,  Ying Zhu,  B. R. Brooks,  G. K. L. Chan,  C. J. Cramer,
 M. S. Gordon,  W. J. Hehre,  A. Klamt,  M. W. Schmidt,  C. D. Sherrill,
 D. G. Truhlar,  A. Aspuru-Guzik,  R. Baer,  A. T. Bell,  N. A. Besley,
 Jeng-Da Chai,  A. Dreuw,  B. D. Dunietz,  T. R. Furlani,  Chao-Ping Hsu,
 Yousung Jung,  Jing Kong,  D. S. Lambrecht,  WanZhen Liang,  C. Ochsenfeld,
 V. A. Rassolov,  L. V. Slipchenko,  J. E. Subotnik,  T. Van Voorhis,
 J. M. Herbert,  A. I. Krylov,  P. M. W. Gill,  M. Head-Gordon

 Contributors to earlier versions of Q-Chem not listed above:
 R. D. Adamson,  B. Austin,  J. Baker,  G. J. O. Beran,  K. Brandhorst,
 S. T. Brown,  E. F. C. Byrd,  A. K. Chakraborty,  C.-L. Cheng,
 Siu Hung Chien,  D. M. Chipman,  D. L. Crittenden,  H. Dachsel,
 R. A. DiStasio Jr.,  R. J. Doerksen,  A. D. Dutoi,  L. Fusti-Molnar,
 W. A. Goddard III,  A. Golubeva-Zadorozhnaya,  S. R. Gwaltney,  G. Hawkins,
 A. Heyden,  S. Hirata,  G. Kedziora,  F. J. Keil,  C. Kelley,  Jihan Kim,
 R. A. King,  R. Z. Khaliullin,  P. P. Korambath,  W. Kurlancheek,
 A. M. Lee,  M. S. Lee,  S. V. Levchenko,  Ching Yeh Lin,  D. Liotard,
 R. C. Lochan,  I. Lotan,  P. E. Maslen,  N. Nair,  D. P. O'Neill,
 D. Neuhauser,  E. Neuscamman,  C. M. Oana,  R. Olson,  B. Peters,
 R. Peverati,  P. A. Pieniazek,  Y. M. Rhee,  J. Ritchie,  M. A. Rohrdanz,
 E. Rosta,  N. J. Russ,  H. F. Schaefer III,  N. E. Schultz,  N. Shenvi,
 A. C. Simmonett,  A. Sodt,  D. Stuck,  K. S. Thanthiriwatte,  V. Vanovschi,
 Tao Wang,  A. Warshel,  C. F. Williams,  Q. Wu,  X. Xu,  W. Zhang

 Please cite Q-Chem as follows:
 Y. Shao et al., Mol. Phys. 113, 184-215 (2015)
 DOI: 10.1080/00268976.2014.952696

 Q-Chem 5.0.1 for Intel X86 EM64T Linux

 Parts of Q-Chem use Armadillo 5.200.1 (Boston Tea Smuggler).
 http://arma.sourceforge.net/

 Q-Chem begins on Sun Oct 15 23:47:19 2017

Host: r0093.ten.osc.edu
0

     Scratch files written to /tmp/pbstmp.1310561/01//
Processing $rem in /users/PAS0291/osu6415/.qchemrc.
molden_format             true
The previous job contains 0 fragments, simply inherited here

Checking the input file for inconsistencies... 	...done.

--------------------------------------------------------------
User input:
--------------------------------------------------------------

$molecule
read
$end

$rem
sym_ignore      true
scf_guess       read
jobtype         freq
method          b3lyp
basis           6-311++G(d,p)
dft_d           d3_op
mem_total       62000
MEM_STATIC      4000
ao2mo_disk      350000
max_scf_cycles  200
$end
--------------------------------------------------------------

             Standard Nuclear Orientation (Angstroms)
    I     Atom           X                Y                Z
 ----------------------------------------------------------------
    1      C      -0.4517926690    -0.8521266599     0.4152774123
    2      C      -0.6321003882     0.6822763239     0.7172418212
    3      C       0.8912476832    -1.3334539200    -0.1026716307
    4      C       0.4008626212     1.6967548845     0.2387014059
    5      O       1.7337694193    -1.5610392622     0.9287653664
    6      O       1.1649997006    -1.5621453748    -1.2533717017
    7      O       1.5979025100     1.1680618486    -0.0466172207
    8      O       0.1599529814     2.8778788955     0.1616917856
    9      C       2.6031259714     2.0786257386    -0.5320823112
   10      C       3.0598496321    -1.9843339230     0.5722742898
   11      C      -1.6125990291    -1.0934371243    -0.5931498963
   12      C      -2.9273210791    -1.2492804870     0.1937860432
   13      C      -3.1375816359     0.2128361318     0.6925026345
   14      C      -1.9757215755     0.9462823841    -0.0173106021
   15      O      -1.7864395137     0.1884750544    -1.2194254020
   16      H      -0.6241785489    -1.4006792711     1.3432704005
   17      H      -0.7231402172     0.8511296725     1.7934266424
   18      H       2.2362904916     2.6114115634    -1.4093983805
   19      H       3.5474294533    -1.2224176459    -0.0381516926
   20      H      -1.4001760463    -1.8433059431    -1.3494480479
   21      H      -3.7297562207    -1.5593693647    -0.4772744150
   22      H      -2.8578427897    -1.9789936225     1.0031670911
   23      H      -4.0974162238     0.6154635577     0.3667776923
   24      H      -3.0847498292     0.3073771472     1.7792402190
   25      H      -2.1439249141     1.9927390853    -0.2531212708
   26      H       2.8703665630     2.7958848111     0.2452512713
   27      H       3.4552713743     1.4546190641    -0.7908625508
   28      H       3.0273161136    -2.9219787993     0.0151495366
   29      H       3.5879575456    -2.1156765746     1.5141774902
 ----------------------------------------------------------------

    2    -765.8594307120      4.17E-09 Convergence criterion met
 Total energy in the final basis set = -765.85943071

                    Orbital Energies (a.u.)
 --------------------------------------------------------------

 Alpha MOs
 -- Occupied --
-19.181 -19.172 -19.130 -19.119 -19.114 -10.312 -10.306 -10.234
-10.233 -10.231 -10.230 -10.211 -10.205 -10.181 -10.180  -1.124
 -1.112  -1.063  -1.032  -1.027  -0.830  -0.784  -0.774  -0.741
 -0.731  -0.658  -0.606  -0.596  -0.574  -0.568  -0.549  -0.522
 -0.504  -0.492  -0.489  -0.488  -0.478  -0.475  -0.462  -0.432
 -0.424  -0.420  -0.414  -0.404  -0.382  -0.375  -0.370  -0.366
 -0.360  -0.355  -0.339  -0.333  -0.322  -0.310  -0.293  -0.282
 -0.275

          Ground-State Mulliken Net Atomic Charges

     Atom                 Charge (a.u.)
  ----------------------------------------
      1 C                     0.386288
      2 C                    -0.005701
      3 C                    -0.498695
      4 C                    -0.746184
      5 O                     0.005278
      6 O                    -0.198096
      7 O                    -0.079471
      8 O                    -0.228619
      9 C                    -0.226687
     10 C                    -0.144677
     11 C                    -0.018420
     12 C                    -0.638681
     13 C                    -0.327166
     14 C                     0.152623
     15 O                    -0.114804
     16 H                     0.269959
     17 H                     0.217246
     18 H                     0.190788
     19 H                     0.171235
     20 H                     0.282292
     21 H                     0.189507
     22 H                     0.119786
     23 H                     0.185691
     24 H                     0.131098
     25 H                     0.280381
     26 H                     0.187135
     27 H                     0.131190
     28 H                     0.170925
     29 H                     0.155779
  ----------------------------------------
  Sum of atomic charges =     0.000000

                    Cartesian Multipole Moments
 -----------------------------------------------------------------
    Charge (ESU x 10^10)
                 0.0000
    Dipole Moment (Debye)
         X       1.0377      Y      -1.5097      Z       2.9276
       Tot       3.4535
    Quadrupole Moments (Debye-Ang)
        XX     -73.7158     XY       3.5748     YY     -92.7242
        XZ      -2.0936     YZ      -3.1977     ZZ     -93.2969

 Frequency:       -42.09                  54.47                  80.72
 Force Cnst:      0.0059                 0.0064                 0.0140
 Red. Mass:       5.6859                 3.6354                 3.6563
 IR Intens:        2.395                  0.503                  2.919
 Frequency:        96.40                 106.42                 124.32
 Force Cnst:      0.0111                 0.0101                 0.0148
 Red. Mass:       2.0250                 1.5128                 1.6208
 IR Intens:        0.190                  1.654                  0.562
 Frequency:       141.60                 154.20                 189.55
 Force Cnst:      0.0329                 0.0339                 0.0925
 Red. Mass:       2.7832                 2.4216                 4.3707
 IR Intens:        0.880                  1.000                  0.196
 Frequency:       220.45                 234.72                 277.24
 Force Cnst:      0.1192                 0.1556                 0.1222
 Red. Mass:       4.1611                 4.7938                 2.6994
 IR Intens:        1.874                  2.908                  1.074
 Frequency:       296.56                 329.47                 336.75
 Force Cnst:      0.2451                 0.2358                 0.2692
 Red. Mass:       4.7306                 3.6867                 4.0285
 IR Intens:       12.712                  4.262                  2.541
 Frequency:       391.48                 483.77                 569.79
 Force Cnst:      0.5685                 0.7380                 0.7302
 Red. Mass:       6.2960                 5.3517                 3.8173
 IR Intens:       14.894                 12.438                 22.875
 Frequency:       594.90                 661.69                 671.95
 Force Cnst:      1.2079                 1.2086                 1.6746
 Red. Mass:       5.7929                 4.6854                 6.2950
 IR Intens:        7.476                  4.063                  7.953
 Frequency:       747.80                 790.66                 809.40
 Force Cnst:      2.0649                 1.0540                 1.5808
 Red. Mass:       6.2674                 2.8616                 4.0955
 IR Intens:        2.583                 10.503                 13.623
 Frequency:       827.84                 847.34                 860.76
 Force Cnst:      0.9540                 1.8031                 2.2425
 Red. Mass:       2.3626                 4.2625                 5.1372
 IR Intens:       19.214                  6.682                  3.213
 Frequency:       893.75                 904.69                 911.05
 Force Cnst:      1.2223                 1.5493                 1.2944
 Red. Mass:       2.5971                 3.2129                 2.6469
 IR Intens:        5.192                  4.155                  1.808
 Frequency:       936.56                 961.31                 974.74
 Force Cnst:      1.7370                 2.5935                 1.8968
 Red. Mass:       3.3611                 4.7633                 3.3883
 IR Intens:       22.405                 31.259                  3.916
 Frequency:       984.48                1015.19                1033.02
 Force Cnst:      1.3284                 2.8981                 2.1256
 Red. Mass:       2.3262                 4.7727                 3.3808
 IR Intens:       21.484                 42.789                 34.838
 Frequency:      1060.71                1068.14                1072.74
 Force Cnst:      1.6805                 2.3388                 1.4064
 Red. Mass:       2.5351                 3.4793                 2.0742
 IR Intens:       12.269                  6.982                 18.440
 Frequency:      1164.19                1167.77                1170.29
 Force Cnst:      0.9738                 1.0337                 1.0640
 Red. Mass:       1.2195                 1.2866                 1.3186
 IR Intens:       26.058                  2.552                 18.314
 Frequency:      1184.96                1192.43                1208.81
 Force Cnst:      2.0218                 1.3353                 1.3045
 Red. Mass:       2.4439                 1.5939                 1.5152
 IR Intens:      177.696                  3.191                  4.339
 Frequency:      1211.09                1231.78                1241.40
 Force Cnst:      1.3862                 1.0990                 1.4303
 Red. Mass:       1.6040                 1.2294                 1.5753
 IR Intens:       50.063                  4.363                 25.338
 Frequency:      1253.32                1275.25                1284.17
 Force Cnst:      1.2602                 3.1554                 1.2085
 Red. Mass:       1.3616                 3.2931                 1.2438
 IR Intens:       12.461                419.584                  2.608
 Frequency:      1291.58                1312.77                1317.02
 Force Cnst:      1.5388                 1.4867                 1.4644
 Red. Mass:       1.5657                 1.4642                 1.4330
 IR Intens:        3.342                 86.269                  9.280
 Frequency:      1348.42                1365.12                1389.55
 Force Cnst:      1.6021                 1.6140                 1.9174
 Red. Mass:       1.4955                 1.4700                 1.6854
 IR Intens:       13.473                  4.941                 44.766
 Frequency:      1467.26                1470.32                1479.16
 Force Cnst:      1.5423                 1.5278                 1.3479
 Red. Mass:       1.2160                 1.1995                 1.0457
 IR Intens:        7.851                 23.555                  6.506
 Frequency:      1484.99                1487.80                1494.18
 Force Cnst:      1.3577                 1.4119                 1.3759
 Red. Mass:       1.0450                 1.0826                 1.0460
 IR Intens:        8.691                  2.382                 12.139
 Frequency:      1497.80                1511.91                1774.72
 Force Cnst:      1.3843                 1.4838                21.5888
 Red. Mass:       1.0473                 1.1017                11.6338
 IR Intens:        8.124                  6.877                286.297
 Frequency:      1795.35                3048.89                3054.37
 Force Cnst:     21.3309                 5.6393                 5.6595
 Red. Mass:      11.2321                 1.0297                 1.0296
 IR Intens:      220.489                 31.576                 35.520
 Frequency:      3057.54                3065.89                3067.98
 Force Cnst:      5.8491                 5.9160                 5.9619
 Red. Mass:       1.0619                 1.0682                 1.0751
 IR Intens:       19.187                 27.006                 17.257
 Frequency:      3083.33                3097.32                3115.14
 Force Cnst:      6.0696                 6.2529                 6.3248
 Red. Mass:       1.0836                 1.1063                 1.1062
 IR Intens:       10.522                  1.708                 39.660
 Frequency:      3119.78                3131.02                3154.75
 Force Cnst:      6.3453                 6.3943                 6.4856
 Red. Mass:       1.1065                 1.1071                 1.1060
 IR Intens:       22.902                 13.765                 15.319
 Frequency:      3157.91                3161.26                3162.33
 Force Cnst:      6.3948                 6.4333                 6.5189
 Red. Mass:       1.0884                 1.0926                 1.1064
 IR Intens:       13.144                  2.129                 12.460

 STANDARD THERMODYNAMIC QUANTITIES AT   298.15 K  AND     1.00 ATM

   This Molecule has  1 Imaginary Frequencies
   Zero point vibrational energy:      149.058 kcal/mol

   Atom    1 Element C  Has Mass   12.00000
   Atom    2 Element C  Has Mass   12.00000
   Atom    3 Element C  Has Mass   12.00000
   Atom    4 Element C  Has Mass   12.00000
   Atom    5 Element O  Has Mass   15.99491
   Atom    6 Element O  Has Mass   15.99491
   Atom    7 Element O  Has Mass   15.99491
   Atom    8 Element O  Has Mass   15.99491
   Atom    9 Element C  Has Mass   12.00000
   Atom   10 Element C  Has Mass   12.00000
   Atom   11 Element C  Has Mass   12.00000
   Atom   12 Element C  Has Mass   12.00000
   Atom   13 Element C  Has Mass   12.00000
   Atom   14 Element C  Has Mass   12.00000
   Atom   15 Element O  Has Mass   15.99491
   Atom   16 Element H  Has Mass    1.00783
   Atom   17 Element H  Has Mass    1.00783
   Atom   18 Element H  Has Mass    1.00783
   Atom   19 Element H  Has Mass    1.00783
   Atom   20 Element H  Has Mass    1.00783
   Atom   21 Element H  Has Mass    1.00783
   Atom   22 Element H  Has Mass    1.00783
   Atom   23 Element H  Has Mass    1.00783
   Atom   24 Element H  Has Mass    1.00783
   Atom   25 Element H  Has Mass    1.00783
   Atom   26 Element H  Has Mass    1.00783
   Atom   27 Element H  Has Mass    1.00783
   Atom   28 Element H  Has Mass    1.00783
   Atom   29 Element H  Has Mass    1.00783
   Molecular Mass:   214.084170 amu
   Principal axes and moments of inertia in amu*Bohr^2:
                             1           2           3
    Eigenvalues --     2144.64195  3204.11272  4589.29198
          X               0.99853     0.05377    -0.00621
          Y              -0.05364     0.99838     0.01912
          Z               0.00722    -0.01876     0.99980
   Rotational Symmetry Number is   1
   The Molecule is an Asymmetric Top
   Translational Enthalpy:        0.889 kcal/mol
   Rotational Enthalpy:           0.889 kcal/mol
   Vibrational Enthalpy:        155.753 kcal/mol
   gas constant (RT):             0.592 kcal/mol
   Translational Entropy:        41.987  cal/mol.K
   Rotational Entropy:           31.822  cal/mol.K
   Vibrational Entropy:          41.815  cal/mol.K

   Total Enthalpy:              158.123 kcal/mol
   Total Entropy:               115.625  cal/mol.K

 Total job time:  5883.93s(wall), 20110.21s(cpu)
        *  Thank you very much for using Q-Chem.  Have a nice day.  *
