 Q-Chem 5.0, Q-Chem, Inc., Pleasanton, CA (2017)
 Q-Chem 5.0.1 for Intel X86 EM64T Linux

User input:
--------------------------------------------------------------
$molecule
0 1
C 0.66889947 -0.86548595 -0.62223406
C 0.55671019 0.70077923 -0.73418274
C -0.50696926 -1.72359724 -0.17823632
C -0.82542723 1.32441627 -0.64166972
O -1.66963091 -1.06955838 -0.07215539
O -0.38685694 -2.90804379 0.03017992
O -1.14838903 1.68850547 0.61217816
O -1.52941171 1.52944037 -1.60114288
C -2.45981756 2.24712582 0.78615221
C -2.81530206 -1.85133191 0.31689659
C 1.81635410 -0.99338944 0.42113381
C 3.15847424 -0.54523453 -0.19694939
C 2.99703818 1.00544955 -0.17937987
C 1.56355734 1.14010258 0.37145603
O 1.49758482 0.07031732 1.32820421
H 0.96687677 -1.29121512 -1.58309230
H 0.91435012 0.99536638 -1.72148945
H -2.57052033 3.16221572 0.20197269
H -2.67697544 -2.24589119 1.32435961
H 1.82658916 -1.94594843 0.94292992
H 3.99046515 -0.86895408 0.42959103
H 3.31176960 -0.95370495 -1.19787790
H 3.70746152 1.47016359 0.50573131
H 3.11971360 1.46549840 -1.16190799
H 1.32196645 2.08028838 0.85762367
H -3.21919276 1.52910780 0.47187626
H -2.54757556 2.45696574 1.84995236
H -2.96600418 -2.67677409 -0.37931625
H -3.65719530 -1.16371039 0.28440700
$end

$rem
sym_ignore      true
jobtype         ts
method          b3lyp
basis           6-311++G(d,p)
dft_d           d3_op
mem_total       62000
MEM_STATIC      4000
ao2mo_disk      350000
max_scf_cycles  200
geom_opt_max_cycles 1000
geom_opt_tol_displacement 1
GEOM_OPT_TOL_GRADIENT       1
GEOM_OPT_TOL_ENERGY         1
$end

--------------------------------------------------------------

   15    -765.8581907823      3.11E-09 Convergence criterion met
 Total energy in the final basis set = -765.85819078
   13    -765.8580360028      1.75E-09 Convergence criterion met
 Total energy in the final basis set = -765.85803600
   12    -765.8578025126      9.44E-09 Convergence criterion met
 Total energy in the final basis set = -765.85780251
   12    -765.8579169121      5.78E-09 Convergence criterion met
 Total energy in the final basis set = -765.85791691
   12    -765.8579121189      6.25E-09 Convergence criterion met
 Total energy in the final basis set = -765.85791212
   12    -765.8577867900      2.67E-09 Convergence criterion met
 Total energy in the final basis set = -765.85778679
   12    -765.8577645539      7.72E-09 Convergence criterion met
 Total energy in the final basis set = -765.85776455
   12    -765.8579204597      5.76E-09 Convergence criterion met
    8    -765.8582154592      2.77E-09 Convergence criterion met
 Total energy in the final basis set = -765.85821546
    7    -765.8582155083      8.55E-09 Convergence criterion met
 Total energy in the final basis set = -765.85821551
    6    -765.8582154966      9.85E-09 Convergence criterion met
 Total energy in the final basis set = -765.85821550
    9    -765.8582155985      4.93E-09 Convergence criterion met
 Total energy in the final basis set = -765.85821560
    8    -765.8582155091      9.67E-09 Convergence criterion met
 Total energy in the final basis set = -765.85821551
    4    -765.8582155076      3.76E-09 Convergence criterion met
 Total energy in the final basis set = -765.85821551
 Final energy is   -765.858215507571
 **  OPTIMIZATION CONVERGED  **
 Total job time:  1901.51s(wall), 31774.61s(cpu)
        *  Thank you very much for using Q-Chem.  Have a nice day.  *

User input: 2 of 2

r0084.ten.osc.edu 10.25.153
Q-Chem Developer Version! Running on 10.25.153.*
                  Welcome to Q-Chem
     A Quantum Leap Into The Future Of Chemistry

 Q-Chem 5.0, Q-Chem, Inc., Pleasanton, CA (2017)

 Yihan Shao,  Zhengting Gan,  E. Epifanovsky,  A. T. B. Gilbert,  M. Wormit,
 J. Kussmann,  A. W. Lange,  A. Behn,  Jia Deng,  Xintian Feng,  D. Ghosh,
 M. Goldey,  P. R. Horn,  L. D. Jacobson,  I. Kaliman,  T. Kus,  A. Landau,
 Jie Liu,  E. I. Proynov,  R. M. Richard,  R. P. Steele,  E. J. Sundstrom,
 H. L. Woodcock III,  P. M. Zimmerman,  D. Zuev,  B. Albrecht,  E. Alguire,
 S. A. Baeppler,  Z. Benda,  Y. A. Bernard,  E. J. Berquist,  K. B. Bravaya,
 D. Casanova,  Chun-Min Chang,  Yunqing Chen,  A. Chien,  K. D. Closser,
 M. P. Coons,  S. Dasgupta,  M. Diedenhofen,  Hainam Do,  R. G. Edgar,
 Po-Tung Fang,  S. Fatehi,  Qingguo Feng,  Qinghui Ge,  A. Ghysels,
 J. Gomes,  J. Gonthier,  A. Gunina,  M. W. D. Hanson-Heine,
 P. H. P. Harbach,  A. W. Hauser,  J. E. Herr,  E. G. Hohenstein,
 Z. C. Holden,  Kerwin Hui,  T.-C. Jagau,  Hyunjun Ji,  B. Kaduk,
 K. Khistyaev,  Jaehoon Kim,  P. Klunzinger,  K. Koh,  D. Kosenkov,
 T. Kowalczyk,  C. M. Krauter,  A. Kunitsa,  Ka Un Lao,  A. Laurent,
 K. V. Lawler,  Joonho Lee,  D. Lefrancois,  S. Lehtola,  D. S. Levine,
 Yi-Pei Li,  You-Sheng Lin,  Fenglai Liu,  E. Livshits,  A. Luenser,
 P. Manohar,  E. Mansoor,  S. F. Manzer,  Shan-Ping Mao,  Yuezhi Mao,
 N. Mardirossian,  A. V. Marenich,  L. A. Martinez-Martinez,  S. A. Maurer,
 N. J. Mayhall,  S. C. McKenzie,  J.-M. Mewes,  A. F. Morrison,  K. Nanda,
 T. S. Nguyen-Beck,  R. Olivares-Amaya,  J. A. Parkhill,  T. M. Perrine,
 F. Plasser,  S. Prager,  A. Prociuk,  D. R. Rehn,  F. Rob,  M. Schneider,
 N. Sergueev,  S. M. Sharada,  S. Sharma,  D. W. Small,  T. Stauch,
 T. Stein,  Yu-Chuan Su,  A. J. W. Thom,  T. Tsuchimochi,  L. Vogt,
 O. Vydrov,  M. A. Watson,  J. Wenzel,  M. de Wergifosse,  T. A. Wesolowski,
 A. White,  J. Witte,  A. Yamada,  Jun Yang,  K. Yao,  S. Yeganeh,
 S. R. Yost,  Zhi-Qiang You,  A. Zech,  Igor Ying Zhang,  Xing Zhang,
 Yan Zhao,  Ying Zhu,  B. R. Brooks,  G. K. L. Chan,  C. J. Cramer,
 M. S. Gordon,  W. J. Hehre,  A. Klamt,  M. W. Schmidt,  C. D. Sherrill,
 D. G. Truhlar,  A. Aspuru-Guzik,  R. Baer,  A. T. Bell,  N. A. Besley,
 Jeng-Da Chai,  A. Dreuw,  B. D. Dunietz,  T. R. Furlani,  Chao-Ping Hsu,
 Yousung Jung,  Jing Kong,  D. S. Lambrecht,  WanZhen Liang,  C. Ochsenfeld,
 V. A. Rassolov,  L. V. Slipchenko,  J. E. Subotnik,  T. Van Voorhis,
 J. M. Herbert,  A. I. Krylov,  P. M. W. Gill,  M. Head-Gordon

 Contributors to earlier versions of Q-Chem not listed above:
 R. D. Adamson,  B. Austin,  J. Baker,  G. J. O. Beran,  K. Brandhorst,
 S. T. Brown,  E. F. C. Byrd,  A. K. Chakraborty,  C.-L. Cheng,
 Siu Hung Chien,  D. M. Chipman,  D. L. Crittenden,  H. Dachsel,
 R. A. DiStasio Jr.,  R. J. Doerksen,  A. D. Dutoi,  L. Fusti-Molnar,
 W. A. Goddard III,  A. Golubeva-Zadorozhnaya,  S. R. Gwaltney,  G. Hawkins,
 A. Heyden,  S. Hirata,  G. Kedziora,  F. J. Keil,  C. Kelley,  Jihan Kim,
 R. A. King,  R. Z. Khaliullin,  P. P. Korambath,  W. Kurlancheek,
 A. M. Lee,  M. S. Lee,  S. V. Levchenko,  Ching Yeh Lin,  D. Liotard,
 R. C. Lochan,  I. Lotan,  P. E. Maslen,  N. Nair,  D. P. O'Neill,
 D. Neuhauser,  E. Neuscamman,  C. M. Oana,  R. Olson,  B. Peters,
 R. Peverati,  P. A. Pieniazek,  Y. M. Rhee,  J. Ritchie,  M. A. Rohrdanz,
 E. Rosta,  N. J. Russ,  H. F. Schaefer III,  N. E. Schultz,  N. Shenvi,
 A. C. Simmonett,  A. Sodt,  D. Stuck,  K. S. Thanthiriwatte,  V. Vanovschi,
 Tao Wang,  A. Warshel,  C. F. Williams,  Q. Wu,  X. Xu,  W. Zhang

 Please cite Q-Chem as follows:
 Y. Shao et al., Mol. Phys. 113, 184-215 (2015)
 DOI: 10.1080/00268976.2014.952696

 Q-Chem 5.0.1 for Intel X86 EM64T Linux

 Parts of Q-Chem use Armadillo 5.200.1 (Boston Tea Smuggler).
 http://arma.sourceforge.net/

 Q-Chem begins on Sun Oct 15 23:36:36 2017

Host: r0084.ten.osc.edu
0

     Scratch files written to /tmp/pbstmp.1310562/03//
Processing $rem in /users/PAS0291/osu6415/.qchemrc.
molden_format             true
The previous job contains 0 fragments, simply inherited here

Checking the input file for inconsistencies... 	...done.

--------------------------------------------------------------
User input:
--------------------------------------------------------------

$molecule
read
$end

$rem
sym_ignore      true
scf_guess       read
jobtype         freq
method          b3lyp
basis           6-311++G(d,p)
dft_d           d3_op
mem_total       62000
MEM_STATIC      4000
ao2mo_disk      350000
max_scf_cycles  200
$end
--------------------------------------------------------------

             Standard Nuclear Orientation (Angstroms)
    I     Atom           X                Y                Z
 ----------------------------------------------------------------
    1      C       0.6680927324    -0.8684752121    -0.6454576485
    2      C       0.5599003152     0.6996330840    -0.7218575218
    3      C      -0.5046190903    -1.7278816924    -0.1939427062
    4      C      -0.8260024947     1.3173026622    -0.6510404007
    5      O      -1.6577499602    -1.0667830939    -0.0400191749
    6      O      -0.3878696043    -2.9166749488    -0.0098889229
    7      O      -1.1545532222     1.7199114804     0.5895463873
    8      O      -1.5301513999     1.4831311961    -1.6178617359
    9      C      -2.4710451016     2.2740000945     0.7413144683
   10      C      -2.7975609089    -1.8471558120     0.3685669010
   11      C       1.8212316462    -1.0172267422     0.3884519484
   12      C       3.1583499634    -0.5379784071    -0.2188694795
   13      C       2.9902242169     1.0101084719    -0.1390964725
   14      C       1.5522387093     1.1149933160     0.4054586374
   15      O       1.4929254425     0.0149445822     1.3283352050
   16      H       0.9538722670    -1.2792110175    -1.6162343528
   17      H       0.9354573402     1.0127550075    -1.6970803314
   18      H      -2.5867909996     3.1676328630     0.1258869377
   19      H      -2.6343030166    -2.2577194657     1.3658507383
   20      H       1.8419922674    -1.9849946506     0.8811457865
   21      H       3.9963126995    -0.8829984015     0.3879046804
   22      H       3.3053280849    -0.9051554503    -1.2365986994
   23      H       3.6924651836     1.4486087736     0.5713926167
   24      H       3.1193856943     1.5115008028    -1.1004972011
   25      H       1.2969587575     2.0367829060     0.9187341033
   26      H      -3.2238034085     1.5398155521     0.4494164646
   27      H      -2.5634684914     2.5190793567     1.7971201167
   28      H      -2.9727537660    -2.6610310394    -0.3354831317
   29      H      -3.6355214159    -1.1540110856     0.3698133077
 ----------------------------------------------------------------

    2    -765.8582155077      4.85E-09 Convergence criterion met
 Total energy in the final basis set = -765.85821551

                    Orbital Energies (a.u.)
 --------------------------------------------------------------

 Alpha MOs
 -- Occupied --
-19.181 -19.172 -19.133 -19.118 -19.112 -10.312 -10.306 -10.236
-10.234 -10.234 -10.229 -10.211 -10.205 -10.182 -10.182  -1.124
 -1.113  -1.065  -1.032  -1.025  -0.831  -0.785  -0.778  -0.740
 -0.730  -0.660  -0.606  -0.597  -0.579  -0.573  -0.551  -0.518
 -0.506  -0.491  -0.490  -0.488  -0.478  -0.472  -0.464  -0.434
 -0.426  -0.417  -0.412  -0.406  -0.381  -0.375  -0.368  -0.367
 -0.364  -0.354  -0.341  -0.338  -0.323  -0.309  -0.291  -0.285
 -0.273

          Ground-State Mulliken Net Atomic Charges

     Atom                 Charge (a.u.)
  ----------------------------------------
      1 C                    -0.336579
      2 C                     0.826961
      3 C                    -0.585770
      4 C                    -0.670983
      5 O                    -0.083928
      6 O                    -0.232936
      7 O                     0.001097
      8 O                    -0.188446
      9 C                    -0.196391
     10 C                    -0.212885
     11 C                     0.307851
     12 C                    -0.340718
     13 C                    -0.636054
     14 C                    -0.222505
     15 O                    -0.125568
     16 H                     0.224861
     17 H                     0.276295
     18 H                     0.174502
     19 H                     0.193062
     20 H                     0.281477
     21 H                     0.189125
     22 H                     0.130524
     23 H                     0.184349
     24 H                     0.120797
     25 H                     0.270907
     26 H                     0.171900
     27 H                     0.159656
     28 H                     0.184649
     29 H                     0.134750
  ----------------------------------------
  Sum of atomic charges =    -0.000000

                    Cartesian Multipole Moments
 -----------------------------------------------------------------
    Charge (ESU x 10^10)
                -0.0000
    Dipole Moment (Debye)
         X       0.1431      Y       1.4217      Z       0.3700
       Tot       1.4760
    Quadrupole Moments (Debye-Ang)
        XX     -75.3514     XY       2.2287     YY     -92.4658
        XZ      -9.3990     YZ       3.9878     ZZ     -94.2361

 Frequency:       -30.76                  51.26                  77.97
 Force Cnst:      0.0040                 0.0057                 0.0118
 Red. Mass:       7.2207                 3.6912                 3.2806
 IR Intens:        3.614                  1.016                  3.361
 Frequency:       109.09                 121.62                 139.57
 Force Cnst:      0.0266                 0.0240                 0.0171
 Red. Mass:       3.7989                 2.7509                 1.4918
 IR Intens:        0.869                  1.954                  1.475
 Frequency:       153.79                 157.96                 170.18
 Force Cnst:      0.0381                 0.0233                 0.0341
 Red. Mass:       2.7359                 1.5828                 2.0010
 IR Intens:        0.316                  0.379                  0.321
 Frequency:       222.07                 240.25                 285.09
 Force Cnst:      0.1359                 0.1780                 0.1161
 Red. Mass:       4.6761                 5.2354                 2.4246
 IR Intens:        2.557                  2.132                  1.126
 Frequency:       299.97                 333.48                 337.98
 Force Cnst:      0.2130                 0.2389                 0.2824
 Red. Mass:       4.0178                 3.6456                 4.1957
 IR Intens:       12.271                  8.236                  6.551
 Frequency:       399.49                 475.74                 571.24
 Force Cnst:      0.8963                 0.7653                 0.7967
 Red. Mass:       9.5321                 5.7389                 4.1438
 IR Intens:        2.794                 10.916                 24.358
 Frequency:       604.62                 656.68                 676.45
 Force Cnst:      1.1354                 1.1151                 1.6311
 Red. Mass:       5.2713                 4.3889                 6.0499
 IR Intens:        6.010                  0.673                 11.691
 Frequency:       746.94                 795.67                 812.96
 Force Cnst:      2.0154                 1.2527                 1.3208
 Red. Mass:       6.1310                 3.3585                 3.3919
 IR Intens:        4.303                 15.153                  6.467
 Frequency:       827.05                 833.87                 863.27
 Force Cnst:      1.1047                 1.3108                 2.2790
 Red. Mass:       2.7412                 3.1995                 5.1904
 IR Intens:       18.712                 11.028                  3.308
 Frequency:       883.99                 906.89                 920.53
 Force Cnst:      1.7552                 1.2620                 1.4500
 Red. Mass:       3.8123                 2.6044                 2.9044
 IR Intens:        1.528                 10.519                  2.159
 Frequency:       941.76                 961.73                 970.76
 Force Cnst:      2.0601                 1.3853                 2.2036
 Red. Mass:       3.9423                 2.5420                 3.9687
 IR Intens:       29.500                 10.555                 13.430
 Frequency:       984.05                1019.08                1026.37
 Force Cnst:      1.4014                 2.9224                 1.9827
 Red. Mass:       2.4563                 4.7761                 3.1944
 IR Intens:       13.304                 40.045                 27.724
 Frequency:      1060.54                1066.97                1075.27
 Force Cnst:      2.2916                 1.9474                 1.5649
 Red. Mass:       3.4581                 2.9034                 2.2972
 IR Intens:        1.809                 47.271                 27.047
 Frequency:      1162.91                1168.64                1171.00
 Force Cnst:      0.9775                 1.0308                 1.0382
 Red. Mass:       1.2268                 1.2811                 1.2851
 IR Intens:       60.029                  1.607                  2.023
 Frequency:      1194.20                1207.37                1210.33
 Force Cnst:      1.2762                 1.2844                 1.3054
 Red. Mass:       1.5188                 1.4954                 1.5125
 IR Intens:       10.325                  5.066                  3.415
 Frequency:      1230.59                1233.03                1246.32
 Force Cnst:      1.0963                 1.4329                 1.3294
 Red. Mass:       1.2287                 1.5997                 1.4526
 IR Intens:        3.405                 15.085                 58.892
 Frequency:      1266.86                1278.70                1287.09
 Force Cnst:      2.6065                 1.7959                 1.4054
 Red. Mass:       2.7565                 1.8642                 1.4399
 IR Intens:       54.464                192.534                 73.237
 Frequency:      1298.50                1312.14                1317.07
 Force Cnst:      2.2283                 1.3310                 1.4839
 Red. Mass:       2.2431                 1.3121                 1.4519
 IR Intens:      251.821                 21.933                  6.507
 Frequency:      1352.46                1367.94                1375.00
 Force Cnst:      1.6163                 1.5963                 1.6666
 Red. Mass:       1.4997                 1.4479                 1.4962
 IR Intens:       22.880                  1.970                 17.624
 Frequency:      1465.64                1470.43                1480.55
 Force Cnst:      1.5265                 1.5455                 1.3494
 Red. Mass:       1.2061                 1.2132                 1.0448
 IR Intens:        9.088                 25.214                  8.519
 Frequency:      1484.02                1491.53                1495.60
 Force Cnst:      1.3581                 1.4181                 1.3783
 Red. Mass:       1.0466                 1.0819                 1.0458
 IR Intens:        5.450                  1.585                 11.957
 Frequency:      1499.42                1512.53                1771.31
 Force Cnst:      1.3873                 1.4823                21.1521
 Red. Mass:       1.0473                 1.0997                11.4423
 IR Intens:        9.391                  8.914                285.461
 Frequency:      1778.73                3048.32                3053.95
 Force Cnst:     20.4540                 5.6368                 5.6565
 Red. Mass:      10.9725                 1.0296                 1.0294
 IR Intens:      293.654                 31.860                 34.583
 Frequency:      3058.31                3068.07                3078.76
 Force Cnst:      5.8396                 5.8850                 6.0536
 Red. Mass:       1.0597                 1.0611                 1.0840
 IR Intens:       23.947                 30.746                  8.048
 Frequency:      3093.23                3097.32                3115.84
 Force Cnst:      6.1274                 6.2439                 6.3267
 Red. Mass:       1.0869                 1.1047                 1.1061
 IR Intens:        5.985                  2.110                 38.345
 Frequency:      3119.55                3129.90                3155.32
 Force Cnst:      6.3444                 6.3918                 6.4874
 Red. Mass:       1.1065                 1.1074                 1.1059
 IR Intens:       22.486                 14.111                 14.323
 Frequency:      3156.04                3161.03                3161.11
 Force Cnst:      6.3911                 6.4397                 6.5008
 Red. Mass:       1.0890                 1.0939                 1.1042
 IR Intens:       13.151                  4.265                 15.117

 STANDARD THERMODYNAMIC QUANTITIES AT   298.15 K  AND     1.00 ATM

   This Molecule has  1 Imaginary Frequencies
   Zero point vibrational energy:      149.260 kcal/mol

   Atom    1 Element C  Has Mass   12.00000
   Atom    2 Element C  Has Mass   12.00000
   Atom    3 Element C  Has Mass   12.00000
   Atom    4 Element C  Has Mass   12.00000
   Atom    5 Element O  Has Mass   15.99491
   Atom    6 Element O  Has Mass   15.99491
   Atom    7 Element O  Has Mass   15.99491
   Atom    8 Element O  Has Mass   15.99491
   Atom    9 Element C  Has Mass   12.00000
   Atom   10 Element C  Has Mass   12.00000
   Atom   11 Element C  Has Mass   12.00000
   Atom   12 Element C  Has Mass   12.00000
   Atom   13 Element C  Has Mass   12.00000
   Atom   14 Element C  Has Mass   12.00000
   Atom   15 Element O  Has Mass   15.99491
   Atom   16 Element H  Has Mass    1.00783
   Atom   17 Element H  Has Mass    1.00783
   Atom   18 Element H  Has Mass    1.00783
   Atom   19 Element H  Has Mass    1.00783
   Atom   20 Element H  Has Mass    1.00783
   Atom   21 Element H  Has Mass    1.00783
   Atom   22 Element H  Has Mass    1.00783
   Atom   23 Element H  Has Mass    1.00783
   Atom   24 Element H  Has Mass    1.00783
   Atom   25 Element H  Has Mass    1.00783
   Atom   26 Element H  Has Mass    1.00783
   Atom   27 Element H  Has Mass    1.00783
   Atom   28 Element H  Has Mass    1.00783
   Atom   29 Element H  Has Mass    1.00783
   Molecular Mass:   214.084170 amu
   Principal axes and moments of inertia in amu*Bohr^2:
                             1           2           3
    Eigenvalues --     2226.29832  3059.92765  4424.08644
          X               0.99717     0.07238    -0.02034
          Y              -0.07183     0.99707     0.02645
          Z               0.02220    -0.02491     0.99944
   Rotational Symmetry Number is   1
   The Molecule is an Asymmetric Top
   Translational Enthalpy:        0.889 kcal/mol
   Rotational Enthalpy:           0.889 kcal/mol
   Vibrational Enthalpy:        155.888 kcal/mol
   gas constant (RT):             0.592 kcal/mol
   Translational Entropy:        41.987  cal/mol.K
   Rotational Entropy:           31.777  cal/mol.K
   Vibrational Entropy:          41.096  cal/mol.K

   Total Enthalpy:              158.258 kcal/mol
   Total Entropy:               114.860  cal/mol.K

 Total job time:  5892.57s(wall), 20374.97s(cpu)
        *  Thank you very much for using Q-Chem.  Have a nice day.  *
