 Q-Chem 5.0, Q-Chem, Inc., Pleasanton, CA (2017)
 Q-Chem 5.0.1 for Intel X86 EM64T Linux

User input:
--------------------------------------------------------------
$molecule
0 1
C -0.57355934 0.48413990 -0.85415024
C -0.47697969 -1.00505062 -0.31354623
C 0.67887658 1.31043737 -0.59688873
C 0.87341683 -1.35058020 0.28117452
O 0.61770432 2.00947747 0.54461084
O 1.62542049 1.33433198 -1.34927818
O 1.71255772 -1.75499190 -0.69195277
O 1.17405826 -1.28428792 1.44727378
C 3.07724968 -1.99457215 -0.30260831
C 1.79129255 2.76575304 0.89429089
C -1.84185221 0.95681135 -0.09870673
C -3.08860419 0.26619065 -0.70196586
C -2.97339105 -1.16144705 -0.08260554
C -1.64987271 -1.02906817 0.69999466
O -1.70798884 0.31962161 1.17714622
H -0.70349163 0.47724791 -1.93616200
H -0.64637555 -1.69283738 -1.14264666
H 3.53297904 -1.06692789 0.04687071
H 2.01943127 3.49948319 0.11966101
H -1.91505898 2.03255722 0.03529201
H -3.99692795 0.77140800 -0.37173848
H -3.08053795 0.26367612 -1.79391573
H -3.79581919 -1.36260062 0.60515025
H -2.95164660 -1.95748972 -0.82988201
H -1.50768345 -1.70730611 1.53719390
H 3.12549329 -2.74610521 0.48656660
H 3.57676883 -2.34546913 -1.20252316
H 2.64372342 2.09741039 1.02323989
H 1.54643643 3.25604479 1.83334934
$end

$rem
sym_ignore      true
jobtype         ts
method          b3lyp
basis           6-311++G(d,p)
dft_d           d3_op
mem_total       62000
MEM_STATIC      4000
ao2mo_disk      350000
max_scf_cycles  200
geom_opt_max_cycles 1000
geom_opt_tol_displacement 1
GEOM_OPT_TOL_GRADIENT       1
GEOM_OPT_TOL_ENERGY         1
$end

--------------------------------------------------------------

   15    -765.8589050360      3.92E-09 Convergence criterion met
 Total energy in the final basis set = -765.85890504
   12    -765.8587471584      5.67E-09 Convergence criterion met
 Total energy in the final basis set = -765.85874716
   12    -765.8585890816      6.99E-09 Convergence criterion met
 Total energy in the final basis set = -765.85858908
   12    -765.8584649888      7.21E-09 Convergence criterion met
 Total energy in the final basis set = -765.85846499
   12    -765.8588159199      8.51E-09 Convergence criterion met
 Total energy in the final basis set = -765.85881592
   12    -765.8588040292      7.96E-09 Convergence criterion met
 Total energy in the final basis set = -765.85880403
   12    -765.8592779347      4.52E-09 Convergence criterion met
 Total energy in the final basis set = -765.85927793
   12    -765.8600278367      6.22E-09 Convergence criterion met
    9    -765.8587889093      7.31E-09 Convergence criterion met
 Total energy in the final basis set = -765.85878891
    8    -765.8587885903      6.06E-09 Convergence criterion met
 Total energy in the final basis set = -765.85878859
    8    -765.8587886225      3.59E-09 Convergence criterion met
 Total energy in the final basis set = -765.85878862
    8    -765.8587885862      1.99E-09 Convergence criterion met
 Total energy in the final basis set = -765.85878859
    8    -765.8587885969      2.51E-09 Convergence criterion met
 Total energy in the final basis set = -765.85878860
    7    -765.8587885941      8.18E-09 Convergence criterion met
 Total energy in the final basis set = -765.85878859
 Final energy is   -765.858788594060
 **  OPTIMIZATION CONVERGED  **
 Total job time:  1832.92s(wall), 30902.85s(cpu)
        *  Thank you very much for using Q-Chem.  Have a nice day.  *

User input: 2 of 2

r0104.ten.osc.edu 10.25.153
Q-Chem Developer Version! Running on 10.25.153.*
                  Welcome to Q-Chem
     A Quantum Leap Into The Future Of Chemistry

 Q-Chem 5.0, Q-Chem, Inc., Pleasanton, CA (2017)

 Yihan Shao,  Zhengting Gan,  E. Epifanovsky,  A. T. B. Gilbert,  M. Wormit,
 J. Kussmann,  A. W. Lange,  A. Behn,  Jia Deng,  Xintian Feng,  D. Ghosh,
 M. Goldey,  P. R. Horn,  L. D. Jacobson,  I. Kaliman,  T. Kus,  A. Landau,
 Jie Liu,  E. I. Proynov,  R. M. Richard,  R. P. Steele,  E. J. Sundstrom,
 H. L. Woodcock III,  P. M. Zimmerman,  D. Zuev,  B. Albrecht,  E. Alguire,
 S. A. Baeppler,  Z. Benda,  Y. A. Bernard,  E. J. Berquist,  K. B. Bravaya,
 D. Casanova,  Chun-Min Chang,  Yunqing Chen,  A. Chien,  K. D. Closser,
 M. P. Coons,  S. Dasgupta,  M. Diedenhofen,  Hainam Do,  R. G. Edgar,
 Po-Tung Fang,  S. Fatehi,  Qingguo Feng,  Qinghui Ge,  A. Ghysels,
 J. Gomes,  J. Gonthier,  A. Gunina,  M. W. D. Hanson-Heine,
 P. H. P. Harbach,  A. W. Hauser,  J. E. Herr,  E. G. Hohenstein,
 Z. C. Holden,  Kerwin Hui,  T.-C. Jagau,  Hyunjun Ji,  B. Kaduk,
 K. Khistyaev,  Jaehoon Kim,  P. Klunzinger,  K. Koh,  D. Kosenkov,
 T. Kowalczyk,  C. M. Krauter,  A. Kunitsa,  Ka Un Lao,  A. Laurent,
 K. V. Lawler,  Joonho Lee,  D. Lefrancois,  S. Lehtola,  D. S. Levine,
 Yi-Pei Li,  You-Sheng Lin,  Fenglai Liu,  E. Livshits,  A. Luenser,
 P. Manohar,  E. Mansoor,  S. F. Manzer,  Shan-Ping Mao,  Yuezhi Mao,
 N. Mardirossian,  A. V. Marenich,  L. A. Martinez-Martinez,  S. A. Maurer,
 N. J. Mayhall,  S. C. McKenzie,  J.-M. Mewes,  A. F. Morrison,  K. Nanda,
 T. S. Nguyen-Beck,  R. Olivares-Amaya,  J. A. Parkhill,  T. M. Perrine,
 F. Plasser,  S. Prager,  A. Prociuk,  D. R. Rehn,  F. Rob,  M. Schneider,
 N. Sergueev,  S. M. Sharada,  S. Sharma,  D. W. Small,  T. Stauch,
 T. Stein,  Yu-Chuan Su,  A. J. W. Thom,  T. Tsuchimochi,  L. Vogt,
 O. Vydrov,  M. A. Watson,  J. Wenzel,  M. de Wergifosse,  T. A. Wesolowski,
 A. White,  J. Witte,  A. Yamada,  Jun Yang,  K. Yao,  S. Yeganeh,
 S. R. Yost,  Zhi-Qiang You,  A. Zech,  Igor Ying Zhang,  Xing Zhang,
 Yan Zhao,  Ying Zhu,  B. R. Brooks,  G. K. L. Chan,  C. J. Cramer,
 M. S. Gordon,  W. J. Hehre,  A. Klamt,  M. W. Schmidt,  C. D. Sherrill,
 D. G. Truhlar,  A. Aspuru-Guzik,  R. Baer,  A. T. Bell,  N. A. Besley,
 Jeng-Da Chai,  A. Dreuw,  B. D. Dunietz,  T. R. Furlani,  Chao-Ping Hsu,
 Yousung Jung,  Jing Kong,  D. S. Lambrecht,  WanZhen Liang,  C. Ochsenfeld,
 V. A. Rassolov,  L. V. Slipchenko,  J. E. Subotnik,  T. Van Voorhis,
 J. M. Herbert,  A. I. Krylov,  P. M. W. Gill,  M. Head-Gordon

 Contributors to earlier versions of Q-Chem not listed above:
 R. D. Adamson,  B. Austin,  J. Baker,  G. J. O. Beran,  K. Brandhorst,
 S. T. Brown,  E. F. C. Byrd,  A. K. Chakraborty,  C.-L. Cheng,
 Siu Hung Chien,  D. M. Chipman,  D. L. Crittenden,  H. Dachsel,
 R. A. DiStasio Jr.,  R. J. Doerksen,  A. D. Dutoi,  L. Fusti-Molnar,
 W. A. Goddard III,  A. Golubeva-Zadorozhnaya,  S. R. Gwaltney,  G. Hawkins,
 A. Heyden,  S. Hirata,  G. Kedziora,  F. J. Keil,  C. Kelley,  Jihan Kim,
 R. A. King,  R. Z. Khaliullin,  P. P. Korambath,  W. Kurlancheek,
 A. M. Lee,  M. S. Lee,  S. V. Levchenko,  Ching Yeh Lin,  D. Liotard,
 R. C. Lochan,  I. Lotan,  P. E. Maslen,  N. Nair,  D. P. O'Neill,
 D. Neuhauser,  E. Neuscamman,  C. M. Oana,  R. Olson,  B. Peters,
 R. Peverati,  P. A. Pieniazek,  Y. M. Rhee,  J. Ritchie,  M. A. Rohrdanz,
 E. Rosta,  N. J. Russ,  H. F. Schaefer III,  N. E. Schultz,  N. Shenvi,
 A. C. Simmonett,  A. Sodt,  D. Stuck,  K. S. Thanthiriwatte,  V. Vanovschi,
 Tao Wang,  A. Warshel,  C. F. Williams,  Q. Wu,  X. Xu,  W. Zhang

 Please cite Q-Chem as follows:
 Y. Shao et al., Mol. Phys. 113, 184-215 (2015)
 DOI: 10.1080/00268976.2014.952696

 Q-Chem 5.0.1 for Intel X86 EM64T Linux

 Parts of Q-Chem use Armadillo 5.200.1 (Boston Tea Smuggler).
 http://arma.sourceforge.net/

 Q-Chem begins on Sun Oct 15 23:36:46 2017

Host: r0104.ten.osc.edu
0

     Scratch files written to /tmp/pbstmp.1310566/09//
Processing $rem in /users/PAS0291/osu6415/.qchemrc.
molden_format             true
The previous job contains 0 fragments, simply inherited here

Checking the input file for inconsistencies... 	...done.

--------------------------------------------------------------
User input:
--------------------------------------------------------------

$molecule
read
$end

$rem
sym_ignore      true
scf_guess       read
jobtype         freq
method          b3lyp
basis           6-311++G(d,p)
dft_d           d3_op
mem_total       62000
MEM_STATIC      4000
ao2mo_disk      350000
max_scf_cycles  200
$end
--------------------------------------------------------------

             Standard Nuclear Orientation (Angstroms)
    I     Atom           X                Y                Z
 ----------------------------------------------------------------
    1      C      -0.6003523088     0.4742599571    -0.8585149726
    2      C      -0.4860567100    -1.0134825069    -0.3184069259
    3      C       0.6531222155     1.3108318184    -0.6597946087
    4      C       0.8531547361    -1.3406219606     0.3140355984
    5      O       0.6909758786     1.9084911901     0.5404072233
    6      O       1.5227328931     1.4202156048    -1.4923009185
    7      O       1.7425273921    -1.6685348029    -0.6453931415
    8      O       1.1117833452    -1.3160524597     1.4908795517
    9      C       3.0936243538    -1.9067775523    -0.2115103829
   10      C       1.8700134146     2.6796412669     0.8334180596
   11      C      -1.8518179830     0.9500601192    -0.0735421664
   12      C      -3.1113638718     0.2889061323    -0.6811400017
   13      C      -2.9916330550    -1.1599675854    -0.1143907112
   14      C      -1.6712562553    -1.0544276963     0.6787631721
   15      O      -1.7191340889     0.2839760669     1.1864621927
   16      H      -0.7676634795     0.4595663713    -1.9351843322
   17      H      -0.6255193506    -1.7046507306    -1.1503844792
   18      H       3.5071256687    -1.0052304668     0.2430960810
   19      H       1.9961911049     3.4792835623     0.1020093231
   20      H      -1.9078622076     2.0239269931     0.0838045254
   21      H      -4.0112623988     0.7858604092    -0.3167082646
   22      H      -3.1220230354     0.3254293744    -1.7722911627
   23      H      -3.8162995919    -1.3915465354     0.5608722181
   24      H      -2.9628559540    -1.9270727855    -0.8912670624
   25      H      -1.5412528787    -1.7523315854     1.5015428384
   26      H       3.1259319379    -2.7243420057     0.5101072660
   27      H       3.6453439001    -2.1640539035    -1.1125649074
   28      H       2.7526966792     2.0385179637     0.8226636116
   29      H       1.7067490293     3.0859826672     1.8285763665
 ----------------------------------------------------------------

    2    -765.8587885954      2.74E-09 Convergence criterion met
 Total energy in the final basis set = -765.85878860

                    Orbital Energies (a.u.)
 --------------------------------------------------------------

 Alpha MOs
 -- Occupied --
-19.174 -19.174 -19.129 -19.119 -19.117 -10.307 -10.307 -10.235
-10.232 -10.228 -10.228 -10.209 -10.208 -10.182 -10.181  -1.118
 -1.115  -1.063  -1.030  -1.027  -0.832  -0.784  -0.778  -0.738
 -0.727  -0.656  -0.609  -0.596  -0.577  -0.563  -0.548  -0.519
 -0.501  -0.494  -0.491  -0.483  -0.481  -0.470  -0.461  -0.429
 -0.424  -0.424  -0.409  -0.400  -0.383  -0.371  -0.369  -0.366
 -0.360  -0.358  -0.340  -0.338  -0.320  -0.310  -0.290  -0.281
 -0.272

          Ground-State Mulliken Net Atomic Charges

     Atom                 Charge (a.u.)
  ----------------------------------------
      1 C                     0.215224
      2 C                    -0.088855
      3 C                    -0.596807
      4 C                    -0.333634
      5 O                     0.020565
      6 O                    -0.179474
      7 O                     0.014506
      8 O                    -0.195053
      9 C                    -0.187372
     10 C                    -0.186790
     11 C                     0.001426
     12 C                    -0.537505
     13 C                    -0.429741
     14 C                    -0.105105
     15 O                    -0.122945
     16 H                     0.267335
     17 H                     0.275053
     18 H                     0.176189
     19 H                     0.174450
     20 H                     0.266161
     21 H                     0.183990
     22 H                     0.117431
     23 H                     0.187539
     24 H                     0.123143
     25 H                     0.271198
     26 H                     0.170209
     27 H                     0.159687
     28 H                     0.173109
     29 H                     0.166066
  ----------------------------------------
  Sum of atomic charges =    -0.000000

                    Cartesian Multipole Moments
 -----------------------------------------------------------------
    Charge (ESU x 10^10)
                -0.0000
    Dipole Moment (Debye)
         X      -0.7529      Y      -0.3991      Z      -1.3172
       Tot       1.5688
    Quadrupole Moments (Debye-Ang)
        XX     -78.7293     XY       0.1215     YY     -80.2396
        XZ       6.5531     YZ       4.3949     ZZ     -98.3023

 Frequency:       -57.53                  53.62                  60.14
 Force Cnst:      0.0110                 0.0066                 0.0089
 Red. Mass:       5.6547                 3.9089                 4.1672
 IR Intens:        0.921                  5.625                  1.248
 Frequency:        66.56                  90.02                 124.79
 Force Cnst:      0.0065                 0.0071                 0.0234
 Red. Mass:       2.4723                 1.4845                 2.5460
 IR Intens:        0.509                  0.457                  1.248
 Frequency:       136.98                 151.28                 173.99
 Force Cnst:      0.0395                 0.0170                 0.0614
 Red. Mass:       3.5769                 1.2635                 3.4443
 IR Intens:        2.885                  0.127                  0.751
 Frequency:       203.72                 251.13                 275.62
 Force Cnst:      0.1206                 0.1322                 0.1600
 Red. Mass:       4.9325                 3.5568                 3.5745
 IR Intens:        1.093                  3.844                  2.007
 Frequency:       294.72                 324.18                 335.40
 Force Cnst:      0.2067                 0.2046                 0.2605
 Red. Mass:       4.0394                 3.3041                 3.9305
 IR Intens:       14.762                  7.239                  1.587
 Frequency:       387.82                 409.53                 566.51
 Force Cnst:      0.5137                 0.7315                 0.7238
 Red. Mass:       5.7966                 7.4026                 3.8280
 IR Intens:       10.910                  5.512                 26.337
 Frequency:       650.63                 686.93                 696.71
 Force Cnst:      1.0802                 1.6597                 1.5892
 Red. Mass:       4.3308                 5.9699                 5.5570
 IR Intens:        2.124                  7.358                  4.425
 Frequency:       733.97                 799.64                 801.30
 Force Cnst:      2.3242                 0.7999                 1.6751
 Red. Mass:       7.3228                 2.1232                 4.4280
 IR Intens:        0.558                  9.844                 17.427
 Frequency:       828.08                 843.12                 861.33
 Force Cnst:      1.7148                 1.2697                 2.2246
 Red. Mass:       4.2445                 3.0317                 5.0894
 IR Intens:       14.140                  1.561                  2.151
 Frequency:       888.64                 897.13                 919.14
 Force Cnst:      1.5673                 1.2942                 1.4876
 Red. Mass:       3.3686                 2.7293                 2.9887
 IR Intens:        3.171                  3.705                  3.715
 Frequency:       946.84                 951.79                 969.67
 Force Cnst:      1.7995                 2.0213                 1.8933
 Red. Mass:       3.4069                 3.7871                 3.4175
 IR Intens:       16.623                  5.245                 13.506
 Frequency:       975.51                1020.94                1029.57
 Force Cnst:      1.3664                 2.7783                 1.6851
 Red. Mass:       2.4371                 4.5241                 2.6982
 IR Intens:       27.283                 35.921                 15.031
 Frequency:      1050.82                1067.54                1073.63
 Force Cnst:      2.1086                 2.6045                 1.4458
 Red. Mass:       3.2410                 3.8789                 2.1289
 IR Intens:       25.589                 27.911                 19.350
 Frequency:      1161.95                1168.96                1170.25
 Force Cnst:      0.9658                 1.0579                 1.0492
 Red. Mass:       1.2141                 1.3140                 1.3003
 IR Intens:       27.016                 17.384                  1.829
 Frequency:      1183.60                1194.96                1207.72
 Force Cnst:      1.6119                 1.3362                 1.2751
 Red. Mass:       1.9529                 1.5883                 1.4838
 IR Intens:      124.386                 82.453                  6.936
 Frequency:      1211.68                1231.29                1237.47
 Force Cnst:      1.4354                 1.1475                 1.2709
 Red. Mass:       1.6594                 1.2847                 1.4087
 IR Intens:      100.585                  7.438                  9.878
 Frequency:      1245.90                1274.64                1286.82
 Force Cnst:      1.3550                 1.8907                 1.4601
 Red. Mass:       1.4815                 1.9752                 1.4965
 IR Intens:       27.079                148.436                  9.340
 Frequency:      1292.25                1307.90                1315.22
 Force Cnst:      1.7919                 1.3659                 1.4885
 Red. Mass:       1.8212                 1.3552                 1.4605
 IR Intens:      133.486                 17.156                 11.688
 Frequency:      1345.86                1363.44                1386.01
 Force Cnst:      1.6099                 1.6139                 1.9962
 Red. Mass:       1.5085                 1.4735                 1.7637
 IR Intens:       18.893                  0.759                 69.025
 Frequency:      1467.79                1469.11                1482.50
 Force Cnst:      1.5405                 1.5216                 1.3524
 Red. Mass:       1.2136                 1.1965                 1.0444
 IR Intens:        7.007                 21.608                 12.957
 Frequency:      1484.60                1485.97                1493.37
 Force Cnst:      1.3572                 1.4080                 1.3773
 Red. Mass:       1.0451                 1.0823                 1.0482
 IR Intens:        6.715                  2.059                  3.543
 Frequency:      1493.84                1505.87                1773.02
 Force Cnst:      1.3776                 1.4707                20.1737
 Red. Mass:       1.0478                 1.1008                10.8920
 IR Intens:        9.754                  7.530                192.503
 Frequency:      1795.88                3049.84                3050.57
 Force Cnst:     21.3008                 5.6449                 5.6472
 Red. Mass:      11.2096                 1.0300                 1.0300
 IR Intens:      304.672                 15.998                 49.402
 Frequency:      3057.73                3067.26                3087.51
 Force Cnst:      5.8367                 5.8811                 6.1025
 Red. Mass:       1.0596                 1.0610                 1.0865
 IR Intens:       25.384                 32.853                  6.797
 Frequency:      3096.88                3106.53                3116.49
 Force Cnst:      6.2443                 6.1928                 6.3097
 Red. Mass:       1.1051                 1.0891                 1.1026
 IR Intens:        1.379                  6.720                 40.712
 Frequency:      3123.04                3123.57                3145.12
 Force Cnst:      6.3622                 6.3644                 6.3417
 Red. Mass:       1.1071                 1.1072                 1.0881
 IR Intens:       35.699                  3.954                 25.645
 Frequency:      3149.62                3159.83                3161.60
 Force Cnst:      6.3810                 6.5048                 6.5120
 Red. Mass:       1.0918                 1.1057                 1.1057
 IR Intens:        2.774                 12.091                 10.851

 STANDARD THERMODYNAMIC QUANTITIES AT   298.15 K  AND     1.00 ATM

   This Molecule has  1 Imaginary Frequencies
   Zero point vibrational energy:      148.865 kcal/mol

   Atom    1 Element C  Has Mass   12.00000
   Atom    2 Element C  Has Mass   12.00000
   Atom    3 Element C  Has Mass   12.00000
   Atom    4 Element C  Has Mass   12.00000
   Atom    5 Element O  Has Mass   15.99491
   Atom    6 Element O  Has Mass   15.99491
   Atom    7 Element O  Has Mass   15.99491
   Atom    8 Element O  Has Mass   15.99491
   Atom    9 Element C  Has Mass   12.00000
   Atom   10 Element C  Has Mass   12.00000
   Atom   11 Element C  Has Mass   12.00000
   Atom   12 Element C  Has Mass   12.00000
   Atom   13 Element C  Has Mass   12.00000
   Atom   14 Element C  Has Mass   12.00000
   Atom   15 Element O  Has Mass   15.99491
   Atom   16 Element H  Has Mass    1.00783
   Atom   17 Element H  Has Mass    1.00783
   Atom   18 Element H  Has Mass    1.00783
   Atom   19 Element H  Has Mass    1.00783
   Atom   20 Element H  Has Mass    1.00783
   Atom   21 Element H  Has Mass    1.00783
   Atom   22 Element H  Has Mass    1.00783
   Atom   23 Element H  Has Mass    1.00783
   Atom   24 Element H  Has Mass    1.00783
   Atom   25 Element H  Has Mass    1.00783
   Atom   26 Element H  Has Mass    1.00783
   Atom   27 Element H  Has Mass    1.00783
   Atom   28 Element H  Has Mass    1.00783
   Atom   29 Element H  Has Mass    1.00783
   Molecular Mass:   214.084170 amu
   Principal axes and moments of inertia in amu*Bohr^2:
                             1           2           3
    Eigenvalues --     2168.59491  3219.75240  4258.12472
          X               0.99986    -0.00680     0.01504
          Y               0.00607     0.99883     0.04795
          Z              -0.01535    -0.04785     0.99874
   Rotational Symmetry Number is   1
   The Molecule is an Asymmetric Top
   Translational Enthalpy:        0.889 kcal/mol
   Rotational Enthalpy:           0.889 kcal/mol
   Vibrational Enthalpy:        155.695 kcal/mol
   gas constant (RT):             0.592 kcal/mol
   Translational Entropy:        41.987  cal/mol.K
   Rotational Entropy:           31.764  cal/mol.K
   Vibrational Entropy:          43.934  cal/mol.K

   Total Enthalpy:              158.065 kcal/mol
   Total Entropy:               117.684  cal/mol.K

 Total job time:  5935.26s(wall), 20365.23s(cpu)
        *  Thank you very much for using Q-Chem.  Have a nice day.  *
