 Q-Chem 5.0, Q-Chem, Inc., Pleasanton, CA (2017)
 Q-Chem 5.0.1 for Intel X86 EM64T Linux

User input:
--------------------------------------------------------------
$molecule
0  1
C        +0.25244000        +2.72917000        +6.03134000
C        +0.65600000        +1.27076000        +6.44410000
C        -1.15226000        +2.91652000        +5.48916000
C        -0.34483000        +0.16786000        +6.16872000
O        -2.06198000        +2.47261000        +6.38505000
O        -1.44362000        +3.44368000        +4.44657000
O        -0.88390000        +0.25637000        +4.93919000
O        -0.59234000        -0.72448000        +6.94450000
C        -1.83160000        -0.76312000        +4.57979000
C        -3.44094000        +2.55921000        +5.98459000
C        +1.35982000        +3.08403000        +5.01048000
C        +2.66044000        +3.40129000        +5.77394000
C        +3.07310000        +1.97780000        +6.24839000
C        +1.97397000        +1.09130000        +5.59801000
O        +1.65814000        +1.82092000        +4.40163000
H        +0.30785000        +3.37215000        +6.91439000
H        +0.86897000        +1.20387000        +7.50947000
H        -2.65775000        -0.78248000        +5.29243000
H        -3.73102000        +3.59951000        +5.82945000
H        +3.40208000        +3.82211000        +5.09344000
H        +2.51210000        +4.10917000        +6.59190000
H        +4.05156000        +1.69423000        +5.85700000
H        +3.10333000        +1.87167000        +7.33467000
H        -2.18174000        -0.49336000        +3.58602000
H        -1.35088000        -1.74268000        +4.56443000
H        -4.00881000        +2.12052000        +6.80210000
H        -3.60146000        +2.00129000        +5.06044000
H        +1.06244000        +3.88372000        +4.36475000
H        +2.27313000        +0.06933000        +5.49325000
@C        +0.22270000        +1.04488000        +0.58595000
@C        +0.62626000        -0.41353000        +0.99871000
@C        -1.18200000        +1.23223000        +0.04377000
@C        -0.37457000        -1.51643000        +0.72333000
@O        -2.09172000        +0.78832000        +0.93966000
@O        -1.47336000        +1.75939000        -0.99882000
@O        -0.91364000        -1.42792000        -0.50620000
@O        -0.62208000        -2.40877000        +1.49911000
@C        -1.86134000        -2.44741000        -0.86560000
@C        -3.47068000        +0.87492000        +0.53920000
@C        +1.33008000        +1.39974000        -0.43491000
@C        +2.63070000        +1.71700000        +0.32855000
@C        +3.04336000        +0.29351000        +0.80300000
@C        +1.94423000        -0.59299000        +0.15262000
@O        +1.62840000        +0.13663000        -1.04376000
@H        +0.27811000        +1.68786000        +1.46900000
@H        +0.83923000        -0.48042000        +2.06408000
@H        -2.68749000        -2.46677000        -0.15296000
@H        -3.76076000        +1.91522000        +0.38406000
@H        +3.37234000        +2.13782000        -0.35195000
@H        +2.48236000        +2.42488000        +1.14651000
@H        +4.02182000        +0.00994000        +0.41161000
@H        +3.07359000        +0.18738000        +1.88928000
@H        -2.21148000        -2.17765000        -1.85937000
@H        -1.38062000        -3.42697000        -0.88096000
@H        -4.03855000        +0.43623000        +1.35671000
@H        -3.63120000        +0.31700000        -0.38495000
@H        +1.03270000        +2.19943000        -1.08064000
@H        +2.24339000        -1.61496000        +0.04786000
$end

$rem
JOBTYPE                   SP
METHOD                    B3LYP
DFT_D                     d3_op
BASIS                     6-311++G(d,p)
SYMMETRY                  False
THRESH                    12
SCF_CONVERGENCE           8
MAX_SUB_FILE_NUM          128
MEM_STATIC                400
MEM_TOTAL                 4000
$end
--------------------------------------------------------------

             Standard Nuclear Orientation (Angstroms)
    I     Atom           X                Y                Z
 ----------------------------------------------------------------
    1      C       0.2524400000     2.7291700000     6.0313400000
    2      C       0.6560000000     1.2707600000     6.4441000000
    3      C      -1.1522600000     2.9165200000     5.4891600000
    4      C      -0.3448300000     0.1678600000     6.1687200000
    5      O      -2.0619800000     2.4726100000     6.3850500000
    6      O      -1.4436200000     3.4436800000     4.4465700000
    7      O      -0.8839000000     0.2563700000     4.9391900000
    8      O      -0.5923400000    -0.7244800000     6.9445000000
    9      C      -1.8316000000    -0.7631200000     4.5797900000
   10      C      -3.4409400000     2.5592100000     5.9845900000
   11      C       1.3598200000     3.0840300000     5.0104800000
   12      C       2.6604400000     3.4012900000     5.7739400000
   13      C       3.0731000000     1.9778000000     6.2483900000
   14      C       1.9739700000     1.0913000000     5.5980100000
   15      O       1.6581400000     1.8209200000     4.4016300000
   16      H       0.3078500000     3.3721500000     6.9143900000
   17      H       0.8689700000     1.2038700000     7.5094700000
   18      H      -2.6577500000    -0.7824800000     5.2924300000
   19      H      -3.7310200000     3.5995100000     5.8294500000
   20      H       3.4020800000     3.8221100000     5.0934400000
   21      H       2.5121000000     4.1091700000     6.5919000000
   22      H       4.0515600000     1.6942300000     5.8570000000
   23      H       3.1033300000     1.8716700000     7.3346700000
   24      H      -2.1817400000    -0.4933600000     3.5860200000
   25      H      -1.3508800000    -1.7426800000     4.5644300000
   26      H      -4.0088100000     2.1205200000     6.8021000000
   27      H      -3.6014600000     2.0012900000     5.0604400000
   28      H       1.0624400000     3.8837200000     4.3647500000
   29      H       2.2731300000     0.0693300000     5.4932500000
   30      GH      0.2227000000     1.0448800000     0.5859500000
   31      GH      0.6262600000    -0.4135300000     0.9987100000
   32      GH     -1.1820000000     1.2322300000     0.0437700000
   33      GH     -0.3745700000    -1.5164300000     0.7233300000
   34      GH     -2.0917200000     0.7883200000     0.9396600000
   35      GH     -1.4733600000     1.7593900000    -0.9988200000
   36      GH     -0.9136400000    -1.4279200000    -0.5062000000
   37      GH     -0.6220800000    -2.4087700000     1.4991100000
   38      GH     -1.8613400000    -2.4474100000    -0.8656000000
   39      GH     -3.4706800000     0.8749200000     0.5392000000
   40      GH      1.3300800000     1.3997400000    -0.4349100000
   41      GH      2.6307000000     1.7170000000     0.3285500000
   42      GH      3.0433600000     0.2935100000     0.8030000000
   43      GH      1.9442300000    -0.5929900000     0.1526200000
   44      GH      1.6284000000     0.1366300000    -1.0437600000
   45      GH      0.2781100000     1.6878600000     1.4690000000
   46      GH      0.8392300000    -0.4804200000     2.0640800000
   47      GH     -2.6874900000    -2.4667700000    -0.1529600000
   48      GH     -3.7607600000     1.9152200000     0.3840600000
   49      GH      3.3723400000     2.1378200000    -0.3519500000
   50      GH      2.4823600000     2.4248800000     1.1465100000
   51      GH      4.0218200000     0.0099400000     0.4116100000
   52      GH      3.0735900000     0.1873800000     1.8892800000
   53      GH     -2.2114800000    -2.1776500000    -1.8593700000
   54      GH     -1.3806200000    -3.4269700000    -0.8809600000
   55      GH     -4.0385500000     0.4362300000     1.3567100000
   56      GH     -3.6312000000     0.3170000000    -0.3849500000
   57      GH      1.0327000000     2.1994300000    -1.0806400000
   58      GH      2.2433900000    -1.6149600000     0.0478600000
 ----------------------------------------------------------------

   14    -765.8587540057      6.74E-09 Convergence criterion met
 Total energy in the final basis set = -765.85875401

                    Orbital Energies (a.u.)
 --------------------------------------------------------------

 Alpha MOs
 -- Occupied --
-19.176 -19.174 -19.136 -19.120 -19.116 -10.310 -10.306 -10.242
-10.232 -10.232 -10.230 -10.207 -10.206 -10.182 -10.180  -1.120
 -1.113  -1.065  -1.031  -1.028  -0.833  -0.785  -0.778  -0.740
 -0.729  -0.659  -0.610  -0.596  -0.580  -0.567  -0.551  -0.520
 -0.506  -0.496  -0.489  -0.484  -0.475  -0.473  -0.462  -0.439
 -0.427  -0.425  -0.418  -0.399  -0.385  -0.376  -0.371  -0.369
 -0.362  -0.356  -0.337  -0.334  -0.320  -0.313  -0.290  -0.282
 -0.276

          Ground-State Mulliken Net Atomic Charges

     Atom                 Charge (a.u.)
  ----------------------------------------
      1 C                    -0.044651
      2 C                     0.271788
      3 C                    -0.473795
      4 C                    -0.545958
      5 O                     0.013036
      6 O                    -0.126702
      7 O                    -0.004153
      8 O                    -0.152807
      9 C                    -0.317660
     10 C                    -0.163514
     11 C                    -0.162669
     12 C                    -0.619187
     13 C                    -0.459523
     14 C                    -0.094334
     15 O                     0.148439
     16 H                     0.243894
     17 H                     0.284791
     18 H                     0.217640
     19 H                     0.170120
     20 H                     0.185529
     21 H                     0.132284
     22 H                     0.180398
     23 H                     0.128101
     24 H                     0.121596
     25 H                     0.193133
     26 H                     0.165769
     27 H                     0.182275
     28 H                     0.267582
     29 H                     0.254826
     30 GH                   -0.096200
     31 GH                    0.075923
     32 GH                   -0.021150
     33 GH                   -0.015280
     34 GH                    0.002757
     35 GH                    0.000097
     36 GH                    0.000514
     37 GH                   -0.001388
     38 GH                    0.000434
     39 GH                    0.008169
     40 GH                   -0.020349
     41 GH                    0.019463
     42 GH                   -0.015022
     43 GH                    0.022069
     44 GH                    0.000369
     45 GH                    0.024275
     46 GH                    0.016712
     47 GH                    0.000620
     48 GH                   -0.000543
     49 GH                   -0.001121
     50 GH                    0.000474
     51 GH                   -0.000960
     52 GH                   -0.001773
     53 GH                    0.000049
     54 GH                   -0.000166
     55 GH                    0.004101
     56 GH                    0.000347
     57 GH                    0.000765
     58 GH                    0.000565
  ----------------------------------------
  Sum of atomic charges =     0.000000

                    Cartesian Multipole Moments
 -----------------------------------------------------------------
    Charge (ESU x 10^10)
                 0.0000
    Dipole Moment (Debye)
         X      -0.0133      Y       0.7288      Z       1.2081
       Tot       1.4110
    Quadrupole Moments (Debye-Ang)
        XX     -75.1728     XY       2.9511     YY     -87.2467
        XZ       3.3100     YZ      16.6908     ZZ     -82.6989

 Total job time:  6430.44s(wall), 6415.26s(cpu)
        *  Thank you very much for using Q-Chem.  Have a nice day.  *
