 Q-Chem 5.0, Q-Chem, Inc., Pleasanton, CA (2017)
 Q-Chem 5.0.1 for Intel X86 EM64T Linux

User input:
--------------------------------------------------------------
$molecule
0  1
--
0  1
C        +0.22270000        +1.04488000        +0.58595000
C        +0.62626000        -0.41353000        +0.99871000
C        -1.18200000        +1.23223000        +0.04377000
C        -0.37457000        -1.51643000        +0.72333000
O        -2.09172000        +0.78832000        +0.93966000
O        -1.47336000        +1.75939000        -0.99882000
O        -0.91364000        -1.42792000        -0.50620000
O        -0.62208000        -2.40877000        +1.49911000
C        -1.86134000        -2.44741000        -0.86560000
C        -3.47068000        +0.87492000        +0.53920000
C        +1.33008000        +1.39974000        -0.43491000
C        +2.63070000        +1.71700000        +0.32855000
C        +3.04336000        +0.29351000        +0.80300000
C        +1.94423000        -0.59299000        +0.15262000
O        +1.62840000        +0.13663000        -1.04376000
H        +0.27811000        +1.68786000        +1.46900000
H        +0.83923000        -0.48042000        +2.06408000
H        -2.68749000        -2.46677000        -0.15296000
H        -3.76076000        +1.91522000        +0.38406000
H        +3.37234000        +2.13782000        -0.35195000
H        +2.48236000        +2.42488000        +1.14651000
H        +4.02182000        +0.00994000        +0.41161000
H        +3.07359000        +0.18738000        +1.88928000
H        -2.21148000        -2.17765000        -1.85937000
H        -1.38062000        -3.42697000        -0.88096000
H        -4.03855000        +0.43623000        +1.35671000
H        -3.63120000        +0.31700000        -0.38495000
H        +1.03270000        +2.19943000        -1.08064000
H        +2.24339000        -1.61496000        +0.04786000
--
0  1
C        +0.25244000        +2.72917000        +6.03134000
C        +0.65600000        +1.27076000        +6.44410000
C        -1.15226000        +2.91652000        +5.48916000
C        -0.34483000        +0.16786000        +6.16872000
O        -2.06198000        +2.47261000        +6.38505000
O        -1.44362000        +3.44368000        +4.44657000
O        -0.88390000        +0.25637000        +4.93919000
O        -0.59234000        -0.72448000        +6.94450000
C        -1.83160000        -0.76312000        +4.57979000
C        -3.44094000        +2.55921000        +5.98459000
C        +1.35982000        +3.08403000        +5.01048000
C        +2.66044000        +3.40129000        +5.77394000
C        +3.07310000        +1.97780000        +6.24839000
C        +1.97397000        +1.09130000        +5.59801000
O        +1.65814000        +1.82092000        +4.40163000
H        +0.30785000        +3.37215000        +6.91439000
H        +0.86897000        +1.20387000        +7.50947000
H        -2.65775000        -0.78248000        +5.29243000
H        -3.73102000        +3.59951000        +5.82945000
H        +3.40208000        +3.82211000        +5.09344000
H        +2.51210000        +4.10917000        +6.59190000
H        +4.05156000        +1.69423000        +5.85700000
H        +3.10333000        +1.87167000        +7.33467000
H        -2.18174000        -0.49336000        +3.58602000
H        -1.35088000        -1.74268000        +4.56443000
H        -4.00881000        +2.12052000        +6.80210000
H        -3.60146000        +2.00129000        +5.06044000
H        +1.06244000        +3.88372000        +4.36475000
H        +2.27313000        +0.06933000        +5.49325000
$end

$rem
JOBTYPE                   SP
METHOD                    B3LYP
DFT_D                     d3_op
BASIS                     6-311++G(d,p)
SYMMETRY                  False
THRESH                    12
SCF_CONVERGENCE           8
MAX_SUB_FILE_NUM          128
MEM_STATIC                400
MEM_TOTAL                 4000
$end
--------------------------------------------------------------

             Standard Nuclear Orientation (Angstroms)
    I     Atom           X                Y                Z
 ----------------------------------------------------------------
    1      C      -2.0928773846     0.6069366791     0.8613698251
    2      C      -2.1818389648     0.6891980572    -0.7024428626
    3      C      -2.6118376377    -0.6656962769     1.5042748570
    4      C      -2.8693528617    -0.4531025604    -1.4210228399
    5      O      -1.9704505208    -1.7413586529     0.9955131469
    6      O      -3.4258090057    -0.7301057743     2.3891953347
    7      O      -4.0214949103    -0.8157409394    -0.8283706553
    8      O      -2.4587901393    -0.9483890527    -2.4435178402
    9      C      -4.7566022506    -1.8810778734    -1.4539407356
   10      C      -2.3894244161    -3.0240024972     1.4941955076
   11      C      -2.8715154663     1.8745960585     1.2869678270
   12      C      -1.9781934718     3.1097189658     1.0598452138
   13      C      -1.9968638638     3.1997276857    -0.4936233906
   14      C      -2.9676645185     2.0454187085    -0.8705584320
   15      O      -3.8581794139     2.0119927367     0.2560670439
   16      H      -1.0418183604     0.6704811236     1.1571871373
   17      H      -1.1935750172     0.7570663088    -1.1536324017
   18      H      -4.1379346404    -2.7768119440    -1.5292086869
   19      H      -2.1953622864    -3.1015841813     2.5650642615
   20      H      -2.4341727543     3.9912407288     1.5128373631
   21      H      -0.9768178823     2.9938217477     1.4793355895
   22      H      -2.4093670173     4.1511088200    -0.8337662053
   23      H      -1.0119968097     3.0796125888    -0.9494642809
   24      H      -5.6156794019    -2.0550110896    -0.8099834586
   25      H      -5.0799070370    -1.5859568499    -2.4535621830
   26      H      -1.8017975194    -3.7555435108     0.9439317265
   27      H      -3.4555739697    -3.1699415848     1.3122022896
   28      H      -3.2203588516     1.8055992012     2.2961526067
   29      H      -3.3989127302     2.1663961628    -1.8423009285
   30      C       3.5939312332     0.2842706134     0.6466982657
   31      C       3.5049696530     0.3665319915    -0.9171144220
   32      C       3.0749709801    -0.9883623425     1.2896032975
   33      C       2.8174557561    -0.7757686261    -1.6356943993
   34      O       3.7163580970    -2.0640247186     0.7808415875
   35      O       2.2609996121    -1.0527718399     2.1745237753
   36      O       1.6653137075    -1.1384070050    -1.0430422148
   37      O       3.2280184785    -1.2710551183    -2.6581893996
   38      C       0.9302063672    -2.2037439390    -1.6686122950
   39      C       3.2973842017    -3.3466685629     1.2795239482
   40      C       2.8152931515     1.5519299928     1.0722962675
   41      C       3.7086151460     2.7870529001     0.8451736544
   42      C       3.6899447539     2.8770616201    -0.7082949500
   43      C       2.7191440993     1.7227526429    -1.0852299915
   44      O       1.8286292039     1.6893266710     0.0413954845
   45      H       4.6449902574     0.3478150579     0.9425155779
   46      H       4.4932336005     0.4344002432    -1.3683039612
   47      H       1.5488739774    -3.0994780097    -1.7438802464
   48      H       3.4914463314    -3.4242502469     2.3503927021
   49      H       3.2526358635     3.6685746631     1.2981658036
   50      H       4.7099907355     2.6711556820     1.2646640301
   51      H       3.2774416005     3.8284427543    -1.0484377648
   52      H       4.6748118081     2.7569465231    -1.1641358403
   53      H       0.0711292159    -2.3776771552    -1.0246550181
   54      H       0.6069015808    -1.9086229155    -2.6682337425
   55      H       3.8850110984    -4.0782095764     0.7292601670
   56      H       2.2312346481    -3.4926076504     1.0975307302
   57      H       2.4664497661     1.4829331355     2.0814810472
   58      H       2.2878958876     1.8437300972    -2.0569724880
 ----------------------------------------------------------------

   15   -1531.7268201951      5.33E-09 Convergence criterion met
 Total energy in the final basis set = -1531.72682020

                    Orbital Energies (a.u.)
 --------------------------------------------------------------

 Alpha MOs
 -- Occupied --
-19.179 -19.172 -19.171 -19.170 -19.145 -19.128 -19.124 -19.116
-19.114 -19.113 -10.314 -10.306 -10.303 -10.303 -10.248 -10.238
-10.235 -10.235 -10.229 -10.228 -10.223 -10.222 -10.211 -10.210
-10.198 -10.196 -10.187 -10.186 -10.173 -10.170  -1.122  -1.116
 -1.113  -1.109  -1.073  -1.057  -1.035  -1.027  -1.025  -1.025
 -0.838  -0.825  -0.790  -0.783  -0.777  -0.770  -0.742  -0.735
 -0.728  -0.725  -0.662  -0.652  -0.614  -0.604  -0.602  -0.587
 -0.582  -0.574  -0.568  -0.562  -0.554  -0.545  -0.523  -0.513
 -0.509  -0.501  -0.500  -0.491  -0.489  -0.486  -0.483  -0.479
 -0.476  -0.474  -0.472  -0.467  -0.465  -0.454  -0.443  -0.433
 -0.429  -0.426  -0.422  -0.419  -0.419  -0.412  -0.400  -0.395
 -0.389  -0.377  -0.376  -0.375  -0.374  -0.371  -0.366  -0.364
 -0.360  -0.360  -0.355  -0.347  -0.342  -0.340  -0.329  -0.326
 -0.322  -0.316  -0.312  -0.309  -0.294  -0.287  -0.285  -0.280
 -0.278  -0.269

          Ground-State Mulliken Net Atomic Charges

     Atom                 Charge (a.u.)
  ----------------------------------------
      1 C                    -0.108056
      2 C                     0.817617
      3 C                    -0.595303
      4 C                    -0.777507
      5 O                     0.039188
      6 O                    -0.186928
      7 O                     0.009766
      8 O                    -0.134741
      9 C                    -0.197978
     10 C                    -0.238771
     11 C                    -0.398082
     12 C                    -0.267316
     13 C                    -0.432562
     14 C                    -0.168625
     15 O                    -0.088416
     16 H                     0.218690
     17 H                     0.349213
     18 H                     0.185606
     19 H                     0.186613
     20 H                     0.200019
     21 H                     0.113607
     22 H                     0.192619
     23 H                     0.089894
     24 H                     0.173104
     25 H                     0.174983
     26 H                     0.131527
     27 H                     0.184529
     28 H                     0.282444
     29 H                     0.263611
     30 C                    -0.032249
     31 C                     0.279665
     32 C                    -0.448025
     33 C                    -0.550775
     34 O                     0.014481
     35 O                    -0.132758
     36 O                    -0.013453
     37 O                    -0.149975
     38 C                    -0.323289
     39 C                    -0.167056
     40 C                    -0.191308
     41 C                    -0.619366
     42 C                    -0.459290
     43 C                    -0.110954
     44 O                     0.132556
     45 H                     0.246661
     46 H                     0.287393
     47 H                     0.209766
     48 H                     0.170084
     49 H                     0.183954
     50 H                     0.135636
     51 H                     0.180000
     52 H                     0.131424
     53 H                     0.125201
     54 H                     0.207467
     55 H                     0.167093
     56 H                     0.181741
     57 H                     0.269956
     58 H                     0.256675
  ----------------------------------------
  Sum of atomic charges =    -0.000000

                    Cartesian Multipole Moments
 -----------------------------------------------------------------
    Charge (ESU x 10^10)
                -0.0000
    Dipole Moment (Debye)
         X       3.1939      Y      -0.0251      Z       0.5918
       Tot       3.2484
    Quadrupole Moments (Debye-Ang)
        XX    -177.3179     XY      14.2929     YY    -153.4412
        XZ      17.5437     YZ      -6.7627     ZZ    -193.3775

 Total job time:  7053.24s(wall), 7036.47s(cpu)
        *  Thank you very much for using Q-Chem.  Have a nice day.  *
