 Q-Chem 5.0, Q-Chem, Inc., Pleasanton, CA (2017)
 Q-Chem 5.0.1 for Intel X86 EM64T Linux

User input:
--------------------------------------------------------------
$molecule
0  1
C        -0.54444000        -0.68370000        -0.06689000
C        -0.55709000        +0.71878000        +0.05493000
C        +0.74969000        -1.43776000        -0.09374000
C        +0.72843000        +1.48436000        +0.06598000
O        +1.53645000        -1.09176000        +0.94813000
O        +1.04702000        -2.28405000        -0.90088000
O        +1.53784000        +1.08301000        -0.93877000
O        +1.01035000        +2.37097000        +0.83478000
C        +2.83449000        +1.70121000        -0.99358000
C        +2.82316000        -1.73208000        +1.00475000
C        -1.74320000        -1.41616000        -0.12552000
C        -2.93952000        -0.70056000        -0.05285000
C        -2.95313000        +0.68255000        +0.06934000
C        -1.77161000        +1.42404000        +0.12810000
H        +2.73835000        +2.77989000        -1.12464000
H        +2.70778000        -2.81319000        +1.09555000
H        -3.90354000        +1.20325000        +0.11710000
H        +3.38998000        +1.50093000        -0.07544000
H        +3.33184000        +1.25269000        -1.85067000
H        +3.31095000        -1.32281000        +1.88650000
H        +3.39889000        -1.50934000        +0.10459000
H        -3.87892000        -1.24211000        -0.08988000
H        -1.78886000        +2.45164000        +0.22176000
H        -1.73878000        -2.44393000        -0.21875000
@C        -0.50522000        -1.18069000        +5.61127000
@C        -0.51787000        +0.22179000        +5.73309000
@C        +0.78891000        -1.93475000        +5.58442000
@C        +0.76765000        +0.98737000        +5.74414000
@O        +1.57567000        -1.58875000        +6.62629000
@O        +1.08624000        -2.78104000        +4.77728000
@O        +1.57706000        +0.58602000        +4.73939000
@O        +1.04957000        +1.87398000        +6.51294000
@C        +2.87371000        +1.20422000        +4.68458000
@C        +2.86238000        -2.22907000        +6.68291000
@C        -1.70398000        -1.91315000        +5.55264000
@C        -2.90030000        -1.19755000        +5.62531000
@C        -2.91391000        +0.18556000        +5.74750000
@C        -1.73239000        +0.92705000        +5.80626000
@H        +2.77757000        +2.28290000        +4.55352000
@H        +2.74700000        -3.31018000        +6.77371000
@H        -3.86432000        +0.70626000        +5.79526000
@H        +3.42920000        +1.00394000        +5.60272000
@H        +3.37106000        +0.75570000        +3.82749000
@H        +3.35017000        -1.81980000        +7.56466000
@H        +3.43811000        -2.00633000        +5.78275000
@H        -3.83970000        -1.73910000        +5.58828000
@H        -1.74964000        +1.95465000        +5.89992000
@H        -1.69956000        -2.94092000        +5.45941000
$end

$rem
JOBTYPE                   SP
METHOD                    B3LYP
DFT_D                     d3_op
BASIS                     6-311++G(d,p)
SYMMETRY                  False
THRESH                    12
SCF_CONVERGENCE           8
MAX_SUB_FILE_NUM          128
MEM_STATIC                400
MEM_TOTAL                 4000
$end
--------------------------------------------------------------

             Standard Nuclear Orientation (Angstroms)
    I     Atom           X                Y                Z
 ----------------------------------------------------------------
    1      C      -0.5444400000    -0.6837000000    -0.0668900000
    2      C      -0.5570900000     0.7187800000     0.0549300000
    3      C       0.7496900000    -1.4377600000    -0.0937400000
    4      C       0.7284300000     1.4843600000     0.0659800000
    5      O       1.5364500000    -1.0917600000     0.9481300000
    6      O       1.0470200000    -2.2840500000    -0.9008800000
    7      O       1.5378400000     1.0830100000    -0.9387700000
    8      O       1.0103500000     2.3709700000     0.8347800000
    9      C       2.8344900000     1.7012100000    -0.9935800000
   10      C       2.8231600000    -1.7320800000     1.0047500000
   11      C      -1.7432000000    -1.4161600000    -0.1255200000
   12      C      -2.9395200000    -0.7005600000    -0.0528500000
   13      C      -2.9531300000     0.6825500000     0.0693400000
   14      C      -1.7716100000     1.4240400000     0.1281000000
   15      H       2.7383500000     2.7798900000    -1.1246400000
   16      H       2.7077800000    -2.8131900000     1.0955500000
   17      H      -3.9035400000     1.2032500000     0.1171000000
   18      H       3.3899800000     1.5009300000    -0.0754400000
   19      H       3.3318400000     1.2526900000    -1.8506700000
   20      H       3.3109500000    -1.3228100000     1.8865000000
   21      H       3.3988900000    -1.5093400000     0.1045900000
   22      H      -3.8789200000    -1.2421100000    -0.0898800000
   23      H      -1.7888600000     2.4516400000     0.2217600000
   24      H      -1.7387800000    -2.4439300000    -0.2187500000
   25      GH     -0.5052200000    -1.1806900000     5.6112700000
   26      GH     -0.5178700000     0.2217900000     5.7330900000
   27      GH      0.7889100000    -1.9347500000     5.5844200000
   28      GH      0.7676500000     0.9873700000     5.7441400000
   29      GH      1.5756700000    -1.5887500000     6.6262900000
   30      GH      1.0862400000    -2.7810400000     4.7772800000
   31      GH      1.5770600000     0.5860200000     4.7393900000
   32      GH      1.0495700000     1.8739800000     6.5129400000
   33      GH      2.8737100000     1.2042200000     4.6845800000
   34      GH      2.8623800000    -2.2290700000     6.6829100000
   35      GH     -1.7039800000    -1.9131500000     5.5526400000
   36      GH     -2.9003000000    -1.1975500000     5.6253100000
   37      GH     -2.9139100000     0.1855600000     5.7475000000
   38      GH     -1.7323900000     0.9270500000     5.8062600000
   39      GH      2.7775700000     2.2829000000     4.5535200000
   40      GH      2.7470000000    -3.3101800000     6.7737100000
   41      GH     -3.8643200000     0.7062600000     5.7952600000
   42      GH      3.4292000000     1.0039400000     5.6027200000
   43      GH      3.3710600000     0.7557000000     3.8274900000
   44      GH      3.3501700000    -1.8198000000     7.5646600000
   45      GH      3.4381100000    -2.0063300000     5.7827500000
   46      GH     -3.8397000000    -1.7391000000     5.5882800000
   47      GH     -1.7496400000     1.9546500000     5.8999200000
   48      GH     -1.6995600000    -2.9409200000     5.4594100000
 ----------------------------------------------------------------

   14    -688.2108750394      5.70E-09 Convergence criterion met
 Total energy in the final basis set = -688.21087504

                    Orbital Energies (a.u.)
 --------------------------------------------------------------

 Alpha MOs
 -- Occupied --
-19.178 -19.178 -19.122 -19.122 -10.314 -10.314 -10.233 -10.233
-10.215 -10.214 -10.198 -10.198 -10.197 -10.197  -1.123  -1.117
 -1.033  -1.032  -0.887  -0.800  -0.787  -0.744  -0.733  -0.656
 -0.646  -0.596  -0.579  -0.555  -0.524  -0.516  -0.493  -0.492
 -0.485  -0.479  -0.472  -0.468  -0.440  -0.431  -0.416  -0.408
 -0.389  -0.387  -0.384  -0.369  -0.366  -0.324  -0.315  -0.301
 -0.297  -0.275  -0.272

          Ground-State Mulliken Net Atomic Charges

     Atom                 Charge (a.u.)
  ----------------------------------------
      1 C                     0.798831
      2 C                     0.978593
      3 C                    -0.686834
      4 C                    -0.874157
      5 O                     0.083191
      6 O                    -0.179744
      7 O                     0.053561
      8 O                    -0.124941
      9 C                    -0.193733
     10 C                    -0.326604
     11 C                    -0.419530
     12 C                    -0.229300
     13 C                    -0.191055
     14 C                    -0.454801
     15 H                     0.171247
     16 H                     0.191208
     17 H                     0.183051
     18 H                     0.176893
     19 H                     0.172041
     20 H                     0.120910
     21 H                     0.188662
     22 H                     0.181064
     23 H                     0.187935
     24 H                     0.195506
     25 GH                   -0.037145
     26 GH                    0.056339
     27 GH                    0.012651
     28 GH                   -0.017036
     29 GH                    0.000021
     30 GH                   -0.000356
     31 GH                   -0.002652
     32 GH                   -0.000045
     33 GH                   -0.006321
     34 GH                   -0.002238
     35 GH                   -0.003406
     36 GH                   -0.010875
     37 GH                    0.008561
     38 GH                   -0.008672
     39 GH                   -0.000368
     40 GH                    0.000112
     41 GH                    0.000048
     42 GH                    0.000335
     43 GH                    0.009613
     44 GH                   -0.000105
     45 GH                    0.001397
     46 GH                   -0.000634
     47 GH                   -0.001661
     48 GH                    0.000446
  ----------------------------------------
  Sum of atomic charges =    -0.000000

                    Cartesian Multipole Moments
 -----------------------------------------------------------------
    Charge (ESU x 10^10)
                -0.0000
    Dipole Moment (Debye)
         X      -0.0469      Y      -0.1156      Z       0.0794
       Tot       0.1478
    Quadrupole Moments (Debye-Ang)
        XX     -61.3134     XY      -0.0461     YY     -84.3202
        XZ       0.0708     YZ      -9.7204     ZZ     -87.0507

 Total job time:  1103.99s(wall), 2191.02s(cpu)
        *  Thank you very much for using Q-Chem.  Have a nice day.  *
