 Q-Chem 5.0, Q-Chem, Inc., Pleasanton, CA (2017)
 Q-Chem 5.0.1 for Intel X86 EM64T Linux

User input:
--------------------------------------------------------------
$molecule
0  1
--
0  1
C        -0.54444000        -0.68370000        -0.06689000
C        -0.55709000        +0.71878000        +0.05493000
C        +0.74969000        -1.43776000        -0.09374000
C        +0.72843000        +1.48436000        +0.06598000
O        +1.53645000        -1.09176000        +0.94813000
O        +1.04702000        -2.28405000        -0.90088000
O        +1.53784000        +1.08301000        -0.93877000
O        +1.01035000        +2.37097000        +0.83478000
C        +2.83449000        +1.70121000        -0.99358000
C        +2.82316000        -1.73208000        +1.00475000
C        -1.74320000        -1.41616000        -0.12552000
C        -2.93952000        -0.70056000        -0.05285000
C        -2.95313000        +0.68255000        +0.06934000
C        -1.77161000        +1.42404000        +0.12810000
H        +2.73835000        +2.77989000        -1.12464000
H        +2.70778000        -2.81319000        +1.09555000
H        -3.90354000        +1.20325000        +0.11710000
H        +3.38998000        +1.50093000        -0.07544000
H        +3.33184000        +1.25269000        -1.85067000
H        +3.31095000        -1.32281000        +1.88650000
H        +3.39889000        -1.50934000        +0.10459000
H        -3.87892000        -1.24211000        -0.08988000
H        -1.78886000        +2.45164000        +0.22176000
H        -1.73878000        -2.44393000        -0.21875000
--
0  1
C        -0.50522000        -1.18069000        +5.61127000
C        -0.51787000        +0.22179000        +5.73309000
C        +0.78891000        -1.93475000        +5.58442000
C        +0.76765000        +0.98737000        +5.74414000
O        +1.57567000        -1.58875000        +6.62629000
O        +1.08624000        -2.78104000        +4.77728000
O        +1.57706000        +0.58602000        +4.73939000
O        +1.04957000        +1.87398000        +6.51294000
C        +2.87371000        +1.20422000        +4.68458000
C        +2.86238000        -2.22907000        +6.68291000
C        -1.70398000        -1.91315000        +5.55264000
C        -2.90030000        -1.19755000        +5.62531000
C        -2.91391000        +0.18556000        +5.74750000
C        -1.73239000        +0.92705000        +5.80626000
H        +2.77757000        +2.28290000        +4.55352000
H        +2.74700000        -3.31018000        +6.77371000
H        -3.86432000        +0.70626000        +5.79526000
H        +3.42920000        +1.00394000        +5.60272000
H        +3.37106000        +0.75570000        +3.82749000
H        +3.35017000        -1.81980000        +7.56466000
H        +3.43811000        -2.00633000        +5.78275000
H        -3.83970000        -1.73910000        +5.58828000
H        -1.74964000        +1.95465000        +5.89992000
H        -1.69956000        -2.94092000        +5.45941000
$end

$rem
JOBTYPE                   SP
METHOD                    B3LYP
DFT_D                     d3_op
BASIS                     6-311++G(d,p)
SYMMETRY                  False
THRESH                    12
SCF_CONVERGENCE           8
MAX_SUB_FILE_NUM          128
MEM_STATIC                400
MEM_TOTAL                 4000
$end
--------------------------------------------------------------

             Standard Nuclear Orientation (Angstroms)
    I     Atom           X                Y                Z
 ----------------------------------------------------------------
    1      C      -2.8290762072     0.8086293299     0.8166482532
    2      C      -2.8884661765     0.8300754282    -0.5897525367
    3      C      -2.7459503399    -0.4897207558     1.5592632329
    4      C      -2.9629536544    -0.4511468134    -1.3589844215
    5      O      -1.7493157813    -1.2633562930     1.0771760969
    6      O      -3.4347391435    -0.8002388740     2.5001327005
    7      O      -3.8997155914    -1.2734615820    -0.8374248106
    8      O      -2.3115722890    -0.7200345875    -2.3387860852
    9      C      -4.0204807818    -2.5673089009    -1.4521210631
   10      C      -1.5980926037    -2.5527809079     1.6963318639
   11      C      -2.8051576720     2.0027621589     1.5585615612
   12      C      -2.8369293778     3.2035975360     0.8475546786
   13      C      -2.8934750448     3.2259041727    -0.5396777828
   14      C      -2.9185963838     2.0490596912    -1.2904478228
   15      H      -4.2899057925    -2.4668304865    -2.5043968908
   16      H      -1.3703946818    -2.4422011754     2.7575961079
   17      H      -2.9224673670     4.1795388555    -1.0558454035
   18      H      -3.0787189429    -3.1139392109    -1.3750352602
   19      H      -4.8078752965    -3.0762476470    -0.9006487502
   20      H      -0.7713566378    -3.0288548795     1.1740433462
   21      H      -2.5136003204    -3.1369753620     1.5871136118
   22      H      -2.8135097478     4.1396406173     1.3956375686
   23      H      -2.9578257416     2.0728014465    -2.3214322575
   24      H      -2.7656083154     1.9918532006     2.5897450488
   25      C       2.8660036896     0.8279140299     0.5805734275
   26      C       2.8066137203     0.8493601282    -0.8258273624
   27      C       2.9491295569    -0.4704360558     1.3231884072
   28      C       2.7321262424    -0.4318621134    -1.5950592473
   29      O       3.9457641155    -1.2440715930     0.8411012712
   30      O       2.2603407533    -0.7809541740     2.2640578747
   31      O       1.7953643054    -1.2541768820    -1.0734996363
   32      O       3.3835076078    -0.7007498875    -2.5748609109
   33      C       1.6745991150    -2.5480242009    -1.6881958889
   34      C       4.0969872931    -2.5334962079     1.4602570382
   35      C       2.8899222248     2.0220468589     1.3224867354
   36      C       2.8581505190     3.2228822360     0.6114798529
   37      C       2.8016048520     3.2451888727    -0.7757526085
   38      C       2.7764835130     2.0683443912    -1.5265226485
   39      H       1.4051741043    -2.4475457865    -2.7404717165
   40      H       4.3246852151    -2.4229164754     2.5215212822
   41      H       2.7726125298     4.1988235555    -1.2919202292
   42      H       2.6163609539    -3.0946545109    -1.6111100859
   43      H       0.8872046003    -3.0569629470    -1.1367235759
   44      H       4.9237232590    -3.0095701795     0.9379685205
   45      H       3.1814795764    -3.1176906620     1.3510387861
   46      H       2.8815701490     4.1589253173     1.1595627429
   47      H       2.7372541553     2.0920861465    -2.5575070832
   48      H       2.9294715814     2.0111379006     2.3536702231
 ----------------------------------------------------------------

   15   -1376.4239370446      4.86E-09 Convergence criterion met
 Total energy in the final basis set = -1376.42393704

                    Orbital Energies (a.u.)
 --------------------------------------------------------------

 Alpha MOs
 -- Occupied --
-19.178 -19.177 -19.173 -19.172 -19.121 -19.121 -19.118 -19.117
-10.313 -10.313 -10.310 -10.309 -10.233 -10.233 -10.229 -10.228
-10.212 -10.212 -10.211 -10.211 -10.196 -10.195 -10.195 -10.195
-10.195 -10.194 -10.194 -10.194  -1.121  -1.121  -1.113  -1.112
 -1.032  -1.031  -1.028  -1.027  -0.885  -0.884  -0.797  -0.797
 -0.784  -0.784  -0.741  -0.741  -0.730  -0.730  -0.654  -0.653
 -0.643  -0.643  -0.593  -0.593  -0.576  -0.576  -0.553  -0.552
 -0.521  -0.521  -0.513  -0.512  -0.491  -0.491  -0.489  -0.488
 -0.483  -0.481  -0.477  -0.476  -0.469  -0.469  -0.466  -0.465
 -0.439  -0.437  -0.430  -0.428  -0.413  -0.413  -0.406  -0.405
 -0.387  -0.386  -0.385  -0.383  -0.381  -0.381  -0.367  -0.366
 -0.363  -0.362  -0.321  -0.321  -0.312  -0.311  -0.299  -0.299
 -0.294  -0.293  -0.273  -0.272  -0.269  -0.269

          Ground-State Mulliken Net Atomic Charges

     Atom                 Charge (a.u.)
  ----------------------------------------
      1 C                     0.848818
      2 C                     0.960081
      3 C                    -0.704211
      4 C                    -0.867940
      5 O                     0.089877
      6 O                    -0.183919
      7 O                     0.055220
      8 O                    -0.132080
      9 C                    -0.194017
     10 C                    -0.319710
     11 C                    -0.421856
     12 C                    -0.218691
     13 C                    -0.201563
     14 C                    -0.461307
     15 H                     0.171113
     16 H                     0.194535
     17 H                     0.179527
     18 H                     0.173579
     19 H                     0.172374
     20 H                     0.115991
     21 H                     0.185640
     22 H                     0.178840
     23 H                     0.186462
     24 H                     0.194265
     25 C                     0.937714
     26 C                     0.887998
     27 C                    -0.918230
     28 C                    -0.658820
     29 O                     0.063479
     30 O                    -0.121426
     31 O                     0.075096
     32 O                    -0.187364
     33 C                    -0.324674
     34 C                    -0.195174
     35 C                    -0.449686
     36 C                    -0.197967
     37 C                    -0.226930
     38 C                    -0.438019
     39 H                     0.197025
     40 H                     0.170660
     41 H                     0.178451
     42 H                     0.189169
     43 H                     0.112726
     44 H                     0.170583
     45 H                     0.173180
     46 H                     0.180157
     47 H                     0.195596
     48 H                     0.185424
  ----------------------------------------
  Sum of atomic charges =    -0.000000

                    Cartesian Multipole Moments
 -----------------------------------------------------------------
    Charge (ESU x 10^10)
                -0.0000
    Dipole Moment (Debye)
         X       0.1863      Y       0.1519      Z       0.2066
       Tot       0.3169
    Quadrupole Moments (Debye-Ang)
        XX    -170.3912     XY      -0.7518     YY    -124.1720
        XZ      18.9157     YZ       0.5054     ZZ    -173.5487

 Total job time:  1201.90s(wall), 2390.36s(cpu)
        *  Thank you very much for using Q-Chem.  Have a nice day.  *
