 Q-Chem 5.0, Q-Chem, Inc., Pleasanton, CA (2017)
 Q-Chem 5.0.1 for Intel X86 EM64T Linux

User input:
--------------------------------------------------------------
$molecule
0  1
--
0  1
C        +0.22270000        +1.04488000        +0.58595000
C        +0.62626000        -0.41353000        +0.99871000
C        -1.18200000        +1.23223000        +0.04377000
C        -0.37457000        -1.51643000        +0.72333000
O        -2.09172000        +0.78832000        +0.93966000
O        -1.47336000        +1.75939000        -0.99882000
O        -0.91364000        -1.42792000        -0.50620000
O        -0.62208000        -2.40877000        +1.49911000
C        -1.86134000        -2.44741000        -0.86560000
C        -3.47068000        +0.87492000        +0.53920000
C        +1.33008000        +1.39974000        -0.43491000
C        +2.63070000        +1.71700000        +0.32855000
C        +3.04336000        +0.29351000        +0.80300000
C        +1.94423000        -0.59299000        +0.15262000
O        +1.62840000        +0.13663000        -1.04376000
H        +0.27811000        +1.68786000        +1.46900000
H        +0.83923000        -0.48042000        +2.06408000
H        -2.68749000        -2.46677000        -0.15296000
H        -3.76076000        +1.91522000        +0.38406000
H        +3.37234000        +2.13782000        -0.35195000
H        +2.48236000        +2.42488000        +1.14651000
H        +4.02182000        +0.00994000        +0.41161000
H        +3.07359000        +0.18738000        +1.88928000
H        -2.21148000        -2.17765000        -1.85937000
H        -1.38062000        -3.42697000        -0.88096000
H        -4.03855000        +0.43623000        +1.35671000
H        -3.63120000        +0.31700000        -0.38495000
C        +2.35450000        -2.01267000        -0.16812000
H        +3.26311000        -2.00678000        -0.77366000
H        +2.54990000        -2.57059000        +0.75079000
H        +1.57335000        -2.52896000        -0.72872000
H        +1.03270000        +2.19943000        -1.08064000
--
0  1
C        +0.25244000        +2.72917000        +6.03134000
C        +0.65600000        +1.27076000        +6.44410000
C        -1.15226000        +2.91652000        +5.48916000
C        -0.34483000        +0.16786000        +6.16872000
O        -2.06198000        +2.47261000        +6.38505000
O        -1.44362000        +3.44368000        +4.44657000
O        -0.88390000        +0.25637000        +4.93919000
O        -0.59234000        -0.72448000        +6.94450000
C        -1.83160000        -0.76312000        +4.57979000
C        -3.44094000        +2.55921000        +5.98459000
C        +1.35982000        +3.08403000        +5.01048000
C        +2.66044000        +3.40129000        +5.77394000
C        +3.07310000        +1.97780000        +6.24839000
C        +1.97397000        +1.09130000        +5.59801000
O        +1.65814000        +1.82092000        +4.40163000
H        +0.30785000        +3.37215000        +6.91439000
H        +0.86897000        +1.20387000        +7.50947000
H        -2.65775000        -0.78248000        +5.29243000
H        -3.73102000        +3.59951000        +5.82945000
H        +3.40208000        +3.82211000        +5.09344000
H        +2.51210000        +4.10917000        +6.59190000
H        +4.05156000        +1.69423000        +5.85700000
H        +3.10333000        +1.87167000        +7.33467000
H        -2.18174000        -0.49336000        +3.58602000
H        -1.35088000        -1.74268000        +4.56443000
H        -4.00881000        +2.12052000        +6.80210000
H        -3.60146000        +2.00129000        +5.06044000
C        +2.38424000        -0.32838000        +5.27727000
H        +3.29285000        -0.32249000        +4.67173000
H        +2.57964000        -0.88630000        +6.19618000
H        +1.60309000        -0.84467000        +4.71667000
H        +1.06244000        +3.88372000        +4.36475000
$end

$rem
JOBTYPE                   SP
METHOD                    B3LYP
DFT_D                     d3_op
BASIS                     6-311++G(d,p)
SYMMETRY                  False
THRESH                    12
SCF_CONVERGENCE           8
MAX_SUB_FILE_NUM          128
MEM_STATIC                400
MEM_TOTAL                 4000
$end
--------------------------------------------------------------

             Standard Nuclear Orientation (Angstroms)
    I     Atom           X                Y                Z
 ----------------------------------------------------------------
    1      C      -2.0206234167     0.2077965036     1.1161918260
    2      C      -2.1429416197     0.5659977394    -0.4059518436
    3      C      -2.4859528016    -1.1768319504     1.5266962387
    4      C      -2.8076748874    -0.4522298890    -1.3088501895
    5      O      -1.8207139929    -2.1207556596     0.8240364225
    6      O      -3.2798709247    -1.4272747989     2.3966126811
    7      O      -3.9357656288    -0.9552820761    -0.7754420135
    8      O      -2.4017326222    -0.7414819251    -2.4092640303
    9      C      -4.6486830131    -1.9161826278    -1.5723626137
   10      C      -2.1886479291    -3.4858716140     1.0895199489
   11      C      -2.8307803853     1.3506056048     1.7734621418
   12      C      -1.9819681112     2.6368698468     1.7600648840
   13      C      -2.0340880520     3.0032880552     0.2485305422
   14      C      -2.9747980880     1.9020945164    -0.3166248080
   15      O      -3.8414348744     1.6360965278     0.7976484027
   16      H      -0.9665057625     0.2539330155     1.4042512722
   17      H      -1.1664228401     0.7481494512    -0.8510086454
   18      H      -4.0033523909    -2.7617362448    -1.8159644826
   19      H      -1.9711594029    -3.7474038032     2.1262159366
   20      H      -2.4568332180     3.4063968207     2.3704180431
   21      H      -0.9693381485     2.4826717989     2.1381666324
   22      H      -2.4833549487     3.9852463615     0.0907357746
   23      H      -1.0550573826     3.0013357091    -0.2348707455
   24      H      -5.4889256534    -2.2326703976    -0.9585425365
   25      H      -5.0008613540    -1.4580627235    -2.4980850402
   26      H      -1.5889286810    -4.0859008850     0.4086752158
   27      H      -3.2529751199    -3.6339546441     0.8988011339
   28      C      -3.7693639890     2.2879555773    -1.5440054310
   29      H      -4.3178487809     3.2126754382    -1.3533666952
   30      H      -3.1036646719     2.4451687370    -2.3960499816
   31      H      -4.4897406180     1.5106660858    -1.8045847958
   32      H      -3.1573042153     1.0896138349     2.7584350744
   33      C       3.6682544733     0.1276736237     0.7694380222
   34      C       3.5459362703     0.4858748595    -0.7527056475
   35      C       3.2029250884    -1.2569548303     1.1799424348
   36      C       2.8812030026    -0.5323527689    -1.6556039933
   37      O       3.8681638971    -2.2008785395     0.4772826186
   38      O       2.4090069653    -1.5073976788     2.0498588772
   39      O       1.7531122612    -1.0354049560    -1.1221958174
   40      O       3.2871452678    -0.8216048049    -2.7560178341
   41      C       1.0401948769    -1.9963055077    -1.9191164175
   42      C       3.5002299609    -3.5659944939     0.7427661451
   43      C       2.8580975047     1.2704827249     1.4267083380
   44      C       3.7069097788     2.5567469669     1.4133110802
   45      C       3.6547898380     2.9231651753    -0.0982232617
   46      C       2.7140798021     1.8219716366    -0.6633786119
   47      O       1.8474430156     1.5559736480     0.4508945988
   48      H       4.7223721275     0.1738101356     1.0574974684
   49      H       4.5224550499     0.6680265713    -1.1977624492
   50      H       1.6855254992    -2.8418591247    -2.1627182864
   51      H       3.7177184871    -3.8275266831     1.7794621328
   52      H       3.2320446720     3.3262739408     2.0236642393
   53      H       4.7195397415     2.4025489190     1.7914128286
   54      H       3.2055229413     3.9051234817    -0.2560180292
   55      H       4.6338205074     2.9212128292    -0.5816245493
   56      H       0.1999522366    -2.3127932775    -1.3052963403
   57      H       0.6880165361    -1.5381856033    -2.8448388440
   58      H       4.0999492090    -4.1660237648     0.0619214120
   59      H       2.4359027701    -3.7140775240     0.5520473300
   60      C       1.9195139011     2.2078326974    -1.8907592348
   61      H       1.3710291091     3.1325525583    -1.7001204991
   62      H       2.5852132181     2.3650458571    -2.7428037854
   63      H       1.1991372720     1.4305432059    -2.1513385996
   64      H       2.5315736747     1.0094909550     2.4116812706
 ----------------------------------------------------------------

   15   -1610.4040612001      5.40E-09 Convergence criterion met
 Total energy in the final basis set = -1610.40406120

                    Orbital Energies (a.u.)
 --------------------------------------------------------------

 Alpha MOs
 -- Occupied --
-19.178 -19.172 -19.171 -19.170 -19.139 -19.124 -19.122 -19.116
-19.114 -19.112 -10.312 -10.306 -10.303 -10.302 -10.251 -10.239
-10.235 -10.234 -10.229 -10.229 -10.222 -10.220 -10.209 -10.207
-10.197 -10.195 -10.184 -10.183 -10.175 -10.171 -10.169 -10.166
 -1.121  -1.116  -1.113  -1.109  -1.070  -1.056  -1.034  -1.027
 -1.026  -1.024  -0.837  -0.825  -0.801  -0.789  -0.788  -0.776
 -0.746  -0.742  -0.728  -0.725  -0.701  -0.691  -0.659  -0.649
 -0.610  -0.600  -0.595  -0.583  -0.568  -0.565  -0.565  -0.556
 -0.537  -0.527  -0.521  -0.513  -0.511  -0.505  -0.496  -0.492
 -0.486  -0.485  -0.485  -0.479  -0.476  -0.473  -0.472  -0.468
 -0.464  -0.455  -0.446  -0.438  -0.436  -0.429  -0.426  -0.420
 -0.418  -0.411  -0.408  -0.400  -0.397  -0.394  -0.394  -0.385
 -0.384  -0.375  -0.374  -0.372  -0.370  -0.365  -0.364  -0.358
 -0.356  -0.354  -0.348  -0.343  -0.338  -0.336  -0.326  -0.324
 -0.321  -0.316  -0.312  -0.309  -0.292  -0.284  -0.284  -0.279
 -0.277  -0.267

          Ground-State Mulliken Net Atomic Charges

     Atom                 Charge (a.u.)
  ----------------------------------------
      1 C                    -0.097808
      2 C                     0.787753
      3 C                    -0.720942
      4 C                    -0.804780
      5 O                     0.039752
      6 O                    -0.178922
      7 O                     0.043479
      8 O                    -0.096134
      9 C                    -0.176079
     10 C                    -0.238770
     11 C                    -0.240173
     12 C                    -0.411975
     13 C                    -0.282903
     14 C                    -0.355285
     15 O                     0.005452
     16 H                     0.244538
     17 H                     0.285381
     18 H                     0.193378
     19 H                     0.187407
     20 H                     0.197329
     21 H                     0.120754
     22 H                     0.185975
     23 H                     0.072366
     24 H                     0.179005
     25 H                     0.175639
     26 H                     0.130973
     27 H                     0.184074
     28 C                    -0.264604
     29 H                     0.183110
     30 H                     0.158935
     31 H                     0.181276
     32 H                     0.289450
     33 C                    -0.008851
     34 C                     0.500936
     35 C                    -0.590913
     36 C                    -0.876417
     37 O                     0.010887
     38 O                    -0.114679
     39 O                     0.040526
     40 O                    -0.101709
     41 C                    -0.302711
     42 C                    -0.161160
     43 C                    -0.170671
     44 C                    -0.645478
     45 C                    -0.321119
     46 C                    -0.307730
     47 O                     0.205525
     48 H                     0.248695
     49 H                     0.285488
     50 H                     0.209752
     51 H                     0.171139
     52 H                     0.179010
     53 H                     0.138580
     54 H                     0.168406
     55 H                     0.147423
     56 H                     0.129282
     57 H                     0.211818
     58 H                     0.165645
     59 H                     0.179588
     60 C                    -0.220433
     61 H                     0.193644
     62 H                     0.190565
     63 H                     0.193767
     64 H                     0.273545
  ----------------------------------------
  Sum of atomic charges =    -0.000000

                    Cartesian Multipole Moments
 -----------------------------------------------------------------
    Charge (ESU x 10^10)
                -0.0000
    Dipole Moment (Debye)
         X       2.8592      Y       0.0615      Z       0.1730
       Tot       2.8651
    Quadrupole Moments (Debye-Ang)
        XX    -189.6770     XY       8.8534     YY    -164.7985
        XZ      19.9032     YZ       0.7329     ZZ    -208.1053

 Total job time:  6752.29s(wall), 6736.73s(cpu)
        *  Thank you very much for using Q-Chem.  Have a nice day.  *
