 Q-Chem 5.0, Q-Chem, Inc., Pleasanton, CA (2017)
 Q-Chem 5.0.1 for Intel X86 EM64T Linux

User input:
--------------------------------------------------------------
$molecule
0  1
C        +0.25244000        +2.72917000        +6.03134000
C        +0.65600000        +1.27076000        +6.44410000
C        -1.15226000        +2.91652000        +5.48916000
C        -0.34483000        +0.16786000        +6.16872000
O        -2.06198000        +2.47261000        +6.38505000
O        -1.44362000        +3.44368000        +4.44657000
O        -0.88390000        +0.25637000        +4.93919000
O        -0.59234000        -0.72448000        +6.94450000
C        -1.83160000        -0.76312000        +4.57979000
C        -3.44094000        +2.55921000        +5.98459000
C        +1.35982000        +3.08403000        +5.01048000
C        +2.66044000        +3.40129000        +5.77394000
C        +3.07310000        +1.97780000        +6.24839000
C        +1.97397000        +1.09130000        +5.59801000
O        +1.65814000        +1.82092000        +4.40163000
H        +0.30785000        +3.37215000        +6.91439000
H        +0.86897000        +1.20387000        +7.50947000
H        -2.65775000        -0.78248000        +5.29243000
H        -3.73102000        +3.59951000        +5.82945000
H        +3.40208000        +3.82211000        +5.09344000
H        +2.51210000        +4.10917000        +6.59190000
H        +4.05156000        +1.69423000        +5.85700000
H        +3.10333000        +1.87167000        +7.33467000
H        -2.18174000        -0.49336000        +3.58602000
H        -1.35088000        -1.74268000        +4.56443000
H        -4.00881000        +2.12052000        +6.80210000
H        -3.60146000        +2.00129000        +5.06044000
C        +2.38424000        -0.32838000        +5.27727000
H        +3.29285000        -0.32249000        +4.67173000
H        +2.57964000        -0.88630000        +6.19618000
H        +1.60309000        -0.84467000        +4.71667000
H        +1.06244000        +3.88372000        +4.36475000
@C        +0.22270000        +1.04488000        +0.58595000
@C        +0.62626000        -0.41353000        +0.99871000
@C        -1.18200000        +1.23223000        +0.04377000
@C        -0.37457000        -1.51643000        +0.72333000
@O        -2.09172000        +0.78832000        +0.93966000
@O        -1.47336000        +1.75939000        -0.99882000
@O        -0.91364000        -1.42792000        -0.50620000
@O        -0.62208000        -2.40877000        +1.49911000
@C        -1.86134000        -2.44741000        -0.86560000
@C        -3.47068000        +0.87492000        +0.53920000
@C        +1.33008000        +1.39974000        -0.43491000
@C        +2.63070000        +1.71700000        +0.32855000
@C        +3.04336000        +0.29351000        +0.80300000
@C        +1.94423000        -0.59299000        +0.15262000
@O        +1.62840000        +0.13663000        -1.04376000
@H        +0.27811000        +1.68786000        +1.46900000
@H        +0.83923000        -0.48042000        +2.06408000
@H        -2.68749000        -2.46677000        -0.15296000
@H        -3.76076000        +1.91522000        +0.38406000
@H        +3.37234000        +2.13782000        -0.35195000
@H        +2.48236000        +2.42488000        +1.14651000
@H        +4.02182000        +0.00994000        +0.41161000
@H        +3.07359000        +0.18738000        +1.88928000
@H        -2.21148000        -2.17765000        -1.85937000
@H        -1.38062000        -3.42697000        -0.88096000
@H        -4.03855000        +0.43623000        +1.35671000
@H        -3.63120000        +0.31700000        -0.38495000
@C        +2.35450000        -2.01267000        -0.16812000
@H        +3.26311000        -2.00678000        -0.77366000
@H        +2.54990000        -2.57059000        +0.75079000
@H        +1.57335000        -2.52896000        -0.72872000
@H        +1.03270000        +2.19943000        -1.08064000
$end

$rem
JOBTYPE                   SP
METHOD                    B3LYP
DFT_D                     d3_op
BASIS                     6-311++G(d,p)
SYMMETRY                  False
THRESH                    12
SCF_CONVERGENCE           8
MAX_SUB_FILE_NUM          128
MEM_STATIC                400
MEM_TOTAL                 4000
$end
--------------------------------------------------------------

             Standard Nuclear Orientation (Angstroms)
    I     Atom           X                Y                Z
 ----------------------------------------------------------------
    1      C       0.2524400000     2.7291700000     6.0313400000
    2      C       0.6560000000     1.2707600000     6.4441000000
    3      C      -1.1522600000     2.9165200000     5.4891600000
    4      C      -0.3448300000     0.1678600000     6.1687200000
    5      O      -2.0619800000     2.4726100000     6.3850500000
    6      O      -1.4436200000     3.4436800000     4.4465700000
    7      O      -0.8839000000     0.2563700000     4.9391900000
    8      O      -0.5923400000    -0.7244800000     6.9445000000
    9      C      -1.8316000000    -0.7631200000     4.5797900000
   10      C      -3.4409400000     2.5592100000     5.9845900000
   11      C       1.3598200000     3.0840300000     5.0104800000
   12      C       2.6604400000     3.4012900000     5.7739400000
   13      C       3.0731000000     1.9778000000     6.2483900000
   14      C       1.9739700000     1.0913000000     5.5980100000
   15      O       1.6581400000     1.8209200000     4.4016300000
   16      H       0.3078500000     3.3721500000     6.9143900000
   17      H       0.8689700000     1.2038700000     7.5094700000
   18      H      -2.6577500000    -0.7824800000     5.2924300000
   19      H      -3.7310200000     3.5995100000     5.8294500000
   20      H       3.4020800000     3.8221100000     5.0934400000
   21      H       2.5121000000     4.1091700000     6.5919000000
   22      H       4.0515600000     1.6942300000     5.8570000000
   23      H       3.1033300000     1.8716700000     7.3346700000
   24      H      -2.1817400000    -0.4933600000     3.5860200000
   25      H      -1.3508800000    -1.7426800000     4.5644300000
   26      H      -4.0088100000     2.1205200000     6.8021000000
   27      H      -3.6014600000     2.0012900000     5.0604400000
   28      C       2.3842400000    -0.3283800000     5.2772700000
   29      H       3.2928500000    -0.3224900000     4.6717300000
   30      H       2.5796400000    -0.8863000000     6.1961800000
   31      H       1.6030900000    -0.8446700000     4.7166700000
   32      H       1.0624400000     3.8837200000     4.3647500000
   33      GH      0.2227000000     1.0448800000     0.5859500000
   34      GH      0.6262600000    -0.4135300000     0.9987100000
   35      GH     -1.1820000000     1.2322300000     0.0437700000
   36      GH     -0.3745700000    -1.5164300000     0.7233300000
   37      GH     -2.0917200000     0.7883200000     0.9396600000
   38      GH     -1.4733600000     1.7593900000    -0.9988200000
   39      GH     -0.9136400000    -1.4279200000    -0.5062000000
   40      GH     -0.6220800000    -2.4087700000     1.4991100000
   41      GH     -1.8613400000    -2.4474100000    -0.8656000000
   42      GH     -3.4706800000     0.8749200000     0.5392000000
   43      GH      1.3300800000     1.3997400000    -0.4349100000
   44      GH      2.6307000000     1.7170000000     0.3285500000
   45      GH      3.0433600000     0.2935100000     0.8030000000
   46      GH      1.9442300000    -0.5929900000     0.1526200000
   47      GH      1.6284000000     0.1366300000    -1.0437600000
   48      GH      0.2781100000     1.6878600000     1.4690000000
   49      GH      0.8392300000    -0.4804200000     2.0640800000
   50      GH     -2.6874900000    -2.4667700000    -0.1529600000
   51      GH     -3.7607600000     1.9152200000     0.3840600000
   52      GH      3.3723400000     2.1378200000    -0.3519500000
   53      GH      2.4823600000     2.4248800000     1.1465100000
   54      GH      4.0218200000     0.0099400000     0.4116100000
   55      GH      3.0735900000     0.1873800000     1.8892800000
   56      GH     -2.2114800000    -2.1776500000    -1.8593700000
   57      GH     -1.3806200000    -3.4269700000    -0.8809600000
   58      GH     -4.0385500000     0.4362300000     1.3567100000
   59      GH     -3.6312000000     0.3170000000    -0.3849500000
   60      GH      2.3545000000    -2.0126700000    -0.1681200000
   61      GH      3.2631100000    -2.0067800000    -0.7736600000
   62      GH      2.5499000000    -2.5705900000     0.7507900000
   63      GH      1.5733500000    -2.5289600000    -0.7287200000
   64      GH      1.0327000000     2.1994300000    -1.0806400000
 ----------------------------------------------------------------

   14    -805.1968390828      6.70E-09 Convergence criterion met
 Total energy in the final basis set = -805.19683908

                    Orbital Energies (a.u.)
 --------------------------------------------------------------

 Alpha MOs
 -- Occupied --
-19.175 -19.173 -19.131 -19.119 -19.116 -10.309 -10.306 -10.246
-10.232 -10.230 -10.228 -10.205 -10.204 -10.179 -10.178 -10.171
 -1.120  -1.113  -1.063  -1.030  -1.027  -0.832  -0.796  -0.784
 -0.746  -0.729  -0.697  -0.655  -0.606  -0.590  -0.569  -0.562
 -0.534  -0.518  -0.510  -0.492  -0.491  -0.483  -0.476  -0.472
 -0.461  -0.443  -0.434  -0.425  -0.416  -0.405  -0.397  -0.389
 -0.381  -0.374  -0.369  -0.361  -0.355  -0.351  -0.333  -0.332
 -0.320  -0.313  -0.289  -0.281  -0.274

          Ground-State Mulliken Net Atomic Charges

     Atom                 Charge (a.u.)
  ----------------------------------------
      1 C                    -0.014819
      2 C                     0.475836
      3 C                    -0.606515
      4 C                    -0.887841
      5 O                     0.009832
      6 O                    -0.109923
      7 O                     0.047192
      8 O                    -0.104219
      9 C                    -0.290049
     10 C                    -0.156908
     11 C                    -0.159231
     12 C                    -0.647189
     13 C                    -0.319259
     14 C                    -0.226170
     15 O                     0.215929
     16 H                     0.245938
     17 H                     0.283860
     18 H                     0.218813
     19 H                     0.171153
     20 H                     0.179472
     21 H                     0.135341
     22 H                     0.168833
     23 H                     0.144877
     24 H                     0.125505
     25 H                     0.196594
     26 H                     0.164650
     27 H                     0.179774
     28 C                    -0.237211
     29 H                     0.192433
     30 H                     0.187049
     31 H                     0.193601
     32 H                     0.273100
     33 GH                   -0.124871
     34 GH                    0.070271
     35 GH                   -0.032494
     36 GH                    0.012559
     37 GH                    0.002949
     38 GH                    0.000098
     39 GH                    0.000519
     40 GH                   -0.003114
     41 GH                    0.000882
     42 GH                    0.008719
     43 GH                    0.005561
     44 GH                    0.031191
     45 GH                   -0.038480
     46 GH                    0.054329
     47 GH                    0.000168
     48 GH                    0.015019
     49 GH                   -0.040877
     50 GH                    0.000671
     51 GH                   -0.000575
     52 GH                   -0.000001
     53 GH                   -0.001212
     54 GH                   -0.001209
     55 GH                   -0.021676
     56 GH                    0.000059
     57 GH                   -0.000166
     58 GH                    0.004541
     59 GH                    0.000261
     60 GH                    0.003992
     61 GH                   -0.000020
     62 GH                    0.001264
     63 GH                   -0.000065
     64 GH                    0.001259
  ----------------------------------------
  Sum of atomic charges =     0.000000

                    Cartesian Multipole Moments
 -----------------------------------------------------------------
    Charge (ESU x 10^10)
                 0.0000
    Dipole Moment (Debye)
         X       0.0474      Y       0.4889      Z       1.1063
       Tot       1.2104
    Quadrupole Moments (Debye-Ang)
        XX     -81.7141     XY       2.6575     YY     -94.5859
        XZ       3.3649     YZ      15.3816     ZZ     -90.2049

 Total job time:  7207.24s(wall), 7190.35s(cpu)
        *  Thank you very much for using Q-Chem.  Have a nice day.  *
