 Q-Chem 5.0, Q-Chem, Inc., Pleasanton, CA (2017)
 Q-Chem 5.0.1 for Intel X86 EM64T Linux

User input:
--------------------------------------------------------------
$molecule
0  1
--
0  1
C        +0.22270000        +1.04488000        +0.58595000
C        +0.62626000        -0.41353000        +0.99871000
C        -1.18200000        +1.23223000        +0.04377000
C        -0.37457000        -1.51643000        +0.72333000
O        -2.09172000        +0.78832000        +0.93966000
O        -1.47336000        +1.75939000        -0.99882000
O        -0.91364000        -1.42792000        -0.50620000
O        -0.62208000        -2.40877000        +1.49911000
C        -1.86134000        -2.44741000        -0.86560000
C        -3.47068000        +0.87492000        +0.53920000
C        +1.33008000        +1.39974000        -0.43491000
C        +2.63070000        +1.71700000        +0.32855000
C        +3.04336000        +0.29351000        +0.80300000
C        +1.94423000        -0.59299000        +0.15262000
O        +1.62840000        +0.13663000        -1.04376000
H        +0.27811000        +1.68786000        +1.46900000
H        +0.83923000        -0.48042000        +2.06408000
H        -2.68749000        -2.46677000        -0.15296000
H        -3.76076000        +1.91522000        +0.38406000
H        +3.37234000        +2.13782000        -0.35195000
H        +2.48236000        +2.42488000        +1.14651000
H        +4.02182000        +0.00994000        +0.41161000
H        +3.07359000        +0.18738000        +1.88928000
H        -2.21148000        -2.17765000        -1.85937000
H        -1.38062000        -3.42697000        -0.88096000
H        -4.03855000        +0.43623000        +1.35671000
H        -3.63120000        +0.31700000        -0.38495000
C        +0.90028000        +2.39077000        -1.49430000
C        +2.35450000        -2.01267000        -0.16812000
H        +3.26311000        -2.00678000        -0.77366000
H        +2.54990000        -2.57059000        +0.75079000
H        +1.57335000        -2.52896000        -0.72872000
H        +1.71845000        +2.58186000        -2.15686000
H        +0.59919000        +3.30478000        -1.02650000
H        +0.07925000        +1.98653000        -2.04874000
--
0  1
C        +0.25244000        +2.72917000        +6.03134000
C        +0.65600000        +1.27076000        +6.44410000
C        -1.15226000        +2.91652000        +5.48916000
C        -0.34483000        +0.16786000        +6.16872000
O        -2.06198000        +2.47261000        +6.38505000
O        -1.44362000        +3.44368000        +4.44657000
O        -0.88390000        +0.25637000        +4.93919000
O        -0.59234000        -0.72448000        +6.94450000
C        -1.83160000        -0.76312000        +4.57979000
C        -3.44094000        +2.55921000        +5.98459000
C        +1.35982000        +3.08403000        +5.01048000
C        +2.66044000        +3.40129000        +5.77394000
C        +3.07310000        +1.97780000        +6.24839000
C        +1.97397000        +1.09130000        +5.59801000
O        +1.65814000        +1.82092000        +4.40163000
H        +0.30785000        +3.37215000        +6.91439000
H        +0.86897000        +1.20387000        +7.50947000
H        -2.65775000        -0.78248000        +5.29243000
H        -3.73102000        +3.59951000        +5.82945000
H        +3.40208000        +3.82211000        +5.09344000
H        +2.51210000        +4.10917000        +6.59190000
H        +4.05156000        +1.69423000        +5.85700000
H        +3.10333000        +1.87167000        +7.33467000
H        -2.18174000        -0.49336000        +3.58602000
H        -1.35088000        -1.74268000        +4.56443000
H        -4.00881000        +2.12052000        +6.80210000
H        -3.60146000        +2.00129000        +5.06044000
C        +0.93002000        +4.07506000        +3.95109000
C        +2.38424000        -0.32838000        +5.27727000
H        +3.29285000        -0.32249000        +4.67173000
H        +2.57964000        -0.88630000        +6.19618000
H        +1.60309000        -0.84467000        +4.71667000
H        +1.74819000        +4.26615000        +3.28853000
H        +0.62893000        +4.98907000        +4.41889000
H        +0.10899000        +3.67082000        +3.39665000
$end

$rem
JOBTYPE                   SP
METHOD                    B3LYP
DFT_D                     d3_op
BASIS                     6-311++G(d,p)
SYMMETRY                  False
THRESH                    12
SCF_CONVERGENCE           8
MAX_SUB_FILE_NUM          128
MEM_STATIC                400
MEM_TOTAL                 4000
$end
--------------------------------------------------------------

             Standard Nuclear Orientation (Angstroms)
    I     Atom           X                Y                Z
 ----------------------------------------------------------------
    1      C      -1.9990954285     0.2526818928     0.8519817695
    2      C      -2.0874339986     0.3992138564    -0.7071577047
    3      C      -2.4611933188    -1.0691653095     1.4362991306
    4      C      -2.7201274764    -0.7406058003    -1.4781268069
    5      O      -1.7699915480    -2.0912359486     0.8841422875
    6      O      -3.2737982914    -1.2092128119     2.3137055808
    7      O      -3.8561380854    -1.1808670036    -0.9073164400
    8      O      -2.2845887347    -1.1714583570    -2.5192985329
    9      C      -4.5401425516    -2.2501137678    -1.5822332924
   10      C      -2.1313556421    -3.4122116020     1.3244123951
   11      C      -2.8359392433     1.4637668405     1.3287803672
   12      C      -1.9992982820     2.7469955774     1.1599805618
   13      C      -2.0178010853     2.9040029467    -0.3881541838
   14      C      -2.9338730148     1.7243556048    -0.8196718777
   15      O      -3.8250176918     1.6011646134     0.3001960529
   16      H      -0.9528460300     0.3509424782     1.1552603618
   17      H      -1.1020648225     0.5316458537    -1.1502751641
   18      H      -3.8810357875    -3.1126311156    -1.6935728631
   19      H      -1.9368895218    -3.5277074778     2.3917841892
   20      H      -2.4962730424     3.5861864706     1.6488305842
   21      H      -0.9948297423     2.6584973831     1.5787507063
   22      H      -2.4723605611     3.8496227437    -0.6884222822
   23      H      -1.0272332399     2.8488757928    -0.8441344561
   24      H      -5.3921474978    -2.4909657886    -0.9505489046
   25      H      -4.8738395231    -1.9265097631    -2.5695489567
   26      H      -1.5094493361    -4.0914746733     0.7455496483
   27      H      -3.1892312614    -3.5983731316     1.1311827951
   28      C      -3.5124719152     1.2599493759     2.6666658847
   29      C      -3.7017194446     1.9297655536    -2.1061031958
   30      H      -4.2634660174     2.8647481549    -2.0557659421
   31      H      -3.0168425774     1.9782495974    -2.9560705179
   32      H      -4.4080788730     1.1151724174    -2.2749742321
   33      H      -4.0676867200     2.1379715093     2.9230190482
   34      H      -2.7717977585     1.0747831596     3.4163468662
   35      H      -4.1763733763     0.4229587593     2.6067867581
   36      C       3.6970804008     0.1986676263     0.6503561155
   37      C       3.6087418307     0.3451995899    -0.9087833587
   38      C       3.2349825105    -1.1231795760     1.2346734766
   39      C       2.9760483530    -0.7946200668    -1.6797524609
   40      O       3.9261842813    -2.1452502150     0.6825166335
   41      O       2.4223775379    -1.2632270783     2.1120799268
   42      O       1.8400377439    -1.2348812701    -1.1089420940
   43      O       3.4115870947    -1.2254726234    -2.7209241869
   44      C       1.1560332777    -2.3041280342    -1.7838589464
   45      C       3.5648201872    -3.4662258685     1.1227867411
   46      C       2.8602365860     1.4097525740     1.1271547132
   47      C       3.6968775473     2.6929813110     0.9583549078
   48      C       3.6783747440     2.8499886802    -0.5897798378
   49      C       2.7623028146     1.6703413383    -1.0212975317
   50      O       1.8711581375     1.5471503470     0.0985703989
   51      H       4.7433297993     0.2969282118     0.9536347078
   52      H       4.5941110068     0.4776315872    -1.3519008181
   53      H       1.8151400418    -3.1666453820    -1.8951985171
   54      H       3.7592863075    -3.5817217442     2.1901585352
   55      H       3.1999027870     3.5321722041     1.4472049302
   56      H       4.7013460870     2.6044831166     1.3771250523
   57      H       3.2238152682     3.7956084773    -0.8900479362
   58      H       4.6689425894     2.7948615264    -1.0457601101
   59      H       0.3040283315    -2.5449800551    -1.1521745586
   60      H       0.8223363062    -1.9805240295    -2.7711746107
   61      H       4.1867264933    -4.1454889397     0.5439239943
   62      H       2.5069445679    -3.6523873981     0.9295571411
   63      C       2.1837039141     1.2059351095     2.4650402307
   64      C       1.9944563847     1.8757512872    -2.3077288498
   65      H       1.4327098120     2.8107338884    -2.2573915961
   66      H       2.6793332519     1.9242353310    -3.1576961719
   67      H       1.2880969563     1.0611581509    -2.4765998861
   68      H       1.6284891093     2.0839572429     2.7213933942
   69      H       2.9243780708     1.0207688932     3.2147212122
   70      H       1.5198024530     0.3689444929     2.4051611041
 ----------------------------------------------------------------

   15   -1689.0458071679      5.40E-09 Convergence criterion met
 Total energy in the final basis set = -1689.04580717

                    Orbital Energies (a.u.)
 --------------------------------------------------------------

 Alpha MOs
 -- Occupied --
-19.179 -19.172 -19.172 -19.172 -19.132 -19.120 -19.118 -19.115
-19.115 -19.112 -10.314 -10.306 -10.305 -10.303 -10.247 -10.237
-10.236 -10.234 -10.231 -10.230 -10.223 -10.222 -10.208 -10.206
-10.196 -10.195 -10.182 -10.180 -10.173 -10.169 -10.166 -10.164
-10.144 -10.130  -1.123  -1.118  -1.113  -1.111  -1.068  -1.054
 -1.037  -1.029  -1.026  -1.026  -0.836  -0.825  -0.809  -0.798
 -0.788  -0.776  -0.748  -0.745  -0.731  -0.727  -0.724  -0.715
 -0.677  -0.669  -0.649  -0.637  -0.605  -0.598  -0.584  -0.574
 -0.570  -0.566  -0.564  -0.556  -0.528  -0.519  -0.516  -0.511
 -0.511  -0.502  -0.496  -0.491  -0.489  -0.485  -0.482  -0.476
 -0.475  -0.473  -0.472  -0.466  -0.462  -0.453  -0.445  -0.438
 -0.438  -0.434  -0.430  -0.429  -0.418  -0.413  -0.409  -0.407
 -0.406  -0.403  -0.398  -0.395  -0.395  -0.391  -0.377  -0.373
 -0.370  -0.369  -0.368  -0.362  -0.358  -0.358  -0.354  -0.351
 -0.351  -0.347  -0.342  -0.339  -0.338  -0.333  -0.327  -0.323
 -0.322  -0.318  -0.312  -0.311  -0.285  -0.282  -0.279  -0.274
 -0.265  -0.265

          Ground-State Mulliken Net Atomic Charges

     Atom                 Charge (a.u.)
  ----------------------------------------
      1 C                     0.122148
      2 C                     0.565504
      3 C                    -0.569449
      4 C                    -0.654541
      5 O                     0.073987
      6 O                    -0.130955
      7 O                     0.033216
      8 O                    -0.096917
      9 C                    -0.163400
     10 C                    -0.230608
     11 C                    -0.699112
     12 C                    -0.182242
     13 C                    -0.075870
     14 C                    -0.605292
     15 O                     0.151849
     16 H                     0.210893
     17 H                     0.190741
     18 H                     0.192518
     19 H                     0.185258
     20 H                     0.193655
     21 H                     0.147732
     22 H                     0.193047
     23 H                     0.108061
     24 H                     0.174054
     25 H                     0.177502
     26 H                     0.132823
     27 H                     0.188628
     28 C                    -0.429112
     29 C                    -0.245068
     30 H                     0.174738
     31 H                     0.166005
     32 H                     0.176899
     33 H                     0.141104
     34 H                     0.149102
     35 H                     0.201449
     36 C                    -0.133760
     37 C                     0.521839
     38 C                    -0.566920
     39 C                    -0.779324
     40 O                     0.035397
     41 O                    -0.088334
     42 O                     0.036751
     43 O                    -0.101979
     44 C                    -0.283320
     45 C                    -0.163565
     46 C                     0.022449
     47 C                    -0.429733
     48 C                    -0.412249
     49 C                    -0.317159
     50 O                     0.297999
     51 H                     0.267406
     52 H                     0.286809
     53 H                     0.209713
     54 H                     0.168614
     55 H                     0.174480
     56 H                     0.149950
     57 H                     0.169125
     58 H                     0.147573
     59 H                     0.141266
     60 H                     0.211541
     61 H                     0.165468
     62 H                     0.176619
     63 C                    -0.616162
     64 C                    -0.340054
     65 H                     0.195729
     66 H                     0.191739
     67 H                     0.200317
     68 H                     0.130199
     69 H                     0.176128
     70 H                     0.187101
  ----------------------------------------
  Sum of atomic charges =    -0.000000

                    Cartesian Multipole Moments
 -----------------------------------------------------------------
    Charge (ESU x 10^10)
                -0.0000
    Dipole Moment (Debye)
         X       2.5255      Y      -0.5617      Z       0.4864
       Tot       2.6325
    Quadrupole Moments (Debye-Ang)
        XX    -202.9812     XY      11.3824     YY    -179.9800
        XZ      17.9102     YZ      -6.2744     ZZ    -220.4360

 Total job time:  3663.96s(wall), 7290.27s(cpu)
        *  Thank you very much for using Q-Chem.  Have a nice day.  *
