 Q-Chem 5.0, Q-Chem, Inc., Pleasanton, CA (2017)
 Q-Chem 5.0.1 for Intel X86 EM64T Linux

User input:
--------------------------------------------------------------
$molecule
0  1
C        +0.25244000        +2.72917000        +6.03134000
C        +0.65600000        +1.27076000        +6.44410000
C        -1.15226000        +2.91652000        +5.48916000
C        -0.34483000        +0.16786000        +6.16872000
O        -2.06198000        +2.47261000        +6.38505000
O        -1.44362000        +3.44368000        +4.44657000
O        -0.88390000        +0.25637000        +4.93919000
O        -0.59234000        -0.72448000        +6.94450000
C        -1.83160000        -0.76312000        +4.57979000
C        -3.44094000        +2.55921000        +5.98459000
C        +1.35982000        +3.08403000        +5.01048000
C        +2.66044000        +3.40129000        +5.77394000
C        +3.07310000        +1.97780000        +6.24839000
C        +1.97397000        +1.09130000        +5.59801000
O        +1.65814000        +1.82092000        +4.40163000
H        +0.30785000        +3.37215000        +6.91439000
H        +0.86897000        +1.20387000        +7.50947000
H        -2.65775000        -0.78248000        +5.29243000
H        -3.73102000        +3.59951000        +5.82945000
H        +3.40208000        +3.82211000        +5.09344000
H        +2.51210000        +4.10917000        +6.59190000
H        +4.05156000        +1.69423000        +5.85700000
H        +3.10333000        +1.87167000        +7.33467000
H        -2.18174000        -0.49336000        +3.58602000
H        -1.35088000        -1.74268000        +4.56443000
H        -4.00881000        +2.12052000        +6.80210000
H        -3.60146000        +2.00129000        +5.06044000
C        +0.93002000        +4.07506000        +3.95109000
C        +2.38424000        -0.32838000        +5.27727000
H        +3.29285000        -0.32249000        +4.67173000
H        +2.57964000        -0.88630000        +6.19618000
H        +1.60309000        -0.84467000        +4.71667000
H        +1.74819000        +4.26615000        +3.28853000
H        +0.62893000        +4.98907000        +4.41889000
H        +0.10899000        +3.67082000        +3.39665000
@C        +0.22270000        +1.04488000        +0.58595000
@C        +0.62626000        -0.41353000        +0.99871000
@C        -1.18200000        +1.23223000        +0.04377000
@C        -0.37457000        -1.51643000        +0.72333000
@O        -2.09172000        +0.78832000        +0.93966000
@O        -1.47336000        +1.75939000        -0.99882000
@O        -0.91364000        -1.42792000        -0.50620000
@O        -0.62208000        -2.40877000        +1.49911000
@C        -1.86134000        -2.44741000        -0.86560000
@C        -3.47068000        +0.87492000        +0.53920000
@C        +1.33008000        +1.39974000        -0.43491000
@C        +2.63070000        +1.71700000        +0.32855000
@C        +3.04336000        +0.29351000        +0.80300000
@C        +1.94423000        -0.59299000        +0.15262000
@O        +1.62840000        +0.13663000        -1.04376000
@H        +0.27811000        +1.68786000        +1.46900000
@H        +0.83923000        -0.48042000        +2.06408000
@H        -2.68749000        -2.46677000        -0.15296000
@H        -3.76076000        +1.91522000        +0.38406000
@H        +3.37234000        +2.13782000        -0.35195000
@H        +2.48236000        +2.42488000        +1.14651000
@H        +4.02182000        +0.00994000        +0.41161000
@H        +3.07359000        +0.18738000        +1.88928000
@H        -2.21148000        -2.17765000        -1.85937000
@H        -1.38062000        -3.42697000        -0.88096000
@H        -4.03855000        +0.43623000        +1.35671000
@H        -3.63120000        +0.31700000        -0.38495000
@C        +0.90028000        +2.39077000        -1.49430000
@C        +2.35450000        -2.01267000        -0.16812000
@H        +3.26311000        -2.00678000        -0.77366000
@H        +2.54990000        -2.57059000        +0.75079000
@H        +1.57335000        -2.52896000        -0.72872000
@H        +1.71845000        +2.58186000        -2.15686000
@H        +0.59919000        +3.30478000        -1.02650000
@H        +0.07925000        +1.98653000        -2.04874000
$end

$rem
JOBTYPE                   SP
METHOD                    B3LYP
DFT_D                     d3_op
BASIS                     6-311++G(d,p)
SYMMETRY                  False
THRESH                    12
SCF_CONVERGENCE           8
MAX_SUB_FILE_NUM          128
MEM_STATIC                400
MEM_TOTAL                 4000
$end
--------------------------------------------------------------

             Standard Nuclear Orientation (Angstroms)
    I     Atom           X                Y                Z
 ----------------------------------------------------------------
    1      C       0.2524400000     2.7291700000     6.0313400000
    2      C       0.6560000000     1.2707600000     6.4441000000
    3      C      -1.1522600000     2.9165200000     5.4891600000
    4      C      -0.3448300000     0.1678600000     6.1687200000
    5      O      -2.0619800000     2.4726100000     6.3850500000
    6      O      -1.4436200000     3.4436800000     4.4465700000
    7      O      -0.8839000000     0.2563700000     4.9391900000
    8      O      -0.5923400000    -0.7244800000     6.9445000000
    9      C      -1.8316000000    -0.7631200000     4.5797900000
   10      C      -3.4409400000     2.5592100000     5.9845900000
   11      C       1.3598200000     3.0840300000     5.0104800000
   12      C       2.6604400000     3.4012900000     5.7739400000
   13      C       3.0731000000     1.9778000000     6.2483900000
   14      C       1.9739700000     1.0913000000     5.5980100000
   15      O       1.6581400000     1.8209200000     4.4016300000
   16      H       0.3078500000     3.3721500000     6.9143900000
   17      H       0.8689700000     1.2038700000     7.5094700000
   18      H      -2.6577500000    -0.7824800000     5.2924300000
   19      H      -3.7310200000     3.5995100000     5.8294500000
   20      H       3.4020800000     3.8221100000     5.0934400000
   21      H       2.5121000000     4.1091700000     6.5919000000
   22      H       4.0515600000     1.6942300000     5.8570000000
   23      H       3.1033300000     1.8716700000     7.3346700000
   24      H      -2.1817400000    -0.4933600000     3.5860200000
   25      H      -1.3508800000    -1.7426800000     4.5644300000
   26      H      -4.0088100000     2.1205200000     6.8021000000
   27      H      -3.6014600000     2.0012900000     5.0604400000
   28      C       0.9300200000     4.0750600000     3.9510900000
   29      C       2.3842400000    -0.3283800000     5.2772700000
   30      H       3.2928500000    -0.3224900000     4.6717300000
   31      H       2.5796400000    -0.8863000000     6.1961800000
   32      H       1.6030900000    -0.8446700000     4.7166700000
   33      H       1.7481900000     4.2661500000     3.2885300000
   34      H       0.6289300000     4.9890700000     4.4188900000
   35      H       0.1089900000     3.6708200000     3.3966500000
   36      GH      0.2227000000     1.0448800000     0.5859500000
   37      GH      0.6262600000    -0.4135300000     0.9987100000
   38      GH     -1.1820000000     1.2322300000     0.0437700000
   39      GH     -0.3745700000    -1.5164300000     0.7233300000
   40      GH     -2.0917200000     0.7883200000     0.9396600000
   41      GH     -1.4733600000     1.7593900000    -0.9988200000
   42      GH     -0.9136400000    -1.4279200000    -0.5062000000
   43      GH     -0.6220800000    -2.4087700000     1.4991100000
   44      GH     -1.8613400000    -2.4474100000    -0.8656000000
   45      GH     -3.4706800000     0.8749200000     0.5392000000
   46      GH      1.3300800000     1.3997400000    -0.4349100000
   47      GH      2.6307000000     1.7170000000     0.3285500000
   48      GH      3.0433600000     0.2935100000     0.8030000000
   49      GH      1.9442300000    -0.5929900000     0.1526200000
   50      GH      1.6284000000     0.1366300000    -1.0437600000
   51      GH      0.2781100000     1.6878600000     1.4690000000
   52      GH      0.8392300000    -0.4804200000     2.0640800000
   53      GH     -2.6874900000    -2.4667700000    -0.1529600000
   54      GH     -3.7607600000     1.9152200000     0.3840600000
   55      GH      3.3723400000     2.1378200000    -0.3519500000
   56      GH      2.4823600000     2.4248800000     1.1465100000
   57      GH      4.0218200000     0.0099400000     0.4116100000
   58      GH      3.0735900000     0.1873800000     1.8892800000
   59      GH     -2.2114800000    -2.1776500000    -1.8593700000
   60      GH     -1.3806200000    -3.4269700000    -0.8809600000
   61      GH     -4.0385500000     0.4362300000     1.3567100000
   62      GH     -3.6312000000     0.3170000000    -0.3849500000
   63      GH      0.9002800000     2.3907700000    -1.4943000000
   64      GH      2.3545000000    -2.0126700000    -0.1681200000
   65      GH      3.2631100000    -2.0067800000    -0.7736600000
   66      GH      2.5499000000    -2.5705900000     0.7507900000
   67      GH      1.5733500000    -2.5289600000    -0.7287200000
   68      GH      1.7184500000     2.5818600000    -2.1568600000
   69      GH      0.5991900000     3.3047800000    -1.0265000000
   70      GH      0.0792500000     1.9865300000    -2.0487400000
 ----------------------------------------------------------------

   14    -844.5174560835      5.81E-09 Convergence criterion met
 Total energy in the final basis set = -844.51745608

                    Orbital Energies (a.u.)
 --------------------------------------------------------------

 Alpha MOs
 -- Occupied --
-19.176 -19.174 -19.125 -19.117 -19.116 -10.311 -10.306 -10.242
-10.232 -10.231 -10.231 -10.204 -10.203 -10.178 -10.175 -10.169
-10.136  -1.121  -1.114  -1.061  -1.034  -1.027  -0.832  -0.804
 -0.784  -0.748  -0.730  -0.720  -0.674  -0.644  -0.603  -0.579
 -0.570  -0.561  -0.525  -0.514  -0.508  -0.493  -0.489  -0.480
 -0.476  -0.471  -0.459  -0.443  -0.435  -0.433  -0.414  -0.411
 -0.403  -0.399  -0.395  -0.374  -0.372  -0.364  -0.358  -0.355
 -0.349  -0.346  -0.333  -0.328  -0.321  -0.313  -0.284  -0.272
 -0.270

          Ground-State Mulliken Net Atomic Charges

     Atom                 Charge (a.u.)
  ----------------------------------------
      1 C                    -0.148905
      2 C                     0.501315
      3 C                    -0.559337
      4 C                    -0.791608
      5 O                     0.034945
      6 O                    -0.086915
      7 O                     0.043800
      8 O                    -0.104662
      9 C                    -0.273234
     10 C                    -0.159560
     11 C                     0.047752
     12 C                    -0.432750
     13 C                    -0.412256
     14 C                    -0.252123
     15 O                     0.306783
     16 H                     0.265693
     17 H                     0.285381
     18 H                     0.218323
     19 H                     0.168800
     20 H                     0.174913
     21 H                     0.147611
     22 H                     0.168886
     23 H                     0.144999
     24 H                     0.127647
     25 H                     0.197900
     26 H                     0.164341
     27 H                     0.177101
     28 C                    -0.620121
     29 C                    -0.351379
     30 H                     0.192737
     31 H                     0.188261
     32 H                     0.197561
     33 H                     0.130952
     34 H                     0.171665
     35 H                     0.182269
     36 GH                   -0.124798
     37 GH                    0.046768
     38 GH                   -0.007673
     39 GH                    0.012902
     40 GH                    0.003952
     41 GH                    0.000155
     42 GH                    0.000718
     43 GH                   -0.003400
     44 GH                    0.000785
     45 GH                    0.011251
     46 GH                    0.006910
     47 GH                   -0.009533
     48 GH                    0.003785
     49 GH                    0.047525
     50 GH                    0.000081
     51 GH                    0.036980
     52 GH                   -0.075399
     53 GH                    0.000743
     54 GH                   -0.000939
     55 GH                   -0.000531
     56 GH                   -0.002788
     57 GH                   -0.000767
     58 GH                   -0.010210
     59 GH                    0.000027
     60 GH                   -0.000145
     61 GH                    0.004711
     62 GH                    0.000211
     63 GH                   -0.000330
     64 GH                    0.010699
     65 GH                    0.000076
     66 GH                    0.001050
     67 GH                   -0.000020
     68 GH                    0.000058
     69 GH                    0.000254
     70 GH                    0.000111
  ----------------------------------------
  Sum of atomic charges =     0.000000

                    Cartesian Multipole Moments
 -----------------------------------------------------------------
    Charge (ESU x 10^10)
                 0.0000
    Dipole Moment (Debye)
         X      -0.3345      Y       0.5047      Z       0.9045
       Tot       1.0885
    Quadrupole Moments (Debye-Ang)
        XX     -89.0256     XY       1.2550     YY    -101.8512
        XZ       1.6995     YZ      15.0924     ZZ     -98.5345

 Total job time:  3427.72s(wall), 6821.05s(cpu)
        *  Thank you very much for using Q-Chem.  Have a nice day.  *
