 Q-Chem 5.0, Q-Chem, Inc., Pleasanton, CA (2017)
 Q-Chem 5.0.1 for Intel X86 EM64T Linux

User input:
--------------------------------------------------------------
$molecule
0  1
C        -0.54444000        -0.68370000        -0.06689000
C        -0.55709000        +0.71878000        +0.05493000
C        +0.74969000        -1.43776000        -0.09374000
C        +0.72843000        +1.48436000        +0.06598000
O        +1.53645000        -1.09176000        +0.94813000
O        +1.04702000        -2.28405000        -0.90088000
O        +1.53784000        +1.08301000        -0.93877000
O        +1.01035000        +2.37097000        +0.83478000
C        +2.83449000        +1.70121000        -0.99358000
C        +2.82316000        -1.73208000        +1.00475000
C        -1.74320000        -1.41616000        -0.12552000
C        -2.93952000        -0.70056000        -0.05285000
C        -2.95313000        +0.68255000        +0.06934000
C        -1.77161000        +1.42404000        +0.12810000
H        +2.73835000        +2.77989000        -1.12464000
H        +2.70778000        -2.81319000        +1.09555000
H        -3.90354000        +1.20325000        +0.11710000
H        +3.38998000        +1.50093000        -0.07544000
H        +3.33184000        +1.25269000        -1.85067000
H        +3.31095000        -1.32281000        +1.88650000
H        +3.39889000        -1.50934000        +0.10459000
H        -3.87892000        -1.24211000        -0.08988000
C        -1.83960000        +2.92746000        +0.24839000
H        -1.24214000        +3.42352000        -0.52065000
H        -1.45503000        +3.26427000        +1.21284000
H        -2.87211000        +3.26623000        +0.14638000
H        -1.73878000        -2.44393000        -0.21875000
@C        -0.50522000        -1.18069000        +5.61127000
@C        -0.51787000        +0.22179000        +5.73309000
@C        +0.78891000        -1.93475000        +5.58442000
@C        +0.76765000        +0.98737000        +5.74414000
@O        +1.57567000        -1.58875000        +6.62629000
@O        +1.08624000        -2.78104000        +4.77728000
@O        +1.57706000        +0.58602000        +4.73939000
@O        +1.04957000        +1.87398000        +6.51294000
@C        +2.87371000        +1.20422000        +4.68458000
@C        +2.86238000        -2.22907000        +6.68291000
@C        -1.70398000        -1.91315000        +5.55264000
@C        -2.90030000        -1.19755000        +5.62531000
@C        -2.91391000        +0.18556000        +5.74750000
@C        -1.73239000        +0.92705000        +5.80626000
@H        +2.77757000        +2.28290000        +4.55352000
@H        +2.74700000        -3.31018000        +6.77371000
@H        -3.86432000        +0.70626000        +5.79526000
@H        +3.42920000        +1.00394000        +5.60272000
@H        +3.37106000        +0.75570000        +3.82749000
@H        +3.35017000        -1.81980000        +7.56466000
@H        +3.43811000        -2.00633000        +5.78275000
@H        -3.83970000        -1.73910000        +5.58828000
@C        -1.80038000        +2.43047000        +5.92655000
@H        -1.20292000        +2.92653000        +5.15751000
@H        -1.41581000        +2.76728000        +6.89100000
@H        -2.83289000        +2.76924000        +5.82454000
@H        -1.69956000        -2.94092000        +5.45941000
$end

$rem
JOBTYPE                   SP
METHOD                    B3LYP
DFT_D                     d3_op
BASIS                     6-311++G(d,p)
SYMMETRY                  False
THRESH                    12
SCF_CONVERGENCE           8
MAX_SUB_FILE_NUM          128
MEM_STATIC                400
MEM_TOTAL                 4000
$end
--------------------------------------------------------------

             Standard Nuclear Orientation (Angstroms)
    I     Atom           X                Y                Z
 ----------------------------------------------------------------
    1      C      -0.5444400000    -0.6837000000    -0.0668900000
    2      C      -0.5570900000     0.7187800000     0.0549300000
    3      C       0.7496900000    -1.4377600000    -0.0937400000
    4      C       0.7284300000     1.4843600000     0.0659800000
    5      O       1.5364500000    -1.0917600000     0.9481300000
    6      O       1.0470200000    -2.2840500000    -0.9008800000
    7      O       1.5378400000     1.0830100000    -0.9387700000
    8      O       1.0103500000     2.3709700000     0.8347800000
    9      C       2.8344900000     1.7012100000    -0.9935800000
   10      C       2.8231600000    -1.7320800000     1.0047500000
   11      C      -1.7432000000    -1.4161600000    -0.1255200000
   12      C      -2.9395200000    -0.7005600000    -0.0528500000
   13      C      -2.9531300000     0.6825500000     0.0693400000
   14      C      -1.7716100000     1.4240400000     0.1281000000
   15      H       2.7383500000     2.7798900000    -1.1246400000
   16      H       2.7077800000    -2.8131900000     1.0955500000
   17      H      -3.9035400000     1.2032500000     0.1171000000
   18      H       3.3899800000     1.5009300000    -0.0754400000
   19      H       3.3318400000     1.2526900000    -1.8506700000
   20      H       3.3109500000    -1.3228100000     1.8865000000
   21      H       3.3988900000    -1.5093400000     0.1045900000
   22      H      -3.8789200000    -1.2421100000    -0.0898800000
   23      C      -1.8396000000     2.9274600000     0.2483900000
   24      H      -1.2421400000     3.4235200000    -0.5206500000
   25      H      -1.4550300000     3.2642700000     1.2128400000
   26      H      -2.8721100000     3.2662300000     0.1463800000
   27      H      -1.7387800000    -2.4439300000    -0.2187500000
   28      GH     -0.5052200000    -1.1806900000     5.6112700000
   29      GH     -0.5178700000     0.2217900000     5.7330900000
   30      GH      0.7889100000    -1.9347500000     5.5844200000
   31      GH      0.7676500000     0.9873700000     5.7441400000
   32      GH      1.5756700000    -1.5887500000     6.6262900000
   33      GH      1.0862400000    -2.7810400000     4.7772800000
   34      GH      1.5770600000     0.5860200000     4.7393900000
   35      GH      1.0495700000     1.8739800000     6.5129400000
   36      GH      2.8737100000     1.2042200000     4.6845800000
   37      GH      2.8623800000    -2.2290700000     6.6829100000
   38      GH     -1.7039800000    -1.9131500000     5.5526400000
   39      GH     -2.9003000000    -1.1975500000     5.6253100000
   40      GH     -2.9139100000     0.1855600000     5.7475000000
   41      GH     -1.7323900000     0.9270500000     5.8062600000
   42      GH      2.7775700000     2.2829000000     4.5535200000
   43      GH      2.7470000000    -3.3101800000     6.7737100000
   44      GH     -3.8643200000     0.7062600000     5.7952600000
   45      GH      3.4292000000     1.0039400000     5.6027200000
   46      GH      3.3710600000     0.7557000000     3.8274900000
   47      GH      3.3501700000    -1.8198000000     7.5646600000
   48      GH      3.4381100000    -2.0063300000     5.7827500000
   49      GH     -3.8397000000    -1.7391000000     5.5882800000
   50      GH     -1.8003800000     2.4304700000     5.9265500000
   51      GH     -1.2029200000     2.9265300000     5.1575100000
   52      GH     -1.4158100000     2.7672800000     6.8910000000
   53      GH     -2.8328900000     2.7692400000     5.8245400000
   54      GH     -1.6995600000    -2.9409200000     5.4594100000
 ----------------------------------------------------------------

   14    -727.5441217741      5.53E-09 Convergence criterion met
 Total energy in the final basis set = -727.54412177

                    Orbital Energies (a.u.)
 --------------------------------------------------------------

 Alpha MOs
 -- Occupied --
-19.178 -19.177 -19.121 -19.119 -10.313 -10.312 -10.233 -10.232
-10.211 -10.208 -10.207 -10.193 -10.191 -10.190 -10.174  -1.122
 -1.115  -1.033  -1.030  -0.886  -0.801  -0.795  -0.747  -0.731
 -0.704  -0.655  -0.627  -0.581  -0.575  -0.550  -0.521  -0.514
 -0.492  -0.490  -0.482  -0.478  -0.472  -0.447  -0.435  -0.432
 -0.429  -0.412  -0.407  -0.396  -0.384  -0.378  -0.371  -0.365
 -0.364  -0.322  -0.314  -0.296  -0.294  -0.269  -0.264

          Ground-State Mulliken Net Atomic Charges

     Atom                 Charge (a.u.)
  ----------------------------------------
      1 C                     0.466534
      2 C                     1.130520
      3 C                    -0.495530
      4 C                    -0.955366
      5 O                     0.093457
      6 O                    -0.179325
      7 O                     0.074399
      8 O                    -0.093018
      9 C                    -0.192808
     10 C                    -0.324898
     11 C                    -0.611948
     12 C                    -0.163203
     13 C                    -0.466517
     14 C                     0.218010
     15 H                     0.167816
     16 H                     0.191603
     17 H                     0.146333
     18 H                     0.179098
     19 H                     0.171345
     20 H                     0.117290
     21 H                     0.188083
     22 H                     0.187425
     23 C                    -0.558554
     24 H                     0.173767
     25 H                     0.200513
     26 H                     0.147950
     27 H                     0.187819
     28 GH                   -0.013546
     29 GH                    0.069602
     30 GH                    0.021631
     31 GH                   -0.017695
     32 GH                    0.000036
     33 GH                   -0.000136
     34 GH                   -0.002477
     35 GH                   -0.000083
     36 GH                   -0.004544
     37 GH                   -0.002162
     38 GH                   -0.025093
     39 GH                   -0.001916
     40 GH                   -0.007387
     41 GH                   -0.019243
     42 GH                   -0.000640
     43 GH                    0.000147
     44 GH                   -0.000685
     45 GH                    0.000551
     46 GH                    0.011710
     47 GH                   -0.000115
     48 GH                    0.001469
     49 GH                   -0.000274
     50 GH                   -0.008326
     51 GH                   -0.001744
     52 GH                    0.000036
     53 GH                    0.000560
     54 GH                   -0.000473
  ----------------------------------------
  Sum of atomic charges =    -0.000000

                    Cartesian Multipole Moments
 -----------------------------------------------------------------
    Charge (ESU x 10^10)
                -0.0000
    Dipole Moment (Debye)
         X       0.0045      Y       0.4768      Z       0.2068
       Tot       0.5198
    Quadrupole Moments (Debye-Ang)
        XX     -68.7558     XY      -0.6849     YY     -89.6892
        XZ      -0.0882     YZ      -9.3211     ZZ     -93.2748

 Total job time:  1465.51s(wall), 2899.95s(cpu)
        *  Thank you very much for using Q-Chem.  Have a nice day.  *
