 Q-Chem 5.0, Q-Chem, Inc., Pleasanton, CA (2017)
 Q-Chem 5.0.1 for Intel X86 EM64T Linux

User input:
--------------------------------------------------------------
$molecule
0  1
--
0  1
C        -0.54444000        -0.68370000        -0.06689000
C        -0.55709000        +0.71878000        +0.05493000
C        +0.74969000        -1.43776000        -0.09374000
C        +0.72843000        +1.48436000        +0.06598000
O        +1.53645000        -1.09176000        +0.94813000
O        +1.04702000        -2.28405000        -0.90088000
O        +1.53784000        +1.08301000        -0.93877000
O        +1.01035000        +2.37097000        +0.83478000
C        +2.83449000        +1.70121000        -0.99358000
C        +2.82316000        -1.73208000        +1.00475000
C        -1.74320000        -1.41616000        -0.12552000
C        -2.93952000        -0.70056000        -0.05285000
C        -2.95313000        +0.68255000        +0.06934000
C        -1.77161000        +1.42404000        +0.12810000
H        +2.73835000        +2.77989000        -1.12464000
H        +2.70778000        -2.81319000        +1.09555000
H        -3.90354000        +1.20325000        +0.11710000
H        +3.38998000        +1.50093000        -0.07544000
H        +3.33184000        +1.25269000        -1.85067000
H        +3.31095000        -1.32281000        +1.88650000
H        +3.39889000        -1.50934000        +0.10459000
H        -3.87892000        -1.24211000        -0.08988000
C        -1.83960000        +2.92746000        +0.24839000
H        -1.24214000        +3.42352000        -0.52065000
H        -1.45503000        +3.26427000        +1.21284000
H        -2.87211000        +3.26623000        +0.14638000
H        -1.73878000        -2.44393000        -0.21875000
--
0  1
C        -0.50522000        -1.18069000        +5.61127000
C        -0.51787000        +0.22179000        +5.73309000
C        +0.78891000        -1.93475000        +5.58442000
C        +0.76765000        +0.98737000        +5.74414000
O        +1.57567000        -1.58875000        +6.62629000
O        +1.08624000        -2.78104000        +4.77728000
O        +1.57706000        +0.58602000        +4.73939000
O        +1.04957000        +1.87398000        +6.51294000
C        +2.87371000        +1.20422000        +4.68458000
C        +2.86238000        -2.22907000        +6.68291000
C        -1.70398000        -1.91315000        +5.55264000
C        -2.90030000        -1.19755000        +5.62531000
C        -2.91391000        +0.18556000        +5.74750000
C        -1.73239000        +0.92705000        +5.80626000
H        +2.77757000        +2.28290000        +4.55352000
H        +2.74700000        -3.31018000        +6.77371000
H        -3.86432000        +0.70626000        +5.79526000
H        +3.42920000        +1.00394000        +5.60272000
H        +3.37106000        +0.75570000        +3.82749000
H        +3.35017000        -1.81980000        +7.56466000
H        +3.43811000        -2.00633000        +5.78275000
H        -3.83970000        -1.73910000        +5.58828000
C        -1.80038000        +2.43047000        +5.92655000
H        -1.20292000        +2.92653000        +5.15751000
H        -1.41581000        +2.76728000        +6.89100000
H        -2.83289000        +2.76924000        +5.82454000
H        -1.69956000        -2.94092000        +5.45941000
$end

$rem
JOBTYPE                   SP
METHOD                    B3LYP
DFT_D                     d3_op
BASIS                     6-311++G(d,p)
SYMMETRY                  False
THRESH                    12
SCF_CONVERGENCE           8
MAX_SUB_FILE_NUM          128
MEM_STATIC                400
MEM_TOTAL                 4000
$end
--------------------------------------------------------------

             Standard Nuclear Orientation (Angstroms)
    I     Atom           X                Y                Z
 ----------------------------------------------------------------
    1      C      -2.8188019591     0.2408651340     1.2041649205
    2      C      -2.8806935198     0.7432885986    -0.1094904309
    3      C      -2.7284885461    -1.2330499879     1.4561918313
    4      C      -2.9506544748    -0.1965563170    -1.2716408122
    5      O      -1.7291631994    -1.7894411048     0.7378756258
    6      O      -3.4142449975    -1.8509003904     2.2334214255
    7      O      -3.8827648523    -1.1524582871    -1.0638654504
    8      O      -2.2997302022    -0.1097525789    -2.2842475082
    9      C      -3.9986812064    -2.1574117312    -2.0851923190
   10      C      -1.5710050510    -3.2122794656     0.8769984124
   11      C      -2.7990590335     1.1080363351     2.3107746036
   12      C      -2.8375203061     2.4797626111     2.0549747100
   13      C      -2.8965387491     2.9764311096     0.7596191116
   14      C      -2.9175784202     2.1285315636    -0.3493774439
   15      H      -4.2703601607    -1.7032860527    -3.0390951335
   16      H      -1.3419994890    -3.4714502051     1.9117655345
   17      H      -2.9307606225     4.0491269225     0.6020080963
   18      H      -3.0543067741    -2.6927142581    -2.2003896037
   19      H      -4.7828033995    -2.8285030912    -1.7417985890
   20      H      -0.7430015305    -3.4762107641     0.2230301264
   21      H      -2.4840254387    -3.7279823031     0.5739959022
   22      H      -2.8174311002     3.1710211350     2.8909639805
   23      C      -2.9949250851     2.7175018260    -1.7373599885
   24      H      -3.8132001776     2.2833780701    -2.3173763110
   25      H      -2.0770066046     2.5301772568    -2.2975689070
   26      H      -3.1551505844     3.7955765590    -1.6796476626
   27      H      -2.7576973968     0.7441593445     3.2756089381
   28      C       2.8757189027     0.3677089198     0.9888022899
   29      C       2.8138273420     0.8701323844    -0.3248530615
   30      C       2.9660323157    -1.1062062021     1.2408292007
   31      C       2.7438663869    -0.0697125312    -1.4870034428
   32      O       3.9653576624    -1.6625973190     0.5225129952
   33      O       2.2802758643    -1.7240566046     2.0180587949
   34      O       1.8117560095    -1.0256145013    -1.2792280810
   35      O       3.3947906596     0.0170912068    -2.4996101388
   36      C       1.6958396554    -2.0305679454    -2.3005549496
   37      C       4.1235158108    -3.0854356799     0.6616357818
   38      C       2.8954618283     1.2348801209     2.0954119731
   39      C       2.8570005557     2.6066063969     1.8396120794
   40      C       2.7979821127     3.1032748954     0.5442564810
   41      C       2.7769424416     2.2553753494    -0.5647400745
   42      H       1.4241607011    -1.5764422669    -3.2544577641
   43      H       4.3525213728    -3.3446064194     1.6964029039
   44      H       2.7637602393     4.1759707082     0.3866454657
   45      H       2.6402140877    -2.5658704723    -2.4157522343
   46      H       0.9117174623    -2.7016593054    -1.9571612196
   47      H       4.9515193313    -3.3493669784     0.0076674958
   48      H       3.2104954231    -3.6011385173     0.3586332716
   49      H       2.8770897616     3.2978649208     2.6756013499
   50      C       2.6995957767     2.8443456118    -1.9527226191
   51      H       1.8813206842     2.4102218559    -2.5327389416
   52      H       3.6175142572     2.6570210425    -2.5129315376
   53      H       2.5393702774     3.9224203448    -1.8950102932
   54      H       2.9368234650     0.8710031303     3.0602463075
 ----------------------------------------------------------------

   15   -1455.0905880530      5.76E-09 Convergence criterion met
 Total energy in the final basis set = -1455.09058805

                    Orbital Energies (a.u.)
 --------------------------------------------------------------

 Alpha MOs
 -- Occupied --
-19.176 -19.176 -19.173 -19.170 -19.120 -19.118 -19.117 -19.114
-10.312 -10.310 -10.309 -10.307 -10.233 -10.232 -10.229 -10.227
-10.209 -10.208 -10.205 -10.205 -10.205 -10.204 -10.191 -10.191
-10.189 -10.188 -10.187 -10.187 -10.173 -10.171  -1.120  -1.119
 -1.112  -1.111  -1.032  -1.029  -1.028  -1.025  -0.884  -0.883
 -0.799  -0.798  -0.792  -0.792  -0.745  -0.744  -0.729  -0.728
 -0.702  -0.701  -0.653  -0.652  -0.624  -0.624  -0.579  -0.578
 -0.574  -0.571  -0.547  -0.547  -0.519  -0.518  -0.511  -0.511
 -0.490  -0.490  -0.487  -0.486  -0.481  -0.479  -0.476  -0.475
 -0.470  -0.469  -0.445  -0.444  -0.433  -0.432  -0.430  -0.429
 -0.427  -0.425  -0.411  -0.409  -0.405  -0.403  -0.393  -0.393
 -0.382  -0.381  -0.376  -0.375  -0.368  -0.367  -0.363  -0.362
 -0.361  -0.359  -0.320  -0.320  -0.311  -0.310  -0.294  -0.294
 -0.292  -0.290  -0.267  -0.266  -0.262  -0.261

          Ground-State Mulliken Net Atomic Charges

     Atom                 Charge (a.u.)
  ----------------------------------------
      1 C                     0.473486
      2 C                     1.145543
      3 C                    -0.514995
      4 C                    -0.958097
      5 O                     0.100836
      6 O                    -0.183789
      7 O                     0.076560
      8 O                    -0.102145
      9 C                    -0.193408
     10 C                    -0.318110
     11 C                    -0.607413
     12 C                    -0.158309
     13 C                    -0.470098
     14 C                     0.228462
     15 H                     0.167731
     16 H                     0.195088
     17 H                     0.143602
     18 H                     0.175940
     19 H                     0.171844
     20 H                     0.111104
     21 H                     0.184910
     22 H                     0.185021
     23 C                    -0.559219
     24 H                     0.173357
     25 H                     0.193275
     26 H                     0.147374
     27 H                     0.187839
     28 C                     0.662540
     29 C                     0.971490
     30 C                    -0.852448
     31 C                    -0.743498
     32 O                     0.064413
     33 O                    -0.111096
     34 O                     0.098477
     35 O                    -0.160392
     36 C                    -0.307686
     37 C                    -0.190390
     38 C                    -0.578611
     39 C                    -0.149007
     40 C                    -0.501139
     41 C                     0.304119
     42 H                     0.189962
     43 H                     0.170973
     44 H                     0.144218
     45 H                     0.192759
     46 H                     0.117534
     47 H                     0.171476
     48 H                     0.171614
     49 H                     0.185682
     50 C                    -0.563968
     51 H                     0.192625
     52 H                     0.211873
     53 H                     0.137236
     54 H                     0.174858
  ----------------------------------------
  Sum of atomic charges =    -0.000000

                    Cartesian Multipole Moments
 -----------------------------------------------------------------
    Charge (ESU x 10^10)
                -0.0000
    Dipole Moment (Debye)
         X       0.2668      Y       0.3528      Z      -0.8293
       Tot       0.9399
    Quadrupole Moments (Debye-Ang)
        XX    -182.9987     XY      -7.1327     YY    -144.0079
        XZ      17.0275     YZ      14.1511     ZZ    -179.8962

 Total job time:  1607.11s(wall), 3198.95s(cpu)
        *  Thank you very much for using Q-Chem.  Have a nice day.  *
