 Q-Chem 5.0, Q-Chem, Inc., Pleasanton, CA (2017)
 Q-Chem 5.0.1 for Intel X86 EM64T Linux

User input:
--------------------------------------------------------------
$molecule
0  1
--
0  1
C        -0.54444000        -0.68370000        -0.06689000
C        -0.55709000        +0.71878000        +0.05493000
C        +0.74969000        -1.43776000        -0.09374000
C        +0.72843000        +1.48436000        +0.06598000
O        +1.53645000        -1.09176000        +0.94813000
O        +1.04702000        -2.28405000        -0.90088000
O        +1.53784000        +1.08301000        -0.93877000
O        +1.01035000        +2.37097000        +0.83478000
C        +2.83449000        +1.70121000        -0.99358000
C        +2.82316000        -1.73208000        +1.00475000
C        -1.74320000        -1.41616000        -0.12552000
C        -2.93952000        -0.70056000        -0.05285000
C        -2.95313000        +0.68255000        +0.06934000
C        -1.77161000        +1.42404000        +0.12810000
H        +2.73835000        +2.77989000        -1.12464000
H        +2.70778000        -2.81319000        +1.09555000
H        -3.90354000        +1.20325000        +0.11710000
H        +3.38998000        +1.50093000        -0.07544000
H        +3.33184000        +1.25269000        -1.85067000
H        +3.31095000        -1.32281000        +1.88650000
H        +3.39889000        -1.50934000        +0.10459000
H        -3.87892000        -1.24211000        -0.08988000
C        -1.83960000        +2.92746000        +0.24839000
C        -1.78103000        -2.92226000        -0.24590000
H        -1.39752000        -3.25223000        -1.21323000
H        -2.80572000        -3.28175000        -0.13627000
H        -1.16958000        -3.40777000        +0.51926000
H        -1.24214000        +3.42352000        -0.52065000
H        -1.45503000        +3.26427000        +1.21284000
H        -2.87211000        +3.26623000        +0.14638000
--
0  1
C        -0.50522000        -1.18069000        +5.61127000
C        -0.51787000        +0.22179000        +5.73309000
C        +0.78891000        -1.93475000        +5.58442000
C        +0.76765000        +0.98737000        +5.74414000
O        +1.57567000        -1.58875000        +6.62629000
O        +1.08624000        -2.78104000        +4.77728000
O        +1.57706000        +0.58602000        +4.73939000
O        +1.04957000        +1.87398000        +6.51294000
C        +2.87371000        +1.20422000        +4.68458000
C        +2.86238000        -2.22907000        +6.68291000
C        -1.70398000        -1.91315000        +5.55264000
C        -2.90030000        -1.19755000        +5.62531000
C        -2.91391000        +0.18556000        +5.74750000
C        -1.73239000        +0.92705000        +5.80626000
H        +2.77757000        +2.28290000        +4.55352000
H        +2.74700000        -3.31018000        +6.77371000
H        -3.86432000        +0.70626000        +5.79526000
H        +3.42920000        +1.00394000        +5.60272000
H        +3.37106000        +0.75570000        +3.82749000
H        +3.35017000        -1.81980000        +7.56466000
H        +3.43811000        -2.00633000        +5.78275000
H        -3.83970000        -1.73910000        +5.58828000
C        -1.80038000        +2.43047000        +5.92655000
C        -1.74181000        -3.41925000        +5.43226000
H        -1.35830000        -3.74922000        +4.46493000
H        -2.76650000        -3.77874000        +5.54189000
H        -1.13036000        -3.90476000        +6.19742000
H        -1.20292000        +2.92653000        +5.15751000
H        -1.41581000        +2.76728000        +6.89100000
H        -2.83289000        +2.76924000        +5.82454000
$end

$rem
JOBTYPE                   SP
METHOD                    B3LYP
DFT_D                     d3_op
BASIS                     6-311++G(d,p)
SYMMETRY                  False
THRESH                    12
SCF_CONVERGENCE           8
MAX_SUB_FILE_NUM          128
MEM_STATIC                400
MEM_TOTAL                 4000
$end
--------------------------------------------------------------

             Standard Nuclear Orientation (Angstroms)
    I     Atom           X                Y                Z
 ----------------------------------------------------------------
    1      C      -2.8250562167     0.4963399645     0.8381540611
    2      C      -2.8880905703     0.5636704732    -0.5666390048
    3      C      -2.7397582207    -0.8255378688     1.5377704623
    4      C      -2.9643220872    -0.6917777059    -1.3770926647
    5      O      -1.7442258371    -1.5827470361     1.0281137694
    6      O      -3.4260494454    -1.1667962287     2.4697758053
    7      O      -3.8995723787    -1.5309401442    -0.8802403451
    8      O      -2.3154273137    -0.9283558075    -2.3668279795
    9      C      -4.0216790058    -2.8040643468    -1.5365339798
   10      C      -1.5911520527    -2.8916549320     1.6044528081
   11      C      -2.7994474063     1.6656229631     1.6185911976
   12      C      -2.8332908080     2.8890204415     0.9472499540
   13      C      -2.8934314177     2.9565860633    -0.4383643119
   14      C      -2.9202692845     1.8048709938    -1.2270859331
   15      H      -4.2938462724    -2.6693623403    -2.5842698788
   16      H      -1.3607291333    -2.8157162839     2.6681701655
   17      H      -2.9239434769     3.9265548092    -0.9230480459
   18      H      -3.0796154822    -3.3526588300    -1.4797652506
   19      H      -4.8075453289    -3.3309529250    -0.9999400651
   20      H      -0.7656790826    -3.3501958354     1.0647689237
   21      H      -2.5068268365    -3.4722261961     1.4785843694
   22      H      -2.8086329017     3.8066787669     1.5255363615
   23      C      -2.9986024594     1.9312752225    -2.7295006246
   24      C      -2.7219287971     1.6448490002     3.1278357010
   25      H      -3.6337632475     1.2344937586     3.5658470712
   26      H      -2.5765919109     2.6568190658     3.5099811826
   27      H      -1.8935965707     1.0272655707     3.4849313724
   28      H      -3.8198665874     1.3412854888    -3.1441014484
   29      H      -2.0827064992     1.5743986686    -3.2041295100
   30      H      -3.1545961407     2.9741415130    -3.0111811609
   31      C       2.8693897024     0.5248990643     0.5881374496
   32      C       2.8063553488     0.5922295730    -0.8166556163
   33      C       2.9546876984    -0.7969787690     1.2877538508
   34      C       2.7301238320    -0.6632186061    -1.6271092762
   35      O       3.9502200820    -1.5541879363     0.7780971579
   36      O       2.2683964738    -1.1382371289     2.2197591938
   37      O       1.7948735404    -1.5023810444    -1.1302569567
   38      O       3.3790186054    -0.8997967077    -2.6168445910
   39      C       1.6727669134    -2.7755052470    -1.7865505913
   40      C       4.1032938664    -2.8630958322     1.3544361966
   41      C       2.8949985128     1.6941820629     1.3685745861
   42      C       2.8611551111     2.9175795413     0.6972333425
   43      C       2.8010145014     2.9851451631    -0.6883809235
   44      C       2.7741766347     1.8334300936    -1.4771025446
   45      H       1.4005996467    -2.6408032405    -2.8342864903
   46      H       4.3337167858    -2.7871571841     2.4181535540
   47      H       2.7705024423     3.9551139089    -1.1730646574
   48      H       2.6148304369    -3.3240997303    -1.7297818621
   49      H       0.8869005902    -3.3023938252    -1.2499566766
   50      H       4.9287668365    -3.3216367356     0.8147523122
   51      H       3.1876190827    -3.4436670963     1.2285677579
   52      H       2.8858130175     3.8352378667     1.2755197500
   53      C       2.6958434597     1.9598343223    -2.9795172361
   54      C       2.9725171221     1.6734081000     2.8778190895
   55      H       2.0606826716     1.2630528584     3.3158304597
   56      H       3.1178540083     2.6853781655     3.2599645711
   57      H       3.8008493484     1.0558246705     3.2349147609
   58      H       1.8745793318     1.3698445886    -3.3941180599
   59      H       3.6117394199     1.6029577684    -3.4541461215
   60      H       2.5398497784     3.0027006128    -3.2611977724
 ----------------------------------------------------------------

   14   -1533.7565002995      9.43E-09 Convergence criterion met
 Total energy in the final basis set = -1533.75650030

                    Orbital Energies (a.u.)
 --------------------------------------------------------------

 Alpha MOs
 -- Occupied --
-19.175 -19.175 -19.171 -19.170 -19.118 -19.118 -19.115 -19.114
-10.310 -10.309 -10.307 -10.306 -10.232 -10.231 -10.228 -10.227
-10.203 -10.202 -10.202 -10.202 -10.199 -10.199 -10.198 -10.198
-10.184 -10.184 -10.184 -10.183 -10.170 -10.169 -10.167 -10.167
 -1.119  -1.118  -1.111  -1.110  -1.030  -1.030  -1.026  -1.025
 -0.882  -0.882  -0.805  -0.804  -0.793  -0.793  -0.744  -0.744
 -0.732  -0.731  -0.722  -0.722  -0.673  -0.672  -0.646  -0.646
 -0.618  -0.618  -0.575  -0.574  -0.562  -0.562  -0.535  -0.534
 -0.515  -0.514  -0.512  -0.512  -0.489  -0.489  -0.486  -0.485
 -0.478  -0.477  -0.475  -0.474  -0.467  -0.466  -0.441  -0.439
 -0.432  -0.431  -0.428  -0.426  -0.418  -0.418  -0.414  -0.413
 -0.409  -0.409  -0.403  -0.403  -0.394  -0.393  -0.385  -0.385
 -0.378  -0.377  -0.371  -0.370  -0.360  -0.359  -0.356  -0.355
 -0.355  -0.354  -0.319  -0.318  -0.310  -0.309  -0.292  -0.291
 -0.289  -0.288  -0.264  -0.263  -0.251  -0.250

          Ground-State Mulliken Net Atomic Charges

     Atom                 Charge (a.u.)
  ----------------------------------------
      1 C                     0.527071
      2 C                     0.815767
      3 C                    -0.709030
      4 C                    -1.067499
      5 O                     0.125317
      6 O                    -0.154741
      7 O                     0.070602
      8 O                    -0.087732
      9 C                    -0.190411
     10 C                    -0.308219
     11 C                     0.543548
     12 C                    -0.485574
     13 C                    -0.477966
     14 C                     0.356899
     15 H                     0.167138
     16 H                     0.187621
     17 H                     0.155015
     18 H                     0.173224
     19 H                     0.172769
     20 H                     0.113306
     21 H                     0.189370
     22 H                     0.150238
     23 C                    -0.655107
     24 C                    -0.648030
     25 H                     0.212218
     26 H                     0.135950
     27 H                     0.191308
     28 H                     0.171407
     29 H                     0.187142
     30 H                     0.138925
     31 C                     0.796533
     32 C                     0.509527
     33 C                    -1.120062
     34 C                    -0.655056
     35 O                     0.084926
     36 O                    -0.075555
     37 O                     0.104749
     38 O                    -0.156983
     39 C                    -0.308812
     40 C                    -0.190415
     41 C                     0.367296
     42 C                    -0.465028
     43 C                    -0.485148
     44 C                     0.551598
     45 H                     0.190001
     46 H                     0.166590
     47 H                     0.149809
     48 H                     0.192348
     49 H                     0.112767
     50 H                     0.170691
     51 H                     0.172776
     52 H                     0.155906
     53 C                    -0.636888
     54 C                    -0.668062
     55 H                     0.187791
     56 H                     0.139946
     57 H                     0.171445
     58 H                     0.190750
     59 H                     0.211276
     60 H                     0.134760
  ----------------------------------------
  Sum of atomic charges =    -0.000000

                    Cartesian Multipole Moments
 -----------------------------------------------------------------
    Charge (ESU x 10^10)
                -0.0000
    Dipole Moment (Debye)
         X       0.1845      Y      -0.1086      Z       0.1847
       Tot       0.2827
    Quadrupole Moments (Debye-Ang)
        XX    -195.6904     XY      -1.3644     YY    -153.9809
        XZ      17.7844     YZ       1.7233     ZZ    -195.7526

 Total job time:  2180.51s(wall), 4339.31s(cpu)
        *  Thank you very much for using Q-Chem.  Have a nice day.  *
