 Q-Chem 5.0, Q-Chem, Inc., Pleasanton, CA (2017)
 Q-Chem 5.0.1 for Intel X86 EM64T Linux

User input:
--------------------------------------------------------------
$molecule
0  1
C        -0.54444000        -0.68370000        -0.06689000
C        -0.55709000        +0.71878000        +0.05493000
C        +0.74969000        -1.43776000        -0.09374000
C        +0.72843000        +1.48436000        +0.06598000
O        +1.53645000        -1.09176000        +0.94813000
O        +1.04702000        -2.28405000        -0.90088000
O        +1.53784000        +1.08301000        -0.93877000
O        +1.01035000        +2.37097000        +0.83478000
C        +2.83449000        +1.70121000        -0.99358000
C        +2.82316000        -1.73208000        +1.00475000
C        -1.74320000        -1.41616000        -0.12552000
C        -2.93952000        -0.70056000        -0.05285000
C        -2.95313000        +0.68255000        +0.06934000
C        -1.77161000        +1.42404000        +0.12810000
H        +2.73835000        +2.77989000        -1.12464000
H        +2.70778000        -2.81319000        +1.09555000
H        -3.90354000        +1.20325000        +0.11710000
H        +3.38998000        +1.50093000        -0.07544000
H        +3.33184000        +1.25269000        -1.85067000
H        +3.31095000        -1.32281000        +1.88650000
H        +3.39889000        -1.50934000        +0.10459000
H        -3.87892000        -1.24211000        -0.08988000
C        -1.83960000        +2.92746000        +0.24839000
C        -1.78103000        -2.92226000        -0.24590000
H        -1.39752000        -3.25223000        -1.21323000
H        -2.80572000        -3.28175000        -0.13627000
H        -1.16958000        -3.40777000        +0.51926000
H        -1.24214000        +3.42352000        -0.52065000
H        -1.45503000        +3.26427000        +1.21284000
H        -2.87211000        +3.26623000        +0.14638000
@C        -0.50522000        -1.18069000        +5.61127000
@C        -0.51787000        +0.22179000        +5.73309000
@C        +0.78891000        -1.93475000        +5.58442000
@C        +0.76765000        +0.98737000        +5.74414000
@O        +1.57567000        -1.58875000        +6.62629000
@O        +1.08624000        -2.78104000        +4.77728000
@O        +1.57706000        +0.58602000        +4.73939000
@O        +1.04957000        +1.87398000        +6.51294000
@C        +2.87371000        +1.20422000        +4.68458000
@C        +2.86238000        -2.22907000        +6.68291000
@C        -1.70398000        -1.91315000        +5.55264000
@C        -2.90030000        -1.19755000        +5.62531000
@C        -2.91391000        +0.18556000        +5.74750000
@C        -1.73239000        +0.92705000        +5.80626000
@H        +2.77757000        +2.28290000        +4.55352000
@H        +2.74700000        -3.31018000        +6.77371000
@H        -3.86432000        +0.70626000        +5.79526000
@H        +3.42920000        +1.00394000        +5.60272000
@H        +3.37106000        +0.75570000        +3.82749000
@H        +3.35017000        -1.81980000        +7.56466000
@H        +3.43811000        -2.00633000        +5.78275000
@H        -3.83970000        -1.73910000        +5.58828000
@C        -1.80038000        +2.43047000        +5.92655000
@C        -1.74181000        -3.41925000        +5.43226000
@H        -1.35830000        -3.74922000        +4.46493000
@H        -2.76650000        -3.77874000        +5.54189000
@H        -1.13036000        -3.90476000        +6.19742000
@H        -1.20292000        +2.92653000        +5.15751000
@H        -1.41581000        +2.76728000        +6.89100000
@H        -2.83289000        +2.76924000        +5.82454000
$end

$rem
JOBTYPE                   SP
METHOD                    B3LYP
DFT_D                     d3_op
BASIS                     6-311++G(d,p)
SYMMETRY                  False
THRESH                    12
SCF_CONVERGENCE           8
MAX_SUB_FILE_NUM          128
MEM_STATIC                400
MEM_TOTAL                 4000
$end
--------------------------------------------------------------

             Standard Nuclear Orientation (Angstroms)
    I     Atom           X                Y                Z
 ----------------------------------------------------------------
    1      C      -0.5444400000    -0.6837000000    -0.0668900000
    2      C      -0.5570900000     0.7187800000     0.0549300000
    3      C       0.7496900000    -1.4377600000    -0.0937400000
    4      C       0.7284300000     1.4843600000     0.0659800000
    5      O       1.5364500000    -1.0917600000     0.9481300000
    6      O       1.0470200000    -2.2840500000    -0.9008800000
    7      O       1.5378400000     1.0830100000    -0.9387700000
    8      O       1.0103500000     2.3709700000     0.8347800000
    9      C       2.8344900000     1.7012100000    -0.9935800000
   10      C       2.8231600000    -1.7320800000     1.0047500000
   11      C      -1.7432000000    -1.4161600000    -0.1255200000
   12      C      -2.9395200000    -0.7005600000    -0.0528500000
   13      C      -2.9531300000     0.6825500000     0.0693400000
   14      C      -1.7716100000     1.4240400000     0.1281000000
   15      H       2.7383500000     2.7798900000    -1.1246400000
   16      H       2.7077800000    -2.8131900000     1.0955500000
   17      H      -3.9035400000     1.2032500000     0.1171000000
   18      H       3.3899800000     1.5009300000    -0.0754400000
   19      H       3.3318400000     1.2526900000    -1.8506700000
   20      H       3.3109500000    -1.3228100000     1.8865000000
   21      H       3.3988900000    -1.5093400000     0.1045900000
   22      H      -3.8789200000    -1.2421100000    -0.0898800000
   23      C      -1.8396000000     2.9274600000     0.2483900000
   24      C      -1.7810300000    -2.9222600000    -0.2459000000
   25      H      -1.3975200000    -3.2522300000    -1.2132300000
   26      H      -2.8057200000    -3.2817500000    -0.1362700000
   27      H      -1.1695800000    -3.4077700000     0.5192600000
   28      H      -1.2421400000     3.4235200000    -0.5206500000
   29      H      -1.4550300000     3.2642700000     1.2128400000
   30      H      -2.8721100000     3.2662300000     0.1463800000
   31      GH     -0.5052200000    -1.1806900000     5.6112700000
   32      GH     -0.5178700000     0.2217900000     5.7330900000
   33      GH      0.7889100000    -1.9347500000     5.5844200000
   34      GH      0.7676500000     0.9873700000     5.7441400000
   35      GH      1.5756700000    -1.5887500000     6.6262900000
   36      GH      1.0862400000    -2.7810400000     4.7772800000
   37      GH      1.5770600000     0.5860200000     4.7393900000
   38      GH      1.0495700000     1.8739800000     6.5129400000
   39      GH      2.8737100000     1.2042200000     4.6845800000
   40      GH      2.8623800000    -2.2290700000     6.6829100000
   41      GH     -1.7039800000    -1.9131500000     5.5526400000
   42      GH     -2.9003000000    -1.1975500000     5.6253100000
   43      GH     -2.9139100000     0.1855600000     5.7475000000
   44      GH     -1.7323900000     0.9270500000     5.8062600000
   45      GH      2.7775700000     2.2829000000     4.5535200000
   46      GH      2.7470000000    -3.3101800000     6.7737100000
   47      GH     -3.8643200000     0.7062600000     5.7952600000
   48      GH      3.4292000000     1.0039400000     5.6027200000
   49      GH      3.3710600000     0.7557000000     3.8274900000
   50      GH      3.3501700000    -1.8198000000     7.5646600000
   51      GH      3.4381100000    -2.0063300000     5.7827500000
   52      GH     -3.8397000000    -1.7391000000     5.5882800000
   53      GH     -1.8003800000     2.4304700000     5.9265500000
   54      GH     -1.7418100000    -3.4192500000     5.4322600000
   55      GH     -1.3583000000    -3.7492200000     4.4649300000
   56      GH     -2.7665000000    -3.7787400000     5.5418900000
   57      GH     -1.1303600000    -3.9047600000     6.1974200000
   58      GH     -1.2029200000     2.9265300000     5.1575100000
   59      GH     -1.4158100000     2.7672800000     6.8910000000
   60      GH     -2.8328900000     2.7692400000     5.8245400000
 ----------------------------------------------------------------

   14    -766.8768400802      6.05E-09 Convergence criterion met
 Total energy in the final basis set = -766.87684008

                    Orbital Energies (a.u.)
 --------------------------------------------------------------

 Alpha MOs
 -- Occupied --
-19.176 -19.176 -19.119 -19.119 -10.311 -10.311 -10.232 -10.232
-10.205 -10.205 -10.201 -10.201 -10.187 -10.186 -10.171 -10.170
 -1.121  -1.114  -1.031  -1.030  -0.885  -0.807  -0.795  -0.747
 -0.734  -0.725  -0.675  -0.649  -0.620  -0.577  -0.565  -0.537
 -0.517  -0.515  -0.491  -0.489  -0.480  -0.477  -0.469  -0.442
 -0.434  -0.429  -0.420  -0.416  -0.411  -0.406  -0.396  -0.387
 -0.380  -0.373  -0.362  -0.359  -0.357  -0.321  -0.313  -0.293
 -0.292  -0.266  -0.253

          Ground-State Mulliken Net Atomic Charges

     Atom                 Charge (a.u.)
  ----------------------------------------
      1 C                     0.506386
      2 C                     0.786953
      3 C                    -0.718221
      4 C                    -1.055503
      5 O                     0.119699
      6 O                    -0.149639
      7 O                     0.068794
      8 O                    -0.079722
      9 C                    -0.190203
     10 C                    -0.316830
     11 C                     0.549527
     12 C                    -0.479648
     13 C                    -0.473517
     14 C                     0.356210
     15 H                     0.167281
     16 H                     0.185166
     17 H                     0.157491
     18 H                     0.176450
     19 H                     0.172357
     20 H                     0.113669
     21 H                     0.192257
     22 H                     0.152858
     23 C                    -0.646943
     24 C                    -0.636564
     25 H                     0.212975
     26 H                     0.138417
     27 H                     0.186637
     28 H                     0.171762
     29 H                     0.194946
     30 H                     0.139495
     31 GH                    0.017890
     32 GH                    0.008153
     33 GH                   -0.014413
     34 GH                    0.004194
     35 GH                    0.000070
     36 GH                    0.000775
     37 GH                   -0.002807
     38 GH                   -0.000082
     39 GH                   -0.003637
     40 GH                   -0.002242
     41 GH                    0.000737
     42 GH                   -0.000417
     43 GH                   -0.000755
     44 GH                   -0.008894
     45 GH                   -0.000691
     46 GH                    0.000078
     47 GH                   -0.000954
     48 GH                    0.000460
     49 GH                    0.014126
     50 GH                   -0.000110
     51 GH                    0.001554
     52 GH                   -0.000307
     53 GH                   -0.006168
     54 GH                   -0.005359
     55 GH                   -0.003810
     56 GH                    0.000101
     57 GH                   -0.000028
     58 GH                   -0.000426
     59 GH                    0.000014
     60 GH                    0.000406
  ----------------------------------------
  Sum of atomic charges =     0.000000

                    Cartesian Multipole Moments
 -----------------------------------------------------------------
    Charge (ESU x 10^10)
                 0.0000
    Dipole Moment (Debye)
         X       0.0683      Y      -0.1075      Z       0.0780
       Tot       0.1494
    Quadrupole Moments (Debye-Ang)
        XX     -76.1488     XY      -0.0644     YY     -95.4326
        XZ       0.0778     YZ      -8.9467     ZZ     -99.5040

 Total job time:  2097.69s(wall), 4172.17s(cpu)
        *  Thank you very much for using Q-Chem.  Have a nice day.  *
