 Q-Chem 5.0, Q-Chem, Inc., Pleasanton, CA (2017)
 Q-Chem 5.0.1 for Intel X86 EM64T Linux

User input:
--------------------------------------------------------------
$molecule
0 1
C 0.51341797 -0.84987416 0.00493475
C -0.76265390 -0.26806941 -0.07954209
C 1.72499983 0.00944630 -0.12354351
C -0.95088480 1.21349864 -0.26717246
O 2.86440050 -0.67344277 0.11685719
O 1.71223356 1.18172171 -0.42266879
O -0.77752763 1.87309602 0.89059310
O -1.30242169 1.72449021 -1.30064817
C -0.84548555 3.30905688 0.80719577
C 4.08580913 0.07316521 -0.02336541
C 0.63543453 -2.23494539 0.17080797
C -0.50081493 -3.02862883 0.25033272
C -1.76184626 -2.44564372 0.16085179
C -1.91623932 -1.06716078 -0.00803514
H -0.05990835 3.67499540 0.14458943
H 4.18378386 0.45547203 -1.04054627
H -2.64768754 -3.06893940 0.22389109
H -1.81935320 3.62675030 0.43173673
H -0.68942493 3.66528108 1.82298798
H 4.88212362 -0.63325266 0.20020716
H 4.10420687 0.90876410 0.67771696
H -0.40671899 -4.10079014 0.37928662
H 1.62096016 -2.67508515 0.22983321
C -3.29737512 -0.46450266 -0.11014569
H -3.46926583 -0.04453274 -1.10424864
H -3.43481727 0.34465207 0.61252713
H -4.06248430 -1.21884068 0.08063366
$end

$rem
sym_ignore      true
jobtype         opt
method          b3lyp
basis           6-311++G(d,p)
dft_d           d3_op
mem_total       62000
MEM_STATIC      4000
ao2mo_disk      350000
max_scf_cycles  200
geom_opt_max_cycles 1000
geom_opt_tol_displacement 1
GEOM_OPT_TOL_GRADIENT       1
GEOM_OPT_TOL_ENERGY         1
$end

--------------------------------------------------------------

   15    -727.5472373358      5.84E-09 Convergence criterion met
 Total energy in the final basis set = -727.54723734
   11    -727.5472379711      2.21E-09 Convergence criterion met
 Total energy in the final basis set = -727.54723797
   11    -727.5472315283      6.32E-09 Convergence criterion met
 Total energy in the final basis set = -727.54723153
   10    -727.5472378531      6.64E-09 Convergence criterion met
 Total energy in the final basis set = -727.54723785
   11    -727.5472406596      4.48E-09 Convergence criterion met
 Total energy in the final basis set = -727.54724066
   11    -727.5472369808      9.54E-09 Convergence criterion met
 Total energy in the final basis set = -727.54723698
   10    -727.5472396572      7.76E-09 Convergence criterion met
 Total energy in the final basis set = -727.54723966
    8    -727.5472410081      6.22E-09 Convergence criterion met
    8    -727.5472411304      6.64E-09 Convergence criterion met
 Total energy in the final basis set = -727.54724113
    8    -727.5472414743      3.73E-09 Convergence criterion met
 Total energy in the final basis set = -727.54724147
    8    -727.5472414694      3.57E-09 Convergence criterion met
 Total energy in the final basis set = -727.54724147
    7    -727.5472414885      4.49E-09 Convergence criterion met
 Total energy in the final basis set = -727.54724149
    5    -727.5472414537      8.62E-09 Convergence criterion met
 Total energy in the final basis set = -727.54724145
    5    -727.5472414564      5.62E-09 Convergence criterion met
 Total energy in the final basis set = -727.54724146
 Final energy is   -727.547241456381
 **  OPTIMIZATION CONVERGED  **
 Total job time:  549.89s(wall), 8626.75s(cpu)
        *  Thank you very much for using Q-Chem.  Have a nice day.  *

User input: 2 of 2

r0169.ten.osc.edu 10.25.155
Q-Chem Developer Version! Running on 10.25.155.*
                  Welcome to Q-Chem
     A Quantum Leap Into The Future Of Chemistry

 Q-Chem 5.0, Q-Chem, Inc., Pleasanton, CA (2017)

 Yihan Shao,  Zhengting Gan,  E. Epifanovsky,  A. T. B. Gilbert,  M. Wormit,
 J. Kussmann,  A. W. Lange,  A. Behn,  Jia Deng,  Xintian Feng,  D. Ghosh,
 M. Goldey,  P. R. Horn,  L. D. Jacobson,  I. Kaliman,  T. Kus,  A. Landau,
 Jie Liu,  E. I. Proynov,  R. M. Richard,  R. P. Steele,  E. J. Sundstrom,
 H. L. Woodcock III,  P. M. Zimmerman,  D. Zuev,  B. Albrecht,  E. Alguire,
 S. A. Baeppler,  Z. Benda,  Y. A. Bernard,  E. J. Berquist,  K. B. Bravaya,
 D. Casanova,  Chun-Min Chang,  Yunqing Chen,  A. Chien,  K. D. Closser,
 M. P. Coons,  S. Dasgupta,  M. Diedenhofen,  Hainam Do,  R. G. Edgar,
 Po-Tung Fang,  S. Fatehi,  Qingguo Feng,  Qinghui Ge,  A. Ghysels,
 J. Gomes,  J. Gonthier,  A. Gunina,  M. W. D. Hanson-Heine,
 P. H. P. Harbach,  A. W. Hauser,  J. E. Herr,  E. G. Hohenstein,
 Z. C. Holden,  Kerwin Hui,  T.-C. Jagau,  Hyunjun Ji,  B. Kaduk,
 K. Khistyaev,  Jaehoon Kim,  P. Klunzinger,  K. Koh,  D. Kosenkov,
 T. Kowalczyk,  C. M. Krauter,  A. Kunitsa,  Ka Un Lao,  A. Laurent,
 K. V. Lawler,  Joonho Lee,  D. Lefrancois,  S. Lehtola,  D. S. Levine,
 Yi-Pei Li,  You-Sheng Lin,  Fenglai Liu,  E. Livshits,  A. Luenser,
 P. Manohar,  E. Mansoor,  S. F. Manzer,  Shan-Ping Mao,  Yuezhi Mao,
 N. Mardirossian,  A. V. Marenich,  L. A. Martinez-Martinez,  S. A. Maurer,
 N. J. Mayhall,  S. C. McKenzie,  J.-M. Mewes,  A. F. Morrison,  K. Nanda,
 T. S. Nguyen-Beck,  R. Olivares-Amaya,  J. A. Parkhill,  T. M. Perrine,
 F. Plasser,  S. Prager,  A. Prociuk,  D. R. Rehn,  F. Rob,  M. Schneider,
 N. Sergueev,  S. M. Sharada,  S. Sharma,  D. W. Small,  T. Stauch,
 T. Stein,  Yu-Chuan Su,  A. J. W. Thom,  T. Tsuchimochi,  L. Vogt,
 O. Vydrov,  M. A. Watson,  J. Wenzel,  M. de Wergifosse,  T. A. Wesolowski,
 A. White,  J. Witte,  A. Yamada,  Jun Yang,  K. Yao,  S. Yeganeh,
 S. R. Yost,  Zhi-Qiang You,  A. Zech,  Igor Ying Zhang,  Xing Zhang,
 Yan Zhao,  Ying Zhu,  B. R. Brooks,  G. K. L. Chan,  C. J. Cramer,
 M. S. Gordon,  W. J. Hehre,  A. Klamt,  M. W. Schmidt,  C. D. Sherrill,
 D. G. Truhlar,  A. Aspuru-Guzik,  R. Baer,  A. T. Bell,  N. A. Besley,
 Jeng-Da Chai,  A. Dreuw,  B. D. Dunietz,  T. R. Furlani,  Chao-Ping Hsu,
 Yousung Jung,  Jing Kong,  D. S. Lambrecht,  WanZhen Liang,  C. Ochsenfeld,
 V. A. Rassolov,  L. V. Slipchenko,  J. E. Subotnik,  T. Van Voorhis,
 J. M. Herbert,  A. I. Krylov,  P. M. W. Gill,  M. Head-Gordon

 Contributors to earlier versions of Q-Chem not listed above:
 R. D. Adamson,  B. Austin,  J. Baker,  G. J. O. Beran,  K. Brandhorst,
 S. T. Brown,  E. F. C. Byrd,  A. K. Chakraborty,  C.-L. Cheng,
 Siu Hung Chien,  D. M. Chipman,  D. L. Crittenden,  H. Dachsel,
 R. A. DiStasio Jr.,  R. J. Doerksen,  A. D. Dutoi,  L. Fusti-Molnar,
 W. A. Goddard III,  A. Golubeva-Zadorozhnaya,  S. R. Gwaltney,  G. Hawkins,
 A. Heyden,  S. Hirata,  G. Kedziora,  F. J. Keil,  C. Kelley,  Jihan Kim,
 R. A. King,  R. Z. Khaliullin,  P. P. Korambath,  W. Kurlancheek,
 A. M. Lee,  M. S. Lee,  S. V. Levchenko,  Ching Yeh Lin,  D. Liotard,
 R. C. Lochan,  I. Lotan,  P. E. Maslen,  N. Nair,  D. P. O'Neill,
 D. Neuhauser,  E. Neuscamman,  C. M. Oana,  R. Olson,  B. Peters,
 R. Peverati,  P. A. Pieniazek,  Y. M. Rhee,  J. Ritchie,  M. A. Rohrdanz,
 E. Rosta,  N. J. Russ,  H. F. Schaefer III,  N. E. Schultz,  N. Shenvi,
 A. C. Simmonett,  A. Sodt,  D. Stuck,  K. S. Thanthiriwatte,  V. Vanovschi,
 Tao Wang,  A. Warshel,  C. F. Williams,  Q. Wu,  X. Xu,  W. Zhang

 Please cite Q-Chem as follows:
 Y. Shao et al., Mol. Phys. 113, 184-215 (2015)
 DOI: 10.1080/00268976.2014.952696

 Q-Chem 5.0.1 for Intel X86 EM64T Linux

 Parts of Q-Chem use Armadillo 5.200.1 (Boston Tea Smuggler).
 http://arma.sourceforge.net/

 Q-Chem begins on Sat Oct 14 21:30:19 2017

Host: r0169.ten.osc.edu
0

     Scratch files written to /tmp/pbstmp.1310493/00//
Processing $rem in /users/PAS0291/osu6415/.qchemrc.
molden_format             true
The previous job contains 0 fragments, simply inherited here

Checking the input file for inconsistencies... 	...done.

--------------------------------------------------------------
User input:
--------------------------------------------------------------

$molecule
read
$end

$rem
sym_ignore      true
scf_guess       read
jobtype         freq
method          b3lyp
basis           6-311++G(d,p)
dft_d           d3_op
mem_total       62000
MEM_STATIC      4000
ao2mo_disk      350000
max_scf_cycles  200
$end
--------------------------------------------------------------

             Standard Nuclear Orientation (Angstroms)
    I     Atom           X                Y                Z
 ----------------------------------------------------------------
    1      C       0.5234243419    -0.8513966950     0.0189874857
    2      C      -0.7498916683    -0.2648351029    -0.0704067107
    3      C       1.7379016030     0.0051555147    -0.0986960129
    4      C      -0.9325577417     1.2162029601    -0.2712295529
    5      O       2.8782046498    -0.6968691165     0.0709438723
    6      O       1.7260539724     1.1928205410    -0.3298290500
    7      O      -0.8280901944     1.8779783660     0.8930234432
    8      O      -1.2271147119     1.7231640437    -1.3243225011
    9      C      -0.9031325023     3.3136347170     0.8044658672
   10      C       4.1011373391     0.0491596153    -0.0591953588
   11      C       0.6392019014    -2.2370425495     0.1863641834
   12      C      -0.5003567496    -3.0257410326     0.2654093306
   13      C      -1.7588853230    -2.4377293806     0.1714897693
   14      C      -1.9068390311    -1.0591391158    -0.0010096767
   15      H      -0.0792420943     3.6860522843     0.1941562757
   16      H       4.1654939372     0.5052013098    -1.0481321406
   17      H      -2.6474578615    -3.0572627041     0.2332796438
   18      H      -1.8530038459     3.6224907294     0.3656410696
   19      H      -0.8167515533     3.6711234050     1.8280361276
   20      H       4.8977713769    -0.6778944254     0.0819071526
   21      H       4.1540110794     0.8300527193     0.7009148763
   22      H      -0.4109652496    -4.0979319949     0.3973889448
   23      H       1.6226665863    -2.6811556903     0.2495866705
   24      C      -3.2843531664    -0.4498493193    -0.1115908630
   25      H      -3.4446806321    -0.0201372510    -1.1036413823
   26      H      -3.4251451908     0.3528771353     0.6176371192
   27      H      -4.0549388513    -1.2022475029     0.0638885071
 ----------------------------------------------------------------

    2    -727.5472414567      5.34E-09 Convergence criterion met
 Total energy in the final basis set = -727.54724146

                    Orbital Energies (a.u.)
 --------------------------------------------------------------

 Alpha MOs
 -- Occupied --
-19.177 -19.168 -19.119 -19.112 -10.312 -10.306 -10.232 -10.222
-10.207 -10.207 -10.204 -10.192 -10.192 -10.190 -10.175  -1.120
 -1.110  -1.031  -1.024  -0.885  -0.801  -0.790  -0.747  -0.726
 -0.700  -0.652  -0.624  -0.580  -0.571  -0.543  -0.519  -0.501
 -0.495  -0.489  -0.479  -0.477  -0.462  -0.444  -0.434  -0.429
 -0.423  -0.416  -0.403  -0.393  -0.381  -0.371  -0.369  -0.367
 -0.356  -0.321  -0.307  -0.293  -0.290  -0.271  -0.261

          Ground-State Mulliken Net Atomic Charges

     Atom                 Charge (a.u.)
  ----------------------------------------
      1 C                     0.079032
      2 C                     0.794023
      3 C                    -0.057884
      4 C                    -0.967279
      5 O                    -0.109000
      6 O                    -0.221427
      7 O                     0.088133
      8 O                    -0.125963
      9 C                    -0.208302
     10 C                    -0.214160
     11 C                    -0.357339
     12 C                    -0.071938
     13 C                    -0.659943
     14 C                     0.485911
     15 H                     0.190599
     16 H                     0.186436
     17 H                     0.116463
     18 H                     0.163057
     19 H                     0.149448
     20 H                     0.153195
     21 H                     0.179722
     22 H                     0.183876
     23 H                     0.187192
     24 C                    -0.487357
     25 H                     0.189959
     26 H                     0.167267
     27 H                     0.166280
  ----------------------------------------
  Sum of atomic charges =     0.000000

                    Cartesian Multipole Moments
 -----------------------------------------------------------------
    Charge (ESU x 10^10)
                 0.0000
    Dipole Moment (Debye)
         X       0.6027      Y      -1.7119      Z       1.9578
       Tot       2.6697
    Quadrupole Moments (Debye-Ang)
        XX     -71.9407     XY       0.8649     YY     -79.3694
        XZ      -2.2834     YZ       5.1824     ZZ     -93.8789

 Frequency:        24.71                  63.82                  76.28
 Force Cnst:      0.0021                 0.0086                 0.0121
 Red. Mass:       5.7277                 3.5651                 3.5350
 IR Intens:        1.334                  1.147                  2.350
 Frequency:       102.64                 119.85                 140.58
 Force Cnst:      0.0219                 0.0156                 0.0157
 Red. Mass:       3.5290                 1.8450                 1.3496
 IR Intens:        2.377                  2.024                  0.418
 Frequency:       141.34                 147.33                 163.15
 Force Cnst:      0.0155                 0.0175                 0.0393
 Red. Mass:       1.3135                 1.3659                 2.5080
 IR Intens:        0.088                  1.077                  1.252
 Frequency:       180.91                 217.11                 237.26
 Force Cnst:      0.0859                 0.0924                 0.1647
 Red. Mass:       4.4534                 3.3267                 4.9654
 IR Intens:        0.058                  3.280                  3.792
 Frequency:       278.31                 299.66                 316.66
 Force Cnst:      0.2263                 0.2203                 0.3298
 Red. Mass:       4.9586                 4.1644                 5.5824
 IR Intens:        2.747                 11.248                  5.298
 Frequency:       354.77                 384.69                 431.28
 Force Cnst:      0.3129                 0.4753                 0.5061
 Red. Mass:       4.2194                 5.4515                 4.6184
 IR Intens:       16.281                  9.005                  1.399
 Frequency:       491.22                 500.93                 567.94
 Force Cnst:      0.6519                 0.6378                 0.8755
 Red. Mass:       4.5856                 4.3143                 4.6069
 IR Intens:        2.994                  3.159                  0.611
 Frequency:       589.05                 711.13                 735.71
 Force Cnst:      0.9769                 1.9345                 2.0433
 Red. Mass:       4.7785                 6.4928                 6.4072
 IR Intens:        5.319                  7.240                  4.287
 Frequency:       760.31                 779.07                 798.65
 Force Cnst:      1.4839                 0.6851                 2.1000
 Red. Mass:       4.3569                 1.9158                 5.5880
 IR Intens:       43.165                 45.742                  5.657
 Frequency:       829.25                 840.88                 895.38
 Force Cnst:      1.2656                 2.1270                 2.2988
 Red. Mass:       3.1237                 5.1057                 4.8667
 IR Intens:        0.722                  4.385                 12.387
 Frequency:       937.20                 977.24                 998.45
 Force Cnst:      0.7085                 3.5410                 0.7891
 Red. Mass:       1.3691                 6.2932                 1.3434
 IR Intens:        0.036                  9.732                  0.220
 Frequency:      1004.06                1043.95                1062.79
 Force Cnst:      1.4929                 1.7749                 1.0238
 Red. Mass:       2.5133                 2.7641                 1.5385
 IR Intens:        7.200                 21.754                  2.082
 Frequency:      1095.50                1138.52                1169.73
 Force Cnst:      2.2941                 1.7745                 1.0391
 Red. Mass:       3.2444                 2.3235                 1.2890
 IR Intens:       97.012                 89.483                  1.139
 Frequency:      1172.05                1174.08                1198.05
 Force Cnst:      1.0924                 1.7450                 1.1138
 Red. Mass:       1.3497                 2.1486                 1.3171
 IR Intens:       14.178                110.330                  2.124
 Frequency:      1211.54                1217.71                1269.30
 Force Cnst:      1.3618                 1.7088                 1.8160
 Red. Mass:       1.5747                 1.9559                 1.9131
 IR Intens:       31.115                122.896                 53.937
 Frequency:      1286.87                1295.47                1326.59
 Force Cnst:      5.7912                 3.7111                 7.6467
 Red. Mass:       5.9353                 3.7531                 7.3749
 IR Intens:      315.029                344.399                 20.499
 Frequency:      1417.86                1461.00                1469.68
 Force Cnst:      1.4643                 1.8977                 1.5362
 Red. Mass:       1.2363                 1.5089                 1.2071
 IR Intens:        4.309                 10.113                 11.945
 Frequency:      1475.30                1481.70                1483.89
 Force Cnst:      1.8921                 1.3525                 1.3834
 Red. Mass:       1.4754                 1.0456                 1.0663
 IR Intens:       52.388                 11.155                 10.581
 Frequency:      1488.43                1489.31                1495.36
 Force Cnst:      2.2737                 1.7170                 1.3818
 Red. Mass:       1.7419                 1.3139                 1.0488
 IR Intens:        5.338                  7.567                  7.386
 Frequency:      1498.31                1508.61                1616.20
 Force Cnst:      1.3918                 1.7404                10.3347
 Red. Mass:       1.0523                 1.2979                 6.7152
 IR Intens:       11.025                  3.636                 10.941
 Frequency:      1630.46                1766.89                1787.49
 Force Cnst:      9.0732                21.5818                22.3232
 Red. Mass:       5.7928                11.7332                11.8583
 IR Intens:       10.210                249.036                271.937
 Frequency:      3035.25                3050.01                3050.23
 Force Cnst:      5.6250                 5.6421                 5.6435
 Red. Mass:       1.0363                 1.0294                 1.0295
 IR Intens:       18.178                 31.194                 42.354
 Frequency:      3091.31                3111.27                3123.65
 Force Cnst:      6.1948                 6.2865                 6.3644
 Red. Mass:       1.1003                 1.1022                 1.1071
 IR Intens:        8.175                 15.251                 17.323
 Frequency:      3125.83                3156.98                3157.31
 Force Cnst:      6.3737                 6.4964                 6.4979
 Red. Mass:       1.1072                 1.1063                 1.1063
 IR Intens:       13.771                 14.338                 13.844
 Frequency:      3165.41                3184.79                3220.70
 Force Cnst:      6.4229                 6.5346                 6.6790
 Red. Mass:       1.0880                 1.0935                 1.0928
 IR Intens:        7.039                 15.435                  2.049

 STANDARD THERMODYNAMIC QUANTITIES AT   298.15 K  AND     1.00 ATM

   This Molecule has  0 Imaginary Frequencies
   Zero point vibrational energy:      133.382 kcal/mol

   Atom    1 Element C  Has Mass   12.00000
   Atom    2 Element C  Has Mass   12.00000
   Atom    3 Element C  Has Mass   12.00000
   Atom    4 Element C  Has Mass   12.00000
   Atom    5 Element O  Has Mass   15.99491
   Atom    6 Element O  Has Mass   15.99491
   Atom    7 Element O  Has Mass   15.99491
   Atom    8 Element O  Has Mass   15.99491
   Atom    9 Element C  Has Mass   12.00000
   Atom   10 Element C  Has Mass   12.00000
   Atom   11 Element C  Has Mass   12.00000
   Atom   12 Element C  Has Mass   12.00000
   Atom   13 Element C  Has Mass   12.00000
   Atom   14 Element C  Has Mass   12.00000
   Atom   15 Element H  Has Mass    1.00783
   Atom   16 Element H  Has Mass    1.00783
   Atom   17 Element H  Has Mass    1.00783
   Atom   18 Element H  Has Mass    1.00783
   Atom   19 Element H  Has Mass    1.00783
   Atom   20 Element H  Has Mass    1.00783
   Atom   21 Element H  Has Mass    1.00783
   Atom   22 Element H  Has Mass    1.00783
   Atom   23 Element H  Has Mass    1.00783
   Atom   24 Element C  Has Mass   12.00000
   Atom   25 Element H  Has Mass    1.00783
   Atom   26 Element H  Has Mass    1.00783
   Atom   27 Element H  Has Mass    1.00783
   Molecular Mass:   208.073600 amu
   Principal axes and moments of inertia in amu*Bohr^2:
                             1           2           3
    Eigenvalues --     2454.06753  3128.62599  5152.19517
          X               0.99798     0.06332     0.00424
          Y              -0.06334     0.99799     0.00329
          Z              -0.00403    -0.00355     0.99999
   Rotational Symmetry Number is   1
   The Molecule is an Asymmetric Top
   Translational Enthalpy:        0.889 kcal/mol
   Rotational Enthalpy:           0.889 kcal/mol
   Vibrational Enthalpy:        141.093 kcal/mol
   gas constant (RT):             0.592 kcal/mol
   Translational Entropy:        41.902  cal/mol.K
   Rotational Entropy:           32.048  cal/mol.K
   Vibrational Entropy:          50.540  cal/mol.K

   Total Enthalpy:              143.463 kcal/mol
   Total Entropy:               124.490  cal/mol.K

 Total job time:  4571.19s(wall), 15465.21s(cpu)
        *  Thank you very much for using Q-Chem.  Have a nice day.  *
