 Q-Chem 5.0, Q-Chem, Inc., Pleasanton, CA (2017)
 Q-Chem 5.0.1 for Intel X86 EM64T Linux

User input:
--------------------------------------------------------------
$molecule
0 1
C -0.23313872 -1.12068470 -0.08249054
C -0.80218932 0.15525263 0.07736047
C 1.23898645 -1.37944316 -0.06849381
C 0.05630734 1.38272283 0.14937457
O 1.89847095 -0.51097977 0.72412165
O 1.77642849 -2.29318043 -0.64857661
O 0.80165684 1.50989010 -0.96773225
O 0.05410684 2.18253997 1.05186601
C 1.72734054 2.61071189 -0.98367380
C 3.32535067 -0.67357821 0.79380863
C -1.05670833 -2.24105567 -0.21755177
C -2.43716537 -2.09803905 -0.17092115
C -2.99635701 -0.83589183 0.00468080
C -2.19976111 0.30695306 0.12790747
H 1.19810383 3.56003513 -0.89043941
H 3.57791853 -1.68314349 1.11991115
H -4.07519112 -0.72729891 0.03871307
H 2.43904721 2.51462568 -0.16170415
H 2.23597868 2.54724984 -1.94297700
H 3.66382795 0.06220570 1.51973953
H 3.77453166 -0.48864144 -0.18369371
H -3.07767837 -2.96717767 -0.26828734
H -0.59839532 -3.21306658 -0.34837923
C -2.84991488 1.66019255 0.29295945
H -2.50762514 2.36592102 -0.46930972
H -2.60599122 2.09582807 1.26375903
H -3.93449399 1.57548200 0.20951049
$end

$rem
sym_ignore      true
jobtype         opt
method          b3lyp
basis           6-311++G(d,p)
dft_d           d3_op
mem_total       62000
MEM_STATIC      4000
ao2mo_disk      350000
max_scf_cycles  200
geom_opt_max_cycles 1000
geom_opt_tol_displacement 1
GEOM_OPT_TOL_GRADIENT       1
GEOM_OPT_TOL_ENERGY         1
$end

--------------------------------------------------------------

   15    -727.5466692996      5.66E-09 Convergence criterion met
 Total energy in the final basis set = -727.54666930
   11    -727.5466730321      4.13E-09 Convergence criterion met
 Total energy in the final basis set = -727.54667303
   11    -727.5466698776      8.91E-09 Convergence criterion met
 Total energy in the final basis set = -727.54666988
   12    -727.5466608657      4.15E-09 Convergence criterion met
 Total energy in the final basis set = -727.54666087
   11    -727.5466680069      6.34E-09 Convergence criterion met
 Total energy in the final basis set = -727.54666801
   11    -727.5466612580      4.27E-09 Convergence criterion met
 Total energy in the final basis set = -727.54666126
   10    -727.5466674412      9.08E-09 Convergence criterion met
 Total energy in the final basis set = -727.54666744
   10    -727.5466647445      5.47E-09 Convergence criterion met
    9    -727.5466619238      4.60E-09 Convergence criterion met
 Total energy in the final basis set = -727.54666192
    8    -727.5466617391      2.29E-09 Convergence criterion met
 Total energy in the final basis set = -727.54666174
    7    -727.5466617540      8.74E-09 Convergence criterion met
 Total energy in the final basis set = -727.54666175
    7    -727.5466618850      4.94E-09 Convergence criterion met
 Total energy in the final basis set = -727.54666188
    5    -727.5466619091      8.26E-09 Convergence criterion met
 Total energy in the final basis set = -727.54666191
    5    -727.5466619167      4.01E-09 Convergence criterion met
 Total energy in the final basis set = -727.54666192
 Final energy is   -727.546661916710
 **  OPTIMIZATION CONVERGED  **
 Total job time:  610.74s(wall), 9603.69s(cpu)
        *  Thank you very much for using Q-Chem.  Have a nice day.  *

User input: 2 of 2

r0172.ten.osc.edu 10.25.155
Q-Chem Developer Version! Running on 10.25.155.*
                  Welcome to Q-Chem
     A Quantum Leap Into The Future Of Chemistry

 Q-Chem 5.0, Q-Chem, Inc., Pleasanton, CA (2017)

 Yihan Shao,  Zhengting Gan,  E. Epifanovsky,  A. T. B. Gilbert,  M. Wormit,
 J. Kussmann,  A. W. Lange,  A. Behn,  Jia Deng,  Xintian Feng,  D. Ghosh,
 M. Goldey,  P. R. Horn,  L. D. Jacobson,  I. Kaliman,  T. Kus,  A. Landau,
 Jie Liu,  E. I. Proynov,  R. M. Richard,  R. P. Steele,  E. J. Sundstrom,
 H. L. Woodcock III,  P. M. Zimmerman,  D. Zuev,  B. Albrecht,  E. Alguire,
 S. A. Baeppler,  Z. Benda,  Y. A. Bernard,  E. J. Berquist,  K. B. Bravaya,
 D. Casanova,  Chun-Min Chang,  Yunqing Chen,  A. Chien,  K. D. Closser,
 M. P. Coons,  S. Dasgupta,  M. Diedenhofen,  Hainam Do,  R. G. Edgar,
 Po-Tung Fang,  S. Fatehi,  Qingguo Feng,  Qinghui Ge,  A. Ghysels,
 J. Gomes,  J. Gonthier,  A. Gunina,  M. W. D. Hanson-Heine,
 P. H. P. Harbach,  A. W. Hauser,  J. E. Herr,  E. G. Hohenstein,
 Z. C. Holden,  Kerwin Hui,  T.-C. Jagau,  Hyunjun Ji,  B. Kaduk,
 K. Khistyaev,  Jaehoon Kim,  P. Klunzinger,  K. Koh,  D. Kosenkov,
 T. Kowalczyk,  C. M. Krauter,  A. Kunitsa,  Ka Un Lao,  A. Laurent,
 K. V. Lawler,  Joonho Lee,  D. Lefrancois,  S. Lehtola,  D. S. Levine,
 Yi-Pei Li,  You-Sheng Lin,  Fenglai Liu,  E. Livshits,  A. Luenser,
 P. Manohar,  E. Mansoor,  S. F. Manzer,  Shan-Ping Mao,  Yuezhi Mao,
 N. Mardirossian,  A. V. Marenich,  L. A. Martinez-Martinez,  S. A. Maurer,
 N. J. Mayhall,  S. C. McKenzie,  J.-M. Mewes,  A. F. Morrison,  K. Nanda,
 T. S. Nguyen-Beck,  R. Olivares-Amaya,  J. A. Parkhill,  T. M. Perrine,
 F. Plasser,  S. Prager,  A. Prociuk,  D. R. Rehn,  F. Rob,  M. Schneider,
 N. Sergueev,  S. M. Sharada,  S. Sharma,  D. W. Small,  T. Stauch,
 T. Stein,  Yu-Chuan Su,  A. J. W. Thom,  T. Tsuchimochi,  L. Vogt,
 O. Vydrov,  M. A. Watson,  J. Wenzel,  M. de Wergifosse,  T. A. Wesolowski,
 A. White,  J. Witte,  A. Yamada,  Jun Yang,  K. Yao,  S. Yeganeh,
 S. R. Yost,  Zhi-Qiang You,  A. Zech,  Igor Ying Zhang,  Xing Zhang,
 Yan Zhao,  Ying Zhu,  B. R. Brooks,  G. K. L. Chan,  C. J. Cramer,
 M. S. Gordon,  W. J. Hehre,  A. Klamt,  M. W. Schmidt,  C. D. Sherrill,
 D. G. Truhlar,  A. Aspuru-Guzik,  R. Baer,  A. T. Bell,  N. A. Besley,
 Jeng-Da Chai,  A. Dreuw,  B. D. Dunietz,  T. R. Furlani,  Chao-Ping Hsu,
 Yousung Jung,  Jing Kong,  D. S. Lambrecht,  WanZhen Liang,  C. Ochsenfeld,
 V. A. Rassolov,  L. V. Slipchenko,  J. E. Subotnik,  T. Van Voorhis,
 J. M. Herbert,  A. I. Krylov,  P. M. W. Gill,  M. Head-Gordon

 Contributors to earlier versions of Q-Chem not listed above:
 R. D. Adamson,  B. Austin,  J. Baker,  G. J. O. Beran,  K. Brandhorst,
 S. T. Brown,  E. F. C. Byrd,  A. K. Chakraborty,  C.-L. Cheng,
 Siu Hung Chien,  D. M. Chipman,  D. L. Crittenden,  H. Dachsel,
 R. A. DiStasio Jr.,  R. J. Doerksen,  A. D. Dutoi,  L. Fusti-Molnar,
 W. A. Goddard III,  A. Golubeva-Zadorozhnaya,  S. R. Gwaltney,  G. Hawkins,
 A. Heyden,  S. Hirata,  G. Kedziora,  F. J. Keil,  C. Kelley,  Jihan Kim,
 R. A. King,  R. Z. Khaliullin,  P. P. Korambath,  W. Kurlancheek,
 A. M. Lee,  M. S. Lee,  S. V. Levchenko,  Ching Yeh Lin,  D. Liotard,
 R. C. Lochan,  I. Lotan,  P. E. Maslen,  N. Nair,  D. P. O'Neill,
 D. Neuhauser,  E. Neuscamman,  C. M. Oana,  R. Olson,  B. Peters,
 R. Peverati,  P. A. Pieniazek,  Y. M. Rhee,  J. Ritchie,  M. A. Rohrdanz,
 E. Rosta,  N. J. Russ,  H. F. Schaefer III,  N. E. Schultz,  N. Shenvi,
 A. C. Simmonett,  A. Sodt,  D. Stuck,  K. S. Thanthiriwatte,  V. Vanovschi,
 Tao Wang,  A. Warshel,  C. F. Williams,  Q. Wu,  X. Xu,  W. Zhang

 Please cite Q-Chem as follows:
 Y. Shao et al., Mol. Phys. 113, 184-215 (2015)
 DOI: 10.1080/00268976.2014.952696

 Q-Chem 5.0.1 for Intel X86 EM64T Linux

 Parts of Q-Chem use Armadillo 5.200.1 (Boston Tea Smuggler).
 http://arma.sourceforge.net/

 Q-Chem begins on Sat Oct 14 21:31:20 2017

Host: r0172.ten.osc.edu
0

     Scratch files written to /tmp/pbstmp.1310495/02//
Processing $rem in /users/PAS0291/osu6415/.qchemrc.
molden_format             true
The previous job contains 0 fragments, simply inherited here

Checking the input file for inconsistencies... 	...done.

--------------------------------------------------------------
User input:
--------------------------------------------------------------

$molecule
read
$end

$rem
sym_ignore      true
scf_guess       read
jobtype         freq
method          b3lyp
basis           6-311++G(d,p)
dft_d           d3_op
mem_total       62000
MEM_STATIC      4000
ao2mo_disk      350000
max_scf_cycles  200
$end
--------------------------------------------------------------

             Standard Nuclear Orientation (Angstroms)
    I     Atom           X                Y                Z
 ----------------------------------------------------------------
    1      C      -0.2351386915    -1.1052668712    -0.0938726149
    2      C      -0.8111663684     0.1669949845     0.0713687416
    3      C       1.2394615619    -1.3509361832    -0.0940604059
    4      C       0.0444567517     1.3960782729     0.1301939652
    5      O       1.8887992334    -0.5245819928     0.7509122479
    6      O       1.7858220002    -2.2232896486    -0.7265346399
    7      O       0.8268708808     1.4859197388    -0.9654644735
    8      O       0.0163954610     2.2255588946     1.0054061110
    9      C       1.7605856153     2.5797654871    -0.9829212419
   10      C       3.3178068589    -0.6735257726     0.8072050223
   11      C      -1.0506933295    -2.2314777561    -0.2232887549
   12      C      -2.4318664637    -2.0982935021    -0.1629068807
   13      C      -2.9983624687    -0.8405713837     0.0197982598
   14      C      -2.2095468016     0.3085510765     0.1363397497
   15      H       1.2352270349     3.5348454085    -0.9412747092
   16      H       3.5834829727    -1.6924605076     1.0912667619
   17      H      -4.0775622284    -0.7400846006     0.0646940245
   18      H       2.4399213305     2.5064768843    -0.1317559378
   19      H       2.3042597336     2.4810781602    -1.9197984302
   20      H       3.6519774410     0.0360551118     1.5607045474
   21      H       3.7600131814    -0.4446199190    -0.1641288307
   22      H      -3.0670764926    -2.9718641909    -0.2553414316
   23      H      -0.5872602064    -3.2002694942    -0.3603288472
   24      C      -2.8712384452     1.6555664334     0.3064436981
   25      H      -2.5539434195     2.3596788670    -0.4679957262
   26      H      -2.6115507279     2.1012784901     1.2682036505
   27      H      -3.9562283340     1.5568235727     0.2466179748
 ----------------------------------------------------------------

    2    -727.5466619175      3.88E-09 Convergence criterion met
 Total energy in the final basis set = -727.54666192

                    Orbital Energies (a.u.)
 --------------------------------------------------------------

 Alpha MOs
 -- Occupied --
-19.178 -19.177 -19.121 -19.119 -10.313 -10.312 -10.233 -10.233
-10.209 -10.208 -10.207 -10.193 -10.192 -10.191 -10.174  -1.122
 -1.116  -1.032  -1.031  -0.886  -0.801  -0.795  -0.747  -0.732
 -0.703  -0.655  -0.625  -0.580  -0.574  -0.550  -0.520  -0.513
 -0.494  -0.489  -0.483  -0.479  -0.471  -0.444  -0.434  -0.430
 -0.427  -0.414  -0.406  -0.398  -0.384  -0.377  -0.371  -0.365
 -0.362  -0.324  -0.313  -0.297  -0.295  -0.270  -0.264

          Ground-State Mulliken Net Atomic Charges

     Atom                 Charge (a.u.)
  ----------------------------------------
      1 C                     0.409744
      2 C                     0.946526
      3 C                    -0.314310
      4 C                    -0.666331
      5 O                    -0.033801
      6 O                    -0.216987
      7 O                     0.072079
      8 O                    -0.176162
      9 C                    -0.235453
     10 C                    -0.241247
     11 C                    -0.518787
     12 C                    -0.176765
     13 C                    -0.577542
     14 C                     0.282496
     15 H                     0.172190
     16 H                     0.175887
     17 H                     0.121161
     18 H                     0.175896
     19 H                     0.160821
     20 H                     0.168162
     21 H                     0.185862
     22 H                     0.181725
     23 H                     0.180889
     24 C                    -0.600212
     25 H                     0.175106
     26 H                     0.199424
     27 H                     0.149631
  ----------------------------------------
  Sum of atomic charges =    -0.000000

                    Cartesian Multipole Moments
 -----------------------------------------------------------------
    Charge (ESU x 10^10)
                -0.0000
    Dipole Moment (Debye)
         X      -0.1965      Y       0.8789      Z      -0.2367
       Tot       0.9312
    Quadrupole Moments (Debye-Ang)
        XX     -71.0266     XY       7.5769     YY     -88.2442
        XZ       2.6696     YZ      -8.3824     ZZ     -93.1892

 Frequency:        27.67                  61.43                  79.19
 Force Cnst:      0.0029                 0.0077                 0.0135
 Red. Mass:       6.5150                 3.4700                 3.6506
 IR Intens:        4.320                  0.560                  0.095
 Frequency:        92.56                 111.37                 134.64
 Force Cnst:      0.0290                 0.0246                 0.0319
 Red. Mass:       5.7478                 3.3713                 2.9856
 IR Intens:        0.914                  2.880                  3.676
 Frequency:       146.37                 152.50                 168.14
 Force Cnst:      0.0134                 0.0171                 0.0177
 Red. Mass:       1.0618                 1.2459                 1.0613
 IR Intens:        0.440                  0.489                  0.022
 Frequency:       203.28                 232.33                 245.57
 Force Cnst:      0.0837                 0.1322                 0.1761
 Red. Mass:       3.4376                 4.1561                 4.9559
 IR Intens:        1.274                  3.578                  2.143
 Frequency:       280.54                 299.10                 321.62
 Force Cnst:      0.2312                 0.2648                 0.2466
 Red. Mass:       4.9858                 5.0247                 4.0456
 IR Intens:        3.947                  6.128                  3.444
 Frequency:       361.04                 372.87                 419.01
 Force Cnst:      0.3346                 0.4786                 0.5704
 Red. Mass:       4.3566                 5.8422                 5.5140
 IR Intens:        0.972                 19.661                  1.022
 Frequency:       473.62                 539.78                 548.48
 Force Cnst:      0.5120                 0.8031                 0.7582
 Red. Mass:       3.8740                 4.6784                 4.2775
 IR Intens:        7.227                  1.446                  0.056
 Frequency:       591.08                 711.45                 720.86
 Force Cnst:      1.0888                 1.6936                 1.9712
 Red. Mass:       5.2896                 5.6791                 6.4385
 IR Intens:        2.716                 10.116                  3.572
 Frequency:       764.75                 793.63                 797.80
 Force Cnst:      0.9486                 0.9082                 2.1297
 Red. Mass:       2.7528                 2.4473                 5.6791
 IR Intens:       51.728                 25.975                  1.105
 Frequency:       828.00                 839.10                 912.79
 Force Cnst:      1.3312                 2.1584                 2.1620
 Red. Mass:       3.2957                 5.2031                 4.4042
 IR Intens:        2.587                  8.827                  3.077
 Frequency:       934.19                 976.72                 997.39
 Force Cnst:      0.7214                 3.8570                 0.8863
 Red. Mass:       1.4029                 6.8621                 1.5122
 IR Intens:        0.357                 10.235                  4.939
 Frequency:       998.66                1039.82                1062.69
 Force Cnst:      1.5503                 1.3415                 1.0239
 Red. Mass:       2.6383                 2.1058                 1.5388
 IR Intens:        9.207                  7.772                  2.034
 Frequency:      1097.76                1126.57                1167.02
 Force Cnst:      2.3504                 2.3184                 1.0365
 Red. Mass:       3.3104                 3.1004                 1.2917
 IR Intens:       91.473                 71.940                  2.099
 Frequency:      1171.33                1174.49                1199.71
 Force Cnst:      1.0621                 1.5090                 1.1534
 Red. Mass:       1.3139                 1.8567                 1.3601
 IR Intens:       11.342                105.432                 11.791
 Frequency:      1210.09                1217.01                1264.60
 Force Cnst:      1.3469                 1.5563                 2.9922
 Red. Mass:       1.5612                 1.7834                 3.1757
 IR Intens:       23.574                101.793                117.789
 Frequency:      1284.59                1304.50                1323.82
 Force Cnst:      2.6243                 4.4879                 7.2464
 Red. Mass:       2.6992                 4.4762                 7.0180
 IR Intens:      122.786                396.520                  7.750
 Frequency:      1420.55                1457.39                1466.19
 Force Cnst:      1.4640                 2.1031                 1.5658
 Red. Mass:       1.2313                 1.6806                 1.2363
 IR Intens:        4.070                  2.303                  7.969
 Frequency:      1470.38                1482.75                1484.22
 Force Cnst:      1.7509                 1.3729                 1.3621
 Red. Mass:       1.3745                 1.0599                 1.0495
 IR Intens:       47.433                  7.760                 11.313
 Frequency:      1486.69                1491.35                1496.03
 Force Cnst:      1.4054                 2.7933                 1.4128
 Red. Mass:       1.0792                 2.1316                 1.0714
 IR Intens:        7.208                  8.814                 10.589
 Frequency:      1500.92                1505.31                1615.81
 Force Cnst:      1.3921                 1.7284                10.4946
 Red. Mass:       1.0488                 1.2946                 6.8224
 IR Intens:        4.783                  3.367                  0.360
 Frequency:      1628.84                1772.57                1783.34
 Force Cnst:      8.7168                21.8092                22.0367
 Red. Mass:       5.5763                11.7811                11.7606
 IR Intens:       17.422                386.430                180.680
 Frequency:      3038.12                3047.53                3049.09
 Force Cnst:      5.6437                 5.6356                 5.6417
 Red. Mass:       1.0378                 1.0299                 1.0300
 IR Intens:       19.174                 16.100                 49.260
 Frequency:      3096.27                3117.71                3120.26
 Force Cnst:      6.2012                 6.3163                 6.3479
 Red. Mass:       1.0979                 1.1029                 1.1066
 IR Intens:       13.675                 10.621                 26.564
 Frequency:      3122.68                3157.29                3158.71
 Force Cnst:      6.3575                 6.4962                 6.5041
 Red. Mass:       1.1066                 1.1061                 1.1064
 IR Intens:       10.829                 10.260                 11.384
 Frequency:      3167.93                3184.76                3204.26
 Force Cnst:      6.4298                 6.5292                 6.6203
 Red. Mass:       1.0874                 1.0926                 1.0944
 IR Intens:        6.095                 13.006                  4.384

 STANDARD THERMODYNAMIC QUANTITIES AT   298.15 K  AND     1.00 ATM

   This Molecule has  0 Imaginary Frequencies
   Zero point vibrational energy:      133.391 kcal/mol

   Atom    1 Element C  Has Mass   12.00000
   Atom    2 Element C  Has Mass   12.00000
   Atom    3 Element C  Has Mass   12.00000
   Atom    4 Element C  Has Mass   12.00000
   Atom    5 Element O  Has Mass   15.99491
   Atom    6 Element O  Has Mass   15.99491
   Atom    7 Element O  Has Mass   15.99491
   Atom    8 Element O  Has Mass   15.99491
   Atom    9 Element C  Has Mass   12.00000
   Atom   10 Element C  Has Mass   12.00000
   Atom   11 Element C  Has Mass   12.00000
   Atom   12 Element C  Has Mass   12.00000
   Atom   13 Element C  Has Mass   12.00000
   Atom   14 Element C  Has Mass   12.00000
   Atom   15 Element H  Has Mass    1.00783
   Atom   16 Element H  Has Mass    1.00783
   Atom   17 Element H  Has Mass    1.00783
   Atom   18 Element H  Has Mass    1.00783
   Atom   19 Element H  Has Mass    1.00783
   Atom   20 Element H  Has Mass    1.00783
   Atom   21 Element H  Has Mass    1.00783
   Atom   22 Element H  Has Mass    1.00783
   Atom   23 Element H  Has Mass    1.00783
   Atom   24 Element C  Has Mass   12.00000
   Atom   25 Element H  Has Mass    1.00783
   Atom   26 Element H  Has Mass    1.00783
   Atom   27 Element H  Has Mass    1.00783
   Molecular Mass:   208.073600 amu
   Principal axes and moments of inertia in amu*Bohr^2:
                             1           2           3
    Eigenvalues --     2284.15008  3055.23141  4762.38240
          X               0.99890    -0.04560     0.01120
          Y               0.04585     0.99870    -0.02242
          Z              -0.01017     0.02291     0.99969
   Rotational Symmetry Number is   1
   The Molecule is an Asymmetric Top
   Translational Enthalpy:        0.889 kcal/mol
   Rotational Enthalpy:           0.889 kcal/mol
   Vibrational Enthalpy:        141.070 kcal/mol
   gas constant (RT):             0.592 kcal/mol
   Translational Entropy:        41.902  cal/mol.K
   Rotational Entropy:           31.875  cal/mol.K
   Vibrational Entropy:          50.174  cal/mol.K

   Total Enthalpy:              143.440 kcal/mol
   Total Entropy:               123.950  cal/mol.K

 Total job time:  4708.38s(wall), 15933.68s(cpu)
        *  Thank you very much for using Q-Chem.  Have a nice day.  *
