 Q-Chem 5.0, Q-Chem, Inc., Pleasanton, CA (2017)
 Q-Chem 5.0.1 for Intel X86 EM64T Linux

User input:
--------------------------------------------------------------
$molecule
0 1
C 0.63634353 -0.90620612 0.12936925
C -0.64338922 -0.32216299 0.02285556
C 1.89825804 -0.10653714 0.32543437
C -0.69001832 1.17123677 0.08060161
O 2.42535998 0.25833525 -0.85539540
O 2.42201547 0.07026852 1.39620300
O -1.93248101 1.68808369 0.00682406
O 0.29142532 1.87239602 0.18991060
C -2.01966445 3.12304895 0.07378614
C 3.60622622 1.07819856 -0.78228284
C 0.79683817 -2.28854641 0.09980408
C -0.31396373 -3.10985322 -0.04545346
C -1.57781242 -2.54445750 -0.15415366
C -1.77981377 -1.15986273 -0.12006746
H -1.60344308 3.48584340 1.01446145
H 3.37260390 2.01499221 -0.27396680
H -2.44116365 -3.19108390 -0.26499702
H -1.47793020 3.57671946 -0.75723596
H -3.08191322 3.34905086 0.00983813
H 3.89512231 1.26232106 -1.81464044
H 4.40193099 0.55984823 -0.24512418
H -0.19673834 -4.18735371 -0.07335193
H 1.78892243 -2.71352736 0.19282059
C -3.20672031 -0.67380687 -0.24180745
H -3.33630605 -0.00967142 -1.09745989
H -3.51846702 -0.11293103 0.64073780
H -3.87506142 -1.52826316 -0.36163683
$end

$rem
sym_ignore      true
jobtype         ts
method          b3lyp
basis           6-311++G(d,p)
dft_d           d3_op
mem_total       62000
MEM_STATIC      4000
ao2mo_disk      350000
max_scf_cycles  200
geom_opt_max_cycles 1000
geom_opt_tol_displacement 1
GEOM_OPT_TOL_GRADIENT       1
GEOM_OPT_TOL_ENERGY         1
$end

--------------------------------------------------------------

   15    -727.5407808684      7.36E-09 Convergence criterion met
 Total energy in the final basis set = -727.54078087
   11    -727.5405990720      7.20E-09 Convergence criterion met
 Total energy in the final basis set = -727.54059907
   12    -727.5403463622      6.34E-09 Convergence criterion met
 Total energy in the final basis set = -727.54034636
   12    -727.5401961364      9.39E-09 Convergence criterion met
 Total energy in the final basis set = -727.54019614
   13    -727.5405240675      2.57E-09 Convergence criterion met
 Total energy in the final basis set = -727.54052407
   13    -727.5405987173      2.66E-09 Convergence criterion met
 Total energy in the final basis set = -727.54059872
   13    -727.5406553673      4.00E-09 Convergence criterion met
 Total energy in the final basis set = -727.54065537
   12    -727.5408015527      3.72E-09 Convergence criterion met
   10    -727.5407902996      5.57E-09 Convergence criterion met
 Total energy in the final basis set = -727.54079030
    8    -727.5407905125      4.96E-09 Convergence criterion met
 Total energy in the final basis set = -727.54079051
    8    -727.5407903570      2.94E-09 Convergence criterion met
 Total energy in the final basis set = -727.54079036
    7    -727.5407904063      4.45E-09 Convergence criterion met
 Total energy in the final basis set = -727.54079041
    5    -727.5407903888      9.58E-09 Convergence criterion met
 Total energy in the final basis set = -727.54079039
    4    -727.5407903934      8.07E-09 Convergence criterion met
 Total energy in the final basis set = -727.54079039
 Final energy is   -727.540790393431
 **  OPTIMIZATION CONVERGED  **
 Total job time:  2289.05s(wall), 36248.15s(cpu)
        *  Thank you very much for using Q-Chem.  Have a nice day.  *

User input: 2 of 2

r0173.ten.osc.edu 10.25.155
Q-Chem Developer Version! Running on 10.25.155.*
                  Welcome to Q-Chem
     A Quantum Leap Into The Future Of Chemistry

 Q-Chem 5.0, Q-Chem, Inc., Pleasanton, CA (2017)

 Yihan Shao,  Zhengting Gan,  E. Epifanovsky,  A. T. B. Gilbert,  M. Wormit,
 J. Kussmann,  A. W. Lange,  A. Behn,  Jia Deng,  Xintian Feng,  D. Ghosh,
 M. Goldey,  P. R. Horn,  L. D. Jacobson,  I. Kaliman,  T. Kus,  A. Landau,
 Jie Liu,  E. I. Proynov,  R. M. Richard,  R. P. Steele,  E. J. Sundstrom,
 H. L. Woodcock III,  P. M. Zimmerman,  D. Zuev,  B. Albrecht,  E. Alguire,
 S. A. Baeppler,  Z. Benda,  Y. A. Bernard,  E. J. Berquist,  K. B. Bravaya,
 D. Casanova,  Chun-Min Chang,  Yunqing Chen,  A. Chien,  K. D. Closser,
 M. P. Coons,  S. Dasgupta,  M. Diedenhofen,  Hainam Do,  R. G. Edgar,
 Po-Tung Fang,  S. Fatehi,  Qingguo Feng,  Qinghui Ge,  A. Ghysels,
 J. Gomes,  J. Gonthier,  A. Gunina,  M. W. D. Hanson-Heine,
 P. H. P. Harbach,  A. W. Hauser,  J. E. Herr,  E. G. Hohenstein,
 Z. C. Holden,  Kerwin Hui,  T.-C. Jagau,  Hyunjun Ji,  B. Kaduk,
 K. Khistyaev,  Jaehoon Kim,  P. Klunzinger,  K. Koh,  D. Kosenkov,
 T. Kowalczyk,  C. M. Krauter,  A. Kunitsa,  Ka Un Lao,  A. Laurent,
 K. V. Lawler,  Joonho Lee,  D. Lefrancois,  S. Lehtola,  D. S. Levine,
 Yi-Pei Li,  You-Sheng Lin,  Fenglai Liu,  E. Livshits,  A. Luenser,
 P. Manohar,  E. Mansoor,  S. F. Manzer,  Shan-Ping Mao,  Yuezhi Mao,
 N. Mardirossian,  A. V. Marenich,  L. A. Martinez-Martinez,  S. A. Maurer,
 N. J. Mayhall,  S. C. McKenzie,  J.-M. Mewes,  A. F. Morrison,  K. Nanda,
 T. S. Nguyen-Beck,  R. Olivares-Amaya,  J. A. Parkhill,  T. M. Perrine,
 F. Plasser,  S. Prager,  A. Prociuk,  D. R. Rehn,  F. Rob,  M. Schneider,
 N. Sergueev,  S. M. Sharada,  S. Sharma,  D. W. Small,  T. Stauch,
 T. Stein,  Yu-Chuan Su,  A. J. W. Thom,  T. Tsuchimochi,  L. Vogt,
 O. Vydrov,  M. A. Watson,  J. Wenzel,  M. de Wergifosse,  T. A. Wesolowski,
 A. White,  J. Witte,  A. Yamada,  Jun Yang,  K. Yao,  S. Yeganeh,
 S. R. Yost,  Zhi-Qiang You,  A. Zech,  Igor Ying Zhang,  Xing Zhang,
 Yan Zhao,  Ying Zhu,  B. R. Brooks,  G. K. L. Chan,  C. J. Cramer,
 M. S. Gordon,  W. J. Hehre,  A. Klamt,  M. W. Schmidt,  C. D. Sherrill,
 D. G. Truhlar,  A. Aspuru-Guzik,  R. Baer,  A. T. Bell,  N. A. Besley,
 Jeng-Da Chai,  A. Dreuw,  B. D. Dunietz,  T. R. Furlani,  Chao-Ping Hsu,
 Yousung Jung,  Jing Kong,  D. S. Lambrecht,  WanZhen Liang,  C. Ochsenfeld,
 V. A. Rassolov,  L. V. Slipchenko,  J. E. Subotnik,  T. Van Voorhis,
 J. M. Herbert,  A. I. Krylov,  P. M. W. Gill,  M. Head-Gordon

 Contributors to earlier versions of Q-Chem not listed above:
 R. D. Adamson,  B. Austin,  J. Baker,  G. J. O. Beran,  K. Brandhorst,
 S. T. Brown,  E. F. C. Byrd,  A. K. Chakraborty,  C.-L. Cheng,
 Siu Hung Chien,  D. M. Chipman,  D. L. Crittenden,  H. Dachsel,
 R. A. DiStasio Jr.,  R. J. Doerksen,  A. D. Dutoi,  L. Fusti-Molnar,
 W. A. Goddard III,  A. Golubeva-Zadorozhnaya,  S. R. Gwaltney,  G. Hawkins,
 A. Heyden,  S. Hirata,  G. Kedziora,  F. J. Keil,  C. Kelley,  Jihan Kim,
 R. A. King,  R. Z. Khaliullin,  P. P. Korambath,  W. Kurlancheek,
 A. M. Lee,  M. S. Lee,  S. V. Levchenko,  Ching Yeh Lin,  D. Liotard,
 R. C. Lochan,  I. Lotan,  P. E. Maslen,  N. Nair,  D. P. O'Neill,
 D. Neuhauser,  E. Neuscamman,  C. M. Oana,  R. Olson,  B. Peters,
 R. Peverati,  P. A. Pieniazek,  Y. M. Rhee,  J. Ritchie,  M. A. Rohrdanz,
 E. Rosta,  N. J. Russ,  H. F. Schaefer III,  N. E. Schultz,  N. Shenvi,
 A. C. Simmonett,  A. Sodt,  D. Stuck,  K. S. Thanthiriwatte,  V. Vanovschi,
 Tao Wang,  A. Warshel,  C. F. Williams,  Q. Wu,  X. Xu,  W. Zhang

 Please cite Q-Chem as follows:
 Y. Shao et al., Mol. Phys. 113, 184-215 (2015)
 DOI: 10.1080/00268976.2014.952696

 Q-Chem 5.0.1 for Intel X86 EM64T Linux

 Parts of Q-Chem use Armadillo 5.200.1 (Boston Tea Smuggler).
 http://arma.sourceforge.net/

 Q-Chem begins on Sun Oct 15 23:51:04 2017

Host: r0173.ten.osc.edu
0

     Scratch files written to /tmp/pbstmp.1310589/03//
Processing $rem in /users/PAS0291/osu6415/.qchemrc.
molden_format             true
The previous job contains 0 fragments, simply inherited here

Checking the input file for inconsistencies... 	...done.

--------------------------------------------------------------
User input:
--------------------------------------------------------------

$molecule
read
$end

$rem
sym_ignore      true
scf_guess       read
jobtype         freq
method          b3lyp
basis           6-311++G(d,p)
dft_d           d3_op
mem_total       62000
MEM_STATIC      4000
ao2mo_disk      350000
max_scf_cycles  200
$end
--------------------------------------------------------------

             Standard Nuclear Orientation (Angstroms)
    I     Atom           X                Y                Z
 ----------------------------------------------------------------
    1      C       0.6371518841    -0.9078998958     0.1395135421
    2      C      -0.6408063038    -0.3225150884     0.0190358218
    3      C       1.9007858801    -0.1087861024     0.3260197366
    4      C      -0.6872618382     1.1708264548     0.0806166830
    5      O       2.4159867205     0.2593695599    -0.8589666444
    6      O       2.4367168685     0.0626745021     1.3917621761
    7      O      -1.9303798267     1.6874553720     0.0177732884
    8      O       0.2945709716     1.8720612924     0.1862008663
    9      C      -2.0177325114     3.1221611816     0.0924030651
   10      C       3.5960987588     1.0811531989    -0.7955051641
   11      C       0.7952748800    -2.2906883853     0.1232619475
   12      C      -0.3157144180    -3.1111876025    -0.0253960387
   13      C      -1.5772229155    -2.5444467013    -0.1524695096
   14      C      -1.7771430357    -1.1593075403    -0.1296538177
   15      H      -1.5935701267     3.4805047431     1.0311986015
   16      H       3.3645907409     2.0176984900    -0.2857405920
   17      H      -2.4404722184    -3.1902801144    -0.2685268174
   18      H      -1.4833844753     3.5800547538    -0.7410786195
   19      H      -3.0806268135     3.3477300038     0.0386819920
   20      H       3.8762630540     1.2654722820    -1.8302250740
   21      H       4.3968935943     0.5643639503    -0.2645079472
   22      H      -0.2002069648    -4.1890965990    -0.0427011730
   23      H       1.7858037333    -2.7165835073     0.2277913423
   24      C      -3.2018214607    -0.6717401262    -0.2695266776
   25      H      -3.3186087603    -0.0012077157    -1.1219649291
   26      H      -3.5261556295    -0.1169078025     0.6123866365
   27      H      -3.8688696374    -1.5247991835    -0.4053093749
 ----------------------------------------------------------------

    2    -727.5407903938      8.81E-09 Convergence criterion met
 Total energy in the final basis set = -727.54079039

                    Orbital Energies (a.u.)
 --------------------------------------------------------------

 Alpha MOs
 -- Occupied --
-19.179 -19.165 -19.119 -19.108 -10.313 -10.303 -10.234 -10.219
-10.211 -10.210 -10.208 -10.195 -10.191 -10.188 -10.174  -1.122
 -1.107  -1.032  -1.020  -0.885  -0.800  -0.791  -0.746  -0.726
 -0.704  -0.648  -0.625  -0.586  -0.566  -0.541  -0.521  -0.501
 -0.498  -0.491  -0.480  -0.474  -0.460  -0.442  -0.434  -0.429
 -0.423  -0.411  -0.407  -0.391  -0.385  -0.373  -0.371  -0.356
 -0.354  -0.322  -0.304  -0.293  -0.289  -0.272  -0.260

          Ground-State Mulliken Net Atomic Charges

     Atom                 Charge (a.u.)
  ----------------------------------------
      1 C                     0.164270
      2 C                     0.660055
      3 C                    -0.889600
      4 C                    -0.223252
      5 O                     0.066616
      6 O                    -0.131994
      7 O                    -0.133292
      8 O                    -0.201924
      9 C                    -0.222809
     10 C                    -0.214374
     11 C                    -0.221580
     12 C                     0.014721
     13 C                    -0.639422
     14 C                     0.451981
     15 H                     0.191384
     16 H                     0.185498
     17 H                     0.111145
     18 H                     0.186897
     19 H                     0.151524
     20 H                     0.151014
     21 H                     0.163448
     22 H                     0.182145
     23 H                     0.163473
     24 C                    -0.477747
     25 H                     0.178915
     26 H                     0.180311
     27 H                     0.152598
  ----------------------------------------
  Sum of atomic charges =     0.000000

                    Cartesian Multipole Moments
 -----------------------------------------------------------------
    Charge (ESU x 10^10)
                 0.0000
    Dipole Moment (Debye)
         X      -2.5838      Y      -0.2663      Z      -1.9597
       Tot       3.2539
    Quadrupole Moments (Debye-Ang)
        XX     -78.3646     XY      -2.7128     YY     -74.4954
        XZ      -5.9978     YZ      -1.1363     ZZ     -94.1229

 Frequency:       -34.86                  46.26                  76.55
 Force Cnst:      0.0050                 0.0046                 0.0117
 Red. Mass:       6.9339                 3.6326                 3.3909
 IR Intens:        1.395                  0.507                  2.489
 Frequency:       105.59                 124.59                 150.99
 Force Cnst:      0.0276                 0.0210                 0.0202
 Red. Mass:       4.1993                 2.2984                 1.5013
 IR Intens:        3.798                  1.394                  0.500
 Frequency:       155.60                 162.12                 176.88
 Force Cnst:      0.0183                 0.0502                 0.0506
 Red. Mass:       1.2836                 3.2401                 2.7448
 IR Intens:        0.211                  1.744                  0.519
 Frequency:       221.56                 244.16                 261.89
 Force Cnst:      0.0777                 0.1734                 0.0497
 Red. Mass:       2.6879                 4.9369                 1.2297
 IR Intens:        1.193                  1.726                  0.152
 Frequency:       288.84                 307.82                 341.67
 Force Cnst:      0.2533                 0.2421                 0.3335
 Red. Mass:       5.1530                 4.3371                 4.8483
 IR Intens:        4.345                  6.148                 16.643
 Frequency:       372.36                 381.49                 383.74
 Force Cnst:      0.3694                 0.3685                 0.5367
 Red. Mass:       4.5218                 4.2973                 6.1865
 IR Intens:        7.360                 11.457                  7.322
 Frequency:       484.34                 530.84                 559.04
 Force Cnst:      0.5080                 0.8691                 0.9503
 Red. Mass:       3.6753                 5.2346                 5.1609
 IR Intens:        3.026                  1.753                  1.778
 Frequency:       604.68                 710.82                 717.92
 Force Cnst:      0.8983                 1.6208                 1.2595
 Red. Mass:       4.1698                 5.4445                 4.1474
 IR Intens:        1.024                 11.731                 18.772
 Frequency:       756.94                 797.70                 807.04
 Force Cnst:      2.5077                 0.5755                 1.7053
 Red. Mass:       7.4287                 1.5351                 4.4439
 IR Intens:       28.037                 39.931                  9.008
 Frequency:       818.04                 844.56                 900.41
 Force Cnst:      3.0482                 2.1616                 1.8312
 Red. Mass:       7.7313                 5.1436                 3.8335
 IR Intens:        6.907                  3.548                  5.377
 Frequency:       920.35                 982.42                 993.88
 Force Cnst:      0.7301                 4.1348                 0.7788
 Red. Mass:       1.4630                 7.2711                 1.3381
 IR Intens:        0.317                 25.694                  0.202
 Frequency:      1001.57                1045.94                1062.29
 Force Cnst:      2.1990                 1.3205                 1.0224
 Red. Mass:       3.7207                 2.0486                 1.5377
 IR Intens:        7.918                 14.008                  2.271
 Frequency:      1099.83                1139.05                1166.00
 Force Cnst:      2.3776                 2.1691                 1.2791
 Red. Mass:       3.3360                 2.8376                 1.5969
 IR Intens:       54.495                132.758                 52.046
 Frequency:      1171.40                1171.69                1200.44
 Force Cnst:      1.3336                 1.0375                 1.1460
 Red. Mass:       1.6496                 1.2827                 1.3497
 IR Intens:       61.891                  0.963                 19.868
 Frequency:      1211.29                1216.23                1258.79
 Force Cnst:      1.3655                 1.5468                 2.1572
 Red. Mass:       1.5796                 1.7748                 2.3106
 IR Intens:       38.894                 79.484                 90.265
 Frequency:      1290.52                1307.76                1316.37
 Force Cnst:      4.3653                 4.2724                 5.0358
 Red. Mass:       4.4487                 4.2400                 4.9324
 IR Intens:      338.473                216.754                 54.734
 Frequency:      1421.02                1452.12                1466.80
 Force Cnst:      1.4491                 2.7941                 1.5627
 Red. Mass:       1.2180                 2.2490                 1.2327
 IR Intens:        4.468                 15.170                 20.542
 Frequency:      1471.17                1482.21                1485.13
 Force Cnst:      1.6723                 1.3532                 1.3603
 Red. Mass:       1.3114                 1.0455                 1.0468
 IR Intens:       28.040                 10.449                 11.293
 Frequency:      1487.57                1489.67                1496.58
 Force Cnst:      1.3737                 2.3775                 1.3803
 Red. Mass:       1.0536                 1.8184                 1.0460
 IR Intens:        7.993                 31.410                  7.461
 Frequency:      1497.66                1503.88                1614.39
 Force Cnst:      1.4172                 1.7174                10.0839
 Red. Mass:       1.0724                 1.2888                 6.5669
 IR Intens:        7.975                  6.393                  3.827
 Frequency:      1625.15                1754.22                1785.97
 Force Cnst:      8.2821                20.9856                22.4998
 Red. Mass:       5.3224                11.5745                11.9723
 IR Intens:       26.975                298.969                291.035
 Frequency:      3047.64                3049.46                3051.21
 Force Cnst:      5.6659                 5.6395                 5.6452
 Red. Mass:       1.0354                 1.0293                 1.0292
 IR Intens:       25.366                 35.444                 36.535
 Frequency:      3110.29                3115.29                3123.98
 Force Cnst:      6.2711                 6.3051                 6.3665
 Red. Mass:       1.1003                 1.1027                 1.1072
 IR Intens:       10.591                 17.194                 15.305
 Frequency:      3125.82                3156.37                3156.42
 Force Cnst:      6.3734                 6.4962                 6.4939
 Red. Mass:       1.1071                 1.1067                 1.1063
 IR Intens:       15.837                 15.428                 12.854
 Frequency:      3167.07                3181.57                3195.52
 Force Cnst:      6.4241                 6.5085                 6.5967
 Red. Mass:       1.0870                 1.0913                 1.0965
 IR Intens:        4.914                 12.724                 10.261

 STANDARD THERMODYNAMIC QUANTITIES AT   298.15 K  AND     1.00 ATM

   This Molecule has  1 Imaginary Frequencies
   Zero point vibrational energy:      133.528 kcal/mol

   Atom    1 Element C  Has Mass   12.00000
   Atom    2 Element C  Has Mass   12.00000
   Atom    3 Element C  Has Mass   12.00000
   Atom    4 Element C  Has Mass   12.00000
   Atom    5 Element O  Has Mass   15.99491
   Atom    6 Element O  Has Mass   15.99491
   Atom    7 Element O  Has Mass   15.99491
   Atom    8 Element O  Has Mass   15.99491
   Atom    9 Element C  Has Mass   12.00000
   Atom   10 Element C  Has Mass   12.00000
   Atom   11 Element C  Has Mass   12.00000
   Atom   12 Element C  Has Mass   12.00000
   Atom   13 Element C  Has Mass   12.00000
   Atom   14 Element C  Has Mass   12.00000
   Atom   15 Element H  Has Mass    1.00783
   Atom   16 Element H  Has Mass    1.00783
   Atom   17 Element H  Has Mass    1.00783
   Atom   18 Element H  Has Mass    1.00783
   Atom   19 Element H  Has Mass    1.00783
   Atom   20 Element H  Has Mass    1.00783
   Atom   21 Element H  Has Mass    1.00783
   Atom   22 Element H  Has Mass    1.00783
   Atom   23 Element H  Has Mass    1.00783
   Atom   24 Element C  Has Mass   12.00000
   Atom   25 Element H  Has Mass    1.00783
   Atom   26 Element H  Has Mass    1.00783
   Atom   27 Element H  Has Mass    1.00783
   Molecular Mass:   208.073600 amu
   Principal axes and moments of inertia in amu*Bohr^2:
                             1           2           3
    Eigenvalues --     2428.23620  3151.01687  5141.93102
          X               0.99703    -0.07685    -0.00525
          Y               0.07684     0.99704    -0.00226
          Z               0.00540     0.00185     0.99998
   Rotational Symmetry Number is   1
   The Molecule is an Asymmetric Top
   Translational Enthalpy:        0.889 kcal/mol
   Rotational Enthalpy:           0.889 kcal/mol
   Vibrational Enthalpy:        140.528 kcal/mol
   gas constant (RT):             0.592 kcal/mol
   Translational Entropy:        41.902  cal/mol.K
   Rotational Entropy:           32.042  cal/mol.K
   Vibrational Entropy:          43.242  cal/mol.K

   Total Enthalpy:              142.898 kcal/mol
   Total Entropy:               117.186  cal/mol.K

 Total job time:  4542.59s(wall), 15343.51s(cpu)
        *  Thank you very much for using Q-Chem.  Have a nice day.  *
