 Q-Chem 5.0, Q-Chem, Inc., Pleasanton, CA (2017)
 Q-Chem 5.0.1 for Intel X86 EM64T Linux

User input:
--------------------------------------------------------------
$molecule
0 1
C 0.56469195 -0.78442467 -0.53276881
C 0.55326908 0.80131860 -0.50458701
C -0.62904462 -1.45021100 0.12851623
C -0.66373112 1.42124762 0.15695304
O -1.67525998 -1.49832407 -0.72613014
O -0.66430724 -1.89185961 1.24801175
O -1.66762536 1.55896028 -0.73744328
O -0.74582176 1.76632991 1.30789830
C -2.90754823 2.07392865 -0.21972855
C -2.89143311 -2.06335160 -0.20252384
C 1.88404077 -1.06921125 0.22819450
C 3.08426669 -0.74210202 -0.68883951
C 3.07102851 0.81799212 -0.64983095
C 1.86246811 1.07813126 0.27750195
O 1.92616084 -0.01629197 1.19673776
H 0.59504183 -1.12619373 -1.56788313
H 0.59219803 1.17795626 -1.52695747
H -3.29328670 1.42006946 0.56438306
H -3.22718219 -1.50221196 0.67105560
H 1.90745713 -2.03060441 0.73368344
H 4.00445090 -1.14373064 -0.26284086
H 2.97027315 -1.14882686 -1.69601193
H 3.98236531 1.21287767 -0.19920312
H 2.95386760 1.27352717 -1.63543475
H 1.86531606 2.01634027 0.82559740
H -2.76746552 3.07581062 0.18883649
H -3.58859946 2.09729427 -1.06757959
H -2.73877801 -3.10578145 0.08142946
H -3.61676655 -1.98907412 -1.00977343
$end

$rem
sym_ignore      true
jobtype         opt
method          b3lyp
basis           6-311++G(d,p)
dft_d           d3_op
mem_total       62000
MEM_STATIC      4000
ao2mo_disk      350000
max_scf_cycles  200
geom_opt_max_cycles 1000
geom_opt_tol_displacement 1
GEOM_OPT_TOL_GRADIENT       1
GEOM_OPT_TOL_ENERGY         1
$end

--------------------------------------------------------------

   15    -765.8586012610      4.58E-09 Convergence criterion met
 Total energy in the final basis set = -765.85860126
   11    -765.8586326216      4.70E-09 Convergence criterion met
 Total energy in the final basis set = -765.85863262
   12    -765.8589430091      5.89E-09 Convergence criterion met
 Total energy in the final basis set = -765.85894301
   12    -765.8596433508      5.61E-09 Convergence criterion met
 Total energy in the final basis set = -765.85964335
   12    -765.8603355261      5.15E-09 Convergence criterion met
 Total energy in the final basis set = -765.86033553
   12    -765.8609794247      5.47E-09 Convergence criterion met
 Total energy in the final basis set = -765.86097942
   12    -765.8613059440      5.55E-09 Convergence criterion met
 Total energy in the final basis set = -765.86130594
   12    -765.8614358963      2.81E-09 Convergence criterion met
    9    -765.8626633091      4.15E-09 Convergence criterion met
 Total energy in the final basis set = -765.86266331
    8    -765.8626632110      6.10E-09 Convergence criterion met
 Total energy in the final basis set = -765.86266321
    8    -765.8626632813      2.30E-09 Convergence criterion met
 Total energy in the final basis set = -765.86266328
    6    -765.8626633512      8.12E-09 Convergence criterion met
 Total energy in the final basis set = -765.86266335
    5    -765.8626633491      8.98E-09 Convergence criterion met
 Total energy in the final basis set = -765.86266335
    5    -765.8626633450      3.90E-09 Convergence criterion met
 Total energy in the final basis set = -765.86266335
 Final energy is   -765.862663345002
 **  OPTIMIZATION CONVERGED  **
 Total job time:  1208.67s(wall), 20529.60s(cpu)
        *  Thank you very much for using Q-Chem.  Have a nice day.  *

User input: 2 of 2

r0142.ten.osc.edu 10.25.154
Q-Chem Developer Version! Running on 10.25.154.*
                  Welcome to Q-Chem
     A Quantum Leap Into The Future Of Chemistry

 Q-Chem 5.0, Q-Chem, Inc., Pleasanton, CA (2017)

 Yihan Shao,  Zhengting Gan,  E. Epifanovsky,  A. T. B. Gilbert,  M. Wormit,
 J. Kussmann,  A. W. Lange,  A. Behn,  Jia Deng,  Xintian Feng,  D. Ghosh,
 M. Goldey,  P. R. Horn,  L. D. Jacobson,  I. Kaliman,  T. Kus,  A. Landau,
 Jie Liu,  E. I. Proynov,  R. M. Richard,  R. P. Steele,  E. J. Sundstrom,
 H. L. Woodcock III,  P. M. Zimmerman,  D. Zuev,  B. Albrecht,  E. Alguire,
 S. A. Baeppler,  Z. Benda,  Y. A. Bernard,  E. J. Berquist,  K. B. Bravaya,
 D. Casanova,  Chun-Min Chang,  Yunqing Chen,  A. Chien,  K. D. Closser,
 M. P. Coons,  S. Dasgupta,  M. Diedenhofen,  Hainam Do,  R. G. Edgar,
 Po-Tung Fang,  S. Fatehi,  Qingguo Feng,  Qinghui Ge,  A. Ghysels,
 J. Gomes,  J. Gonthier,  A. Gunina,  M. W. D. Hanson-Heine,
 P. H. P. Harbach,  A. W. Hauser,  J. E. Herr,  E. G. Hohenstein,
 Z. C. Holden,  Kerwin Hui,  T.-C. Jagau,  Hyunjun Ji,  B. Kaduk,
 K. Khistyaev,  Jaehoon Kim,  P. Klunzinger,  K. Koh,  D. Kosenkov,
 T. Kowalczyk,  C. M. Krauter,  A. Kunitsa,  Ka Un Lao,  A. Laurent,
 K. V. Lawler,  Joonho Lee,  D. Lefrancois,  S. Lehtola,  D. S. Levine,
 Yi-Pei Li,  You-Sheng Lin,  Fenglai Liu,  E. Livshits,  A. Luenser,
 P. Manohar,  E. Mansoor,  S. F. Manzer,  Shan-Ping Mao,  Yuezhi Mao,
 N. Mardirossian,  A. V. Marenich,  L. A. Martinez-Martinez,  S. A. Maurer,
 N. J. Mayhall,  S. C. McKenzie,  J.-M. Mewes,  A. F. Morrison,  K. Nanda,
 T. S. Nguyen-Beck,  R. Olivares-Amaya,  J. A. Parkhill,  T. M. Perrine,
 F. Plasser,  S. Prager,  A. Prociuk,  D. R. Rehn,  F. Rob,  M. Schneider,
 N. Sergueev,  S. M. Sharada,  S. Sharma,  D. W. Small,  T. Stauch,
 T. Stein,  Yu-Chuan Su,  A. J. W. Thom,  T. Tsuchimochi,  L. Vogt,
 O. Vydrov,  M. A. Watson,  J. Wenzel,  M. de Wergifosse,  T. A. Wesolowski,
 A. White,  J. Witte,  A. Yamada,  Jun Yang,  K. Yao,  S. Yeganeh,
 S. R. Yost,  Zhi-Qiang You,  A. Zech,  Igor Ying Zhang,  Xing Zhang,
 Yan Zhao,  Ying Zhu,  B. R. Brooks,  G. K. L. Chan,  C. J. Cramer,
 M. S. Gordon,  W. J. Hehre,  A. Klamt,  M. W. Schmidt,  C. D. Sherrill,
 D. G. Truhlar,  A. Aspuru-Guzik,  R. Baer,  A. T. Bell,  N. A. Besley,
 Jeng-Da Chai,  A. Dreuw,  B. D. Dunietz,  T. R. Furlani,  Chao-Ping Hsu,
 Yousung Jung,  Jing Kong,  D. S. Lambrecht,  WanZhen Liang,  C. Ochsenfeld,
 V. A. Rassolov,  L. V. Slipchenko,  J. E. Subotnik,  T. Van Voorhis,
 J. M. Herbert,  A. I. Krylov,  P. M. W. Gill,  M. Head-Gordon

 Contributors to earlier versions of Q-Chem not listed above:
 R. D. Adamson,  B. Austin,  J. Baker,  G. J. O. Beran,  K. Brandhorst,
 S. T. Brown,  E. F. C. Byrd,  A. K. Chakraborty,  C.-L. Cheng,
 Siu Hung Chien,  D. M. Chipman,  D. L. Crittenden,  H. Dachsel,
 R. A. DiStasio Jr.,  R. J. Doerksen,  A. D. Dutoi,  L. Fusti-Molnar,
 W. A. Goddard III,  A. Golubeva-Zadorozhnaya,  S. R. Gwaltney,  G. Hawkins,
 A. Heyden,  S. Hirata,  G. Kedziora,  F. J. Keil,  C. Kelley,  Jihan Kim,
 R. A. King,  R. Z. Khaliullin,  P. P. Korambath,  W. Kurlancheek,
 A. M. Lee,  M. S. Lee,  S. V. Levchenko,  Ching Yeh Lin,  D. Liotard,
 R. C. Lochan,  I. Lotan,  P. E. Maslen,  N. Nair,  D. P. O'Neill,
 D. Neuhauser,  E. Neuscamman,  C. M. Oana,  R. Olson,  B. Peters,
 R. Peverati,  P. A. Pieniazek,  Y. M. Rhee,  J. Ritchie,  M. A. Rohrdanz,
 E. Rosta,  N. J. Russ,  H. F. Schaefer III,  N. E. Schultz,  N. Shenvi,
 A. C. Simmonett,  A. Sodt,  D. Stuck,  K. S. Thanthiriwatte,  V. Vanovschi,
 Tao Wang,  A. Warshel,  C. F. Williams,  Q. Wu,  X. Xu,  W. Zhang

 Please cite Q-Chem as follows:
 Y. Shao et al., Mol. Phys. 113, 184-215 (2015)
 DOI: 10.1080/00268976.2014.952696

 Q-Chem 5.0.1 for Intel X86 EM64T Linux

 Parts of Q-Chem use Armadillo 5.200.1 (Boston Tea Smuggler).
 http://arma.sourceforge.net/

 Q-Chem begins on Sat Oct 14 17:27:45 2017

Host: r0142.ten.osc.edu
0

     Scratch files written to /tmp/pbstmp.1310449/08//
Processing $rem in /users/PAS0291/osu6415/.qchemrc.
molden_format             true
The previous job contains 0 fragments, simply inherited here

Checking the input file for inconsistencies... 	...done.

--------------------------------------------------------------
User input:
--------------------------------------------------------------

$molecule
read
$end

$rem
sym_ignore      true
scf_guess       read
jobtype         freq
method          b3lyp
basis           6-311++G(d,p)
dft_d           d3_op
mem_total       62000
MEM_STATIC      4000
ao2mo_disk      350000
max_scf_cycles  200
$end
--------------------------------------------------------------

             Standard Nuclear Orientation (Angstroms)
    I     Atom           X                Y                Z
 ----------------------------------------------------------------
    1      C       0.6032387266    -0.9913462904    -0.4601684852
    2      C       0.3093809401     0.5293252223    -0.6834159735
    3      C      -0.5150186775    -1.8128480397     0.1576556138
    4      C      -0.9429768036     1.0682799158    -0.0266066751
    5      O      -1.6093307452    -1.7699760025    -0.6334689634
    6      O      -0.4320136057    -2.4772453665     1.1574206325
    7      O      -1.3615288354     2.1794234748    -0.6760969733
    8      O      -1.4817995639     0.6349984936     0.9598739198
    9      C      -2.5062479343     2.8449432421    -0.1094880870
   10      C      -2.7863741135    -2.4148615187    -0.1130566023
   11      C       1.8887574859    -0.9398679336     0.4030333925
   12      C       3.0913981452    -0.6195922140    -0.5082642795
   13      C       2.8213060108     0.8817601784    -0.8348173731
   14      C       1.5611047491     1.1495441658     0.0209070538
   15      O       1.7331425811     0.2843577803     1.1426293156
   16      H       0.8004227417    -1.4541353860    -1.4312670543
   17      H       0.2789910901     0.7918088971    -1.7396558114
   18      H      -3.3685435467     2.1765907832    -0.1010199358
   19      H      -3.0887137663    -1.9322269704     0.8175015042
   20      H       1.9993159244    -1.7726903752     1.0908315019
   21      H       4.0247914403    -0.7440425519     0.0422564025
   22      H       3.1297621505    -1.2543496742    -1.3956060586
   23      H       3.6441112365     1.5172400115    -0.5048983681
   24      H       2.6520339277     1.0696567725    -1.8969365647
   25      H       1.4279864340     2.1759749501     0.3564589888
   26      H      -2.2939638131     3.1688191192     0.9104885942
   27      H      -2.6918617417     3.7013193853    -0.7539909547
   28      H      -2.5976093462    -3.4737650034     0.0687838614
   29      H      -3.5497149810    -2.2875102655    -0.8778200108
 ----------------------------------------------------------------

    2    -765.8626633433      3.36E-09 Convergence criterion met
 Total energy in the final basis set = -765.86266334

                    Orbital Energies (a.u.)
 --------------------------------------------------------------

 Alpha MOs
 -- Occupied --
-19.178 -19.167 -19.131 -19.119 -19.111 -10.308 -10.302 -10.240
-10.232 -10.229 -10.222 -10.207 -10.203 -10.183 -10.180  -1.118
 -1.108  -1.065  -1.031  -1.023  -0.831  -0.784  -0.777  -0.738
 -0.725  -0.654  -0.605  -0.597  -0.577  -0.560  -0.546  -0.519
 -0.504  -0.492  -0.487  -0.485  -0.478  -0.471  -0.459  -0.430
 -0.421  -0.420  -0.412  -0.396  -0.386  -0.375  -0.367  -0.366
 -0.360  -0.358  -0.339  -0.333  -0.320  -0.307  -0.291  -0.281
 -0.272

          Ground-State Mulliken Net Atomic Charges

     Atom                 Charge (a.u.)
  ----------------------------------------
      1 C                     0.102607
      2 C                     0.084725
      3 C                    -0.408945
      4 C                    -0.672670
      5 O                    -0.044974
      6 O                    -0.221424
      7 O                    -0.024389
      8 O                    -0.204005
      9 C                    -0.235809
     10 C                    -0.189613
     11 C                    -0.166580
     12 C                    -0.449399
     13 C                    -0.471704
     14 C                     0.342010
     15 O                    -0.143222
     16 H                     0.233762
     17 H                     0.286564
     18 H                     0.171960
     19 H                     0.190017
     20 H                     0.284903
     21 H                     0.192310
     22 H                     0.125438
     23 H                     0.180530
     24 H                     0.122520
     25 H                     0.266050
     26 H                     0.182937
     27 H                     0.151797
     28 H                     0.165947
     29 H                     0.148657
  ----------------------------------------
  Sum of atomic charges =     0.000000

                    Cartesian Multipole Moments
 -----------------------------------------------------------------
    Charge (ESU x 10^10)
                 0.0000
    Dipole Moment (Debye)
         X      -0.2452      Y       1.7677      Z      -3.9156
       Tot       4.3031
    Quadrupole Moments (Debye-Ang)
        XX     -76.4037     XY      -1.9154     YY     -83.3375
        XZ      -1.4814     YZ       4.2785     ZZ     -95.9425

 Frequency:        30.12                  62.30                  85.18
 Force Cnst:      0.0028                 0.0086                 0.0229
 Red. Mass:       5.2064                 3.7425                 5.3612
 IR Intens:        0.572                  0.540                  2.182
 Frequency:        90.32                 125.27                 141.72
 Force Cnst:      0.0152                 0.0235                 0.0165
 Red. Mass:       3.1617                 2.5423                 1.3986
 IR Intens:        3.031                  0.751                  0.839
 Frequency:       145.17                 167.74                 195.22
 Force Cnst:      0.0378                 0.0196                 0.0869
 Red. Mass:       3.0417                 1.1835                 3.8714
 IR Intens:        2.228                  0.199                  0.177
 Frequency:       219.28                 242.11                 273.12
 Force Cnst:      0.1454                 0.1175                 0.2185
 Red. Mass:       5.1321                 3.4028                 4.9722
 IR Intens:        1.950                  3.577                  7.500
 Frequency:       295.68                 328.39                 339.05
 Force Cnst:      0.1643                 0.2301                 0.2835
 Red. Mass:       3.1900                 3.6220                 4.1854
 IR Intens:        5.577                  6.788                 10.358
 Frequency:       374.01                 467.53                 564.98
 Force Cnst:      0.4699                 0.6408                 0.8225
 Red. Mass:       5.7021                 4.9758                 4.3731
 IR Intens:        9.544                  9.887                 21.593
 Frequency:       629.03                 658.76                 690.98
 Force Cnst:      1.4603                 1.1677                 1.6133
 Red. Mass:       6.2640                 4.5671                 5.7351
 IR Intens:       13.831                  1.215                  4.362
 Frequency:       741.46                 797.78                 816.60
 Force Cnst:      1.7669                 1.6836                 0.8479
 Red. Mass:       5.4549                 4.4898                 2.1581
 IR Intens:        7.703                  7.153                  5.673
 Frequency:       829.80                 836.97                 861.08
 Force Cnst:      1.3385                 2.1752                 1.6219
 Red. Mass:       3.2993                 5.2702                 3.7126
 IR Intens:       19.673                  3.720                  1.803
 Frequency:       898.43                 909.09                 917.26
 Force Cnst:      1.2922                 1.3715                 1.5130
 Red. Mass:       2.7171                 2.8167                 3.0521
 IR Intens:        3.076                 11.121                  4.636
 Frequency:       937.50                 958.67                 976.35
 Force Cnst:      1.7259                 3.0649                 1.3403
 Red. Mass:       3.3330                 5.6602                 2.3864
 IR Intens:       26.056                 34.289                 19.369
 Frequency:       984.38                1017.49                1027.73
 Force Cnst:      2.5677                 2.1308                 2.1830
 Red. Mass:       4.4975                 3.4932                 3.5078
 IR Intens:        3.933                 33.498                 17.392
 Frequency:      1067.39                1072.07                1074.47
 Force Cnst:      2.4258                 1.3415                 1.6714
 Red. Mass:       3.6137                 1.9811                 2.4573
 IR Intens:       32.065                  3.278                 33.006
 Frequency:      1166.12                1170.77                1171.84
 Force Cnst:      1.0160                 1.0580                 1.0872
 Red. Mass:       1.2681                 1.3101                 1.3438
 IR Intens:       59.705                  8.309                 24.242
 Frequency:      1178.71                1200.78                1207.20
 Force Cnst:      1.8179                 1.3025                 1.5153
 Red. Mass:       2.2208                 1.5332                 1.7647
 IR Intens:      210.285                  6.020                131.256
 Frequency:      1212.38                1215.59                1229.55
 Force Cnst:      1.3881                 1.6467                 1.0712
 Red. Mass:       1.6029                 1.8914                 1.2026
 IR Intens:       63.488                234.018                 16.299
 Frequency:      1244.15                1250.22                1283.50
 Force Cnst:      1.3360                 1.4492                 1.2328
 Red. Mass:       1.4649                 1.5736                 1.2702
 IR Intens:       15.411                 26.448                  4.103
 Frequency:      1288.95                1313.77                1321.78
 Force Cnst:      1.5019                 1.4355                 1.5030
 Red. Mass:       1.5343                 1.4117                 1.4602
 IR Intens:       21.114                  2.157                 40.815
 Frequency:      1356.30                1374.92                1391.93
 Force Cnst:      1.6760                 1.8202                 1.9351
 Red. Mass:       1.5464                 1.6342                 1.6952
 IR Intens:       20.730                 72.784                 41.156
 Frequency:      1468.40                1469.55                1484.75
 Force Cnst:      1.5199                 1.5323                 1.3557
 Red. Mass:       1.1964                 1.2043                 1.0438
 IR Intens:       18.296                 12.106                  4.515
 Frequency:      1485.32                1487.81                1497.81
 Force Cnst:      1.3574                 1.4139                 1.3847
 Red. Mass:       1.0443                 1.0841                 1.0476
 IR Intens:       15.034                  2.621                 12.808
 Frequency:      1498.47                1512.85                1795.69
 Force Cnst:      1.3829                 1.4841                21.8775
 Red. Mass:       1.0453                 1.1006                11.5156
 IR Intens:        5.716                  6.326                 57.461
 Frequency:      1803.97                3049.50                3049.80
 Force Cnst:     21.9309                 5.6395                 5.6421
 Red. Mass:      11.4379                 1.0293                 1.0295
 IR Intens:      401.365                 23.208                 46.750
 Frequency:      3057.88                3062.54                3069.36
 Force Cnst:      5.8890                 5.9221                 5.8949
 Red. Mass:       1.0689                 1.0717                 1.0620
 IR Intens:        9.746                 21.675                 35.849
 Frequency:      3098.43                3113.08                3118.81
 Force Cnst:      6.2648                 6.2528                 6.2887
 Red. Mass:       1.1076                 1.0951                 1.0973
 IR Intens:        0.501                 10.573                 32.989
 Frequency:      3123.12                3124.95                3131.17
 Force Cnst:      6.3627                 6.3712                 6.2955
 Red. Mass:       1.1072                 1.1073                 1.0899
 IR Intens:       18.725                 15.234                 22.125
 Frequency:      3153.38                3157.47                3164.86
 Force Cnst:      6.4829                 6.4986                 6.4370
 Red. Mass:       1.1065                 1.1064                 1.0907
 IR Intens:       14.096                 14.380                  5.712

 STANDARD THERMODYNAMIC QUANTITIES AT   298.15 K  AND     1.00 ATM

   This Molecule has  0 Imaginary Frequencies
   Zero point vibrational energy:      149.259 kcal/mol

   Atom    1 Element C  Has Mass   12.00000
   Atom    2 Element C  Has Mass   12.00000
   Atom    3 Element C  Has Mass   12.00000
   Atom    4 Element C  Has Mass   12.00000
   Atom    5 Element O  Has Mass   15.99491
   Atom    6 Element O  Has Mass   15.99491
   Atom    7 Element O  Has Mass   15.99491
   Atom    8 Element O  Has Mass   15.99491
   Atom    9 Element C  Has Mass   12.00000
   Atom   10 Element C  Has Mass   12.00000
   Atom   11 Element C  Has Mass   12.00000
   Atom   12 Element C  Has Mass   12.00000
   Atom   13 Element C  Has Mass   12.00000
   Atom   14 Element C  Has Mass   12.00000
   Atom   15 Element O  Has Mass   15.99491
   Atom   16 Element H  Has Mass    1.00783
   Atom   17 Element H  Has Mass    1.00783
   Atom   18 Element H  Has Mass    1.00783
   Atom   19 Element H  Has Mass    1.00783
   Atom   20 Element H  Has Mass    1.00783
   Atom   21 Element H  Has Mass    1.00783
   Atom   22 Element H  Has Mass    1.00783
   Atom   23 Element H  Has Mass    1.00783
   Atom   24 Element H  Has Mass    1.00783
   Atom   25 Element H  Has Mass    1.00783
   Atom   26 Element H  Has Mass    1.00783
   Atom   27 Element H  Has Mass    1.00783
   Atom   28 Element H  Has Mass    1.00783
   Atom   29 Element H  Has Mass    1.00783
   Molecular Mass:   214.084170 amu
   Principal axes and moments of inertia in amu*Bohr^2:
                             1           2           3
    Eigenvalues --     2427.46642  2987.24688  4683.59531
          X               0.99948    -0.02321     0.02247
          Y               0.02069     0.99408     0.10667
          Z              -0.02481    -0.10615     0.99404
   Rotational Symmetry Number is   1
   The Molecule is an Asymmetric Top
   Translational Enthalpy:        0.889 kcal/mol
   Rotational Enthalpy:           0.889 kcal/mol
   Vibrational Enthalpy:        156.432 kcal/mol
   gas constant (RT):             0.592 kcal/mol
   Translational Entropy:        41.987  cal/mol.K
   Rotational Entropy:           31.896  cal/mol.K
   Vibrational Entropy:          46.585  cal/mol.K

   Total Enthalpy:              158.802 kcal/mol
   Total Entropy:               120.468  cal/mol.K

 Total job time:  5774.21s(wall), 19827.30s(cpu)
        *  Thank you very much for using Q-Chem.  Have a nice day.  *
