 Q-Chem 5.0, Q-Chem, Inc., Pleasanton, CA (2017)
 Q-Chem 5.0.1 for Intel X86 EM64T Linux

User input:
--------------------------------------------------------------
$molecule
0 1
  C      0.47559255     -2.40494178     -0.05708946
  C     -0.62665829     -1.96279316      0.97651312
  C     -0.91223990     -0.46757291      1.03262788
  C      1.17054702     -1.28408350     -0.81096169
  O     -2.18401404     -0.22177030      1.40203709
  O     -0.09969906      0.40353159      0.84508312
  O      2.32622548     -0.94943410     -0.20364801
  O      0.78255001     -0.79468958     -1.84156079
  C      3.00334942      0.19788922     -0.74684463
  C     -2.54712320      1.16653975      1.53474542
  C     -0.36426403     -3.31643950     -0.99850827
  C     -0.55904134     -4.68990634     -0.32674438
  C     -1.56159923     -4.31701259      0.80641531
  C     -1.82446931     -2.82374184      0.49997641
  O     -1.68178242     -2.74912145     -0.92396962
  H      1.24959476     -2.97054634      0.46226784
  H     -0.31837853     -2.23005637      1.99187123
  H      2.36119647      1.07561968     -0.66163015
  H     -2.40765952      1.68497153      0.58549731
  H     -0.02959688     -3.32225989     -2.03202606
  H     -1.00322839     -5.39167168     -1.03412937
  H      0.37386911     -5.12105521      0.04161139
  H     -2.48681583     -4.88923514      0.72646000
  H     -1.15612322     -4.47278496      1.80863594
  H     -2.79653006     -2.44344540      0.79568199
  H      3.90114620      0.31833212     -0.14432154
  H      3.26115425      0.03280103     -1.79403775
  H     -1.93900904      1.64685288      2.30258047
  H     -3.59650049      1.16332538      1.82064982
$end

$rem
sym_ignore      true
jobtype         ts
method          b3lyp
basis           6-311++G(d,p)
dft_d           d3_op
mem_total       62000
MEM_STATIC      4000
ao2mo_disk      350000
max_scf_cycles  200
geom_opt_max_cycles 1000
geom_opt_tol_displacement 1
GEOM_OPT_TOL_GRADIENT       1
GEOM_OPT_TOL_ENERGY         1
geom_opt_dmax    50
$end

--------------------------------------------------------------

   15    -765.8608189557      3.55E-09 Convergence criterion met
 Total energy in the final basis set = -765.86081896
   10    -765.8608138703      9.19E-09 Convergence criterion met
 Total energy in the final basis set = -765.86081387
   10    -765.8608072974      8.19E-09 Convergence criterion met
 Total energy in the final basis set = -765.86080730
   10    -765.8607949753      9.99E-09 Convergence criterion met
 Total energy in the final basis set = -765.86079498
   11    -765.8607834938      4.94E-09 Convergence criterion met
 Total energy in the final basis set = -765.86078349
   11    -765.8607763087      4.03E-09 Convergence criterion met
 Total energy in the final basis set = -765.86077631
   11    -765.8607655909      4.77E-09 Convergence criterion met
 Total energy in the final basis set = -765.86076559
   11    -765.8607815856      3.70E-09 Convergence criterion met
    6    -765.8608197432      7.59E-09 Convergence criterion met
 Total energy in the final basis set = -765.86081974
    7    -765.8608197601      5.81E-09 Convergence criterion met
 Total energy in the final basis set = -765.86081976
    7    -765.8608197314      9.80E-09 Convergence criterion met
 Total energy in the final basis set = -765.86081973
    8    -765.8608197741      3.70E-09 Convergence criterion met
 Total energy in the final basis set = -765.86081977
    8    -765.8608197446      2.38E-09 Convergence criterion met
 Total energy in the final basis set = -765.86081974
    4    -765.8608197501      4.20E-09 Convergence criterion met
 Total energy in the final basis set = -765.86081975
 Final energy is   -765.860819750106
 **  OPTIMIZATION CONVERGED  **
 Total job time:  1758.87s(wall), 29336.69s(cpu)
        *  Thank you very much for using Q-Chem.  Have a nice day.  *

User input: 2 of 2

r0105.ten.osc.edu 10.25.153
Q-Chem Developer Version! Running on 10.25.153.*
                  Welcome to Q-Chem
     A Quantum Leap Into The Future Of Chemistry

 Q-Chem 5.0, Q-Chem, Inc., Pleasanton, CA (2017)

 Yihan Shao,  Zhengting Gan,  E. Epifanovsky,  A. T. B. Gilbert,  M. Wormit,
 J. Kussmann,  A. W. Lange,  A. Behn,  Jia Deng,  Xintian Feng,  D. Ghosh,
 M. Goldey,  P. R. Horn,  L. D. Jacobson,  I. Kaliman,  T. Kus,  A. Landau,
 Jie Liu,  E. I. Proynov,  R. M. Richard,  R. P. Steele,  E. J. Sundstrom,
 H. L. Woodcock III,  P. M. Zimmerman,  D. Zuev,  B. Albrecht,  E. Alguire,
 S. A. Baeppler,  Z. Benda,  Y. A. Bernard,  E. J. Berquist,  K. B. Bravaya,
 D. Casanova,  Chun-Min Chang,  Yunqing Chen,  A. Chien,  K. D. Closser,
 M. P. Coons,  S. Dasgupta,  M. Diedenhofen,  Hainam Do,  R. G. Edgar,
 Po-Tung Fang,  S. Fatehi,  Qingguo Feng,  Qinghui Ge,  A. Ghysels,
 J. Gomes,  J. Gonthier,  A. Gunina,  M. W. D. Hanson-Heine,
 P. H. P. Harbach,  A. W. Hauser,  J. E. Herr,  E. G. Hohenstein,
 Z. C. Holden,  Kerwin Hui,  T.-C. Jagau,  Hyunjun Ji,  B. Kaduk,
 K. Khistyaev,  Jaehoon Kim,  P. Klunzinger,  K. Koh,  D. Kosenkov,
 T. Kowalczyk,  C. M. Krauter,  A. Kunitsa,  Ka Un Lao,  A. Laurent,
 K. V. Lawler,  Joonho Lee,  D. Lefrancois,  S. Lehtola,  D. S. Levine,
 Yi-Pei Li,  You-Sheng Lin,  Fenglai Liu,  E. Livshits,  A. Luenser,
 P. Manohar,  E. Mansoor,  S. F. Manzer,  Shan-Ping Mao,  Yuezhi Mao,
 N. Mardirossian,  A. V. Marenich,  L. A. Martinez-Martinez,  S. A. Maurer,
 N. J. Mayhall,  S. C. McKenzie,  J.-M. Mewes,  A. F. Morrison,  K. Nanda,
 T. S. Nguyen-Beck,  R. Olivares-Amaya,  J. A. Parkhill,  T. M. Perrine,
 F. Plasser,  S. Prager,  A. Prociuk,  D. R. Rehn,  F. Rob,  M. Schneider,
 N. Sergueev,  S. M. Sharada,  S. Sharma,  D. W. Small,  T. Stauch,
 T. Stein,  Yu-Chuan Su,  A. J. W. Thom,  T. Tsuchimochi,  L. Vogt,
 O. Vydrov,  M. A. Watson,  J. Wenzel,  M. de Wergifosse,  T. A. Wesolowski,
 A. White,  J. Witte,  A. Yamada,  Jun Yang,  K. Yao,  S. Yeganeh,
 S. R. Yost,  Zhi-Qiang You,  A. Zech,  Igor Ying Zhang,  Xing Zhang,
 Yan Zhao,  Ying Zhu,  B. R. Brooks,  G. K. L. Chan,  C. J. Cramer,
 M. S. Gordon,  W. J. Hehre,  A. Klamt,  M. W. Schmidt,  C. D. Sherrill,
 D. G. Truhlar,  A. Aspuru-Guzik,  R. Baer,  A. T. Bell,  N. A. Besley,
 Jeng-Da Chai,  A. Dreuw,  B. D. Dunietz,  T. R. Furlani,  Chao-Ping Hsu,
 Yousung Jung,  Jing Kong,  D. S. Lambrecht,  WanZhen Liang,  C. Ochsenfeld,
 V. A. Rassolov,  L. V. Slipchenko,  J. E. Subotnik,  T. Van Voorhis,
 J. M. Herbert,  A. I. Krylov,  P. M. W. Gill,  M. Head-Gordon

 Contributors to earlier versions of Q-Chem not listed above:
 R. D. Adamson,  B. Austin,  J. Baker,  G. J. O. Beran,  K. Brandhorst,
 S. T. Brown,  E. F. C. Byrd,  A. K. Chakraborty,  C.-L. Cheng,
 Siu Hung Chien,  D. M. Chipman,  D. L. Crittenden,  H. Dachsel,
 R. A. DiStasio Jr.,  R. J. Doerksen,  A. D. Dutoi,  L. Fusti-Molnar,
 W. A. Goddard III,  A. Golubeva-Zadorozhnaya,  S. R. Gwaltney,  G. Hawkins,
 A. Heyden,  S. Hirata,  G. Kedziora,  F. J. Keil,  C. Kelley,  Jihan Kim,
 R. A. King,  R. Z. Khaliullin,  P. P. Korambath,  W. Kurlancheek,
 A. M. Lee,  M. S. Lee,  S. V. Levchenko,  Ching Yeh Lin,  D. Liotard,
 R. C. Lochan,  I. Lotan,  P. E. Maslen,  N. Nair,  D. P. O'Neill,
 D. Neuhauser,  E. Neuscamman,  C. M. Oana,  R. Olson,  B. Peters,
 R. Peverati,  P. A. Pieniazek,  Y. M. Rhee,  J. Ritchie,  M. A. Rohrdanz,
 E. Rosta,  N. J. Russ,  H. F. Schaefer III,  N. E. Schultz,  N. Shenvi,
 A. C. Simmonett,  A. Sodt,  D. Stuck,  K. S. Thanthiriwatte,  V. Vanovschi,
 Tao Wang,  A. Warshel,  C. F. Williams,  Q. Wu,  X. Xu,  W. Zhang

 Please cite Q-Chem as follows:
 Y. Shao et al., Mol. Phys. 113, 184-215 (2015)
 DOI: 10.1080/00268976.2014.952696

 Q-Chem 5.0.1 for Intel X86 EM64T Linux

 Parts of Q-Chem use Armadillo 5.200.1 (Boston Tea Smuggler).
 http://arma.sourceforge.net/

 Q-Chem begins on Tue Oct 17 15:24:58 2017

Host: r0105.ten.osc.edu
0

     Scratch files written to /tmp/pbstmp.1311784/2//
Processing $rem in /users/PAS0291/osu6415/.qchemrc.
molden_format             true
The previous job contains 0 fragments, simply inherited here

Checking the input file for inconsistencies... 	...done.

--------------------------------------------------------------
User input:
--------------------------------------------------------------

$molecule
read
$end

$rem
sym_ignore      true
scf_guess       read
jobtype         freq
method          b3lyp
basis           6-311++G(d,p)
dft_d           d3_op
mem_total       62000
MEM_STATIC      4000
ao2mo_disk      350000
max_scf_cycles  200
$end
--------------------------------------------------------------

             Standard Nuclear Orientation (Angstroms)
    I     Atom           X                Y                Z
 ----------------------------------------------------------------
    1      C       0.4755864037    -2.4055724263    -0.0586246029
    2      C      -0.6263080346    -1.9615946019     0.9743065418
    3      C      -0.9127446305    -0.4666010002     1.0284919229
    4      C       1.1728056927    -1.2863365682    -0.8129244585
    5      O      -2.1824597665    -0.2221091375     1.4064737286
    6      O      -0.1030994480     0.4053740056     0.8331384428
    7      O       2.3251347751    -0.9482552594    -0.2010619536
    8      O       0.7895996148    -0.8010460409    -1.8472087616
    9      C       3.0027893037     0.1985519660    -0.7445673811
   10      C      -2.5465750653     1.1657933227     1.5399963635
   11      C      -0.3644431687    -3.3173105210    -0.9998446712
   12      C      -0.5606234260    -4.6902600400    -0.3276413153
   13      C      -1.5614350616    -4.3156952675     0.8065792522
   14      C      -1.8243960472    -2.8227198723     0.4984179326
   15      O      -1.6817598688    -2.7496792255    -0.9256082153
   16      H       1.2486961629    -2.9715032227     0.4617387781
   17      H      -0.3184861788    -2.2275398017     1.9901812810
   18      H       2.3527152690     1.0721451305    -0.6808368405
   19      H      -2.4187209132     1.6823485002     0.5880688248
   20      H      -0.0296129920    -3.3235863888    -2.0332953134
   21      H      -1.0068436891    -5.3912507528    -1.0345421987
   22      H       0.3719168425    -5.1230362505     0.0396591623
   23      H      -2.4868157836    -4.8879689917     0.7293185048
   24      H      -1.1541597327    -4.4696826220     1.8083601378
   25      H      -2.7963987207    -2.4420750590     0.7939425337
   26      H       3.8887769875     0.3324954789    -0.1275970816
   27      H       3.2808717826     0.0239254919    -1.7851032637
   28      H      -1.9308033551     1.6490682885     2.2998232171
   29      H      -3.5927144621     1.1614220057     1.8375420533
 ----------------------------------------------------------------

    2    -765.8608197515      3.47E-09 Convergence criterion met
 Total energy in the final basis set = -765.86081975

                    Orbital Energies (a.u.)
 --------------------------------------------------------------

 Alpha MOs
 -- Occupied --
-19.180 -19.163 -19.130 -19.122 -19.106 -10.313 -10.298 -10.233
-10.232 -10.230 -10.217 -10.211 -10.201 -10.181 -10.179  -1.122
 -1.105  -1.062  -1.034  -1.018  -0.829  -0.784  -0.775  -0.736
 -0.723  -0.653  -0.604  -0.595  -0.578  -0.559  -0.544  -0.521
 -0.500  -0.491  -0.487  -0.487  -0.476  -0.467  -0.458  -0.433
 -0.422  -0.416  -0.405  -0.399  -0.380  -0.371  -0.368  -0.365
 -0.359  -0.356  -0.338  -0.335  -0.321  -0.304  -0.290  -0.276
 -0.273

          Ground-State Mulliken Net Atomic Charges

     Atom                 Charge (a.u.)
  ----------------------------------------
      1 C                     0.211660
      2 C                    -0.067974
      3 C                    -0.835994
      4 C                    -0.265981
      5 O                    -0.058281
      6 O                    -0.190240
      7 O                    -0.017569
      8 O                    -0.209337
      9 C                    -0.181964
     10 C                    -0.257947
     11 C                    -0.111315
     12 C                    -0.633997
     13 C                    -0.340322
     14 C                     0.358244
     15 O                    -0.127516
     16 H                     0.297724
     17 H                     0.212272
     18 H                     0.187339
     19 H                     0.192866
     20 H                     0.279980
     21 H                     0.190533
     22 H                     0.117241
     23 H                     0.179528
     24 H                     0.132296
     25 H                     0.305944
     26 H                     0.149124
     27 H                     0.162687
     28 H                     0.174862
     29 H                     0.146135
  ----------------------------------------
  Sum of atomic charges =    -0.000000

                    Cartesian Multipole Moments
 -----------------------------------------------------------------
    Charge (ESU x 10^10)
                -0.0000
    Dipole Moment (Debye)
         X      -0.0476      Y      -1.2251      Z       3.1384
       Tot       3.3694
    Quadrupole Moments (Debye-Ang)
        XX     -81.8260     XY      -2.8991     YY     -76.1140
        XZ      -6.8637     YZ      -2.6677     ZZ     -91.2908

 Frequency:       -22.97                  51.71                  69.53
 Force Cnst:      0.0020                 0.0057                 0.0107
 Red. Mass:       6.2903                 3.5984                 3.7716
 IR Intens:        2.841                  0.162                  2.059
 Frequency:       112.20                 119.07                 133.66
 Force Cnst:      0.0121                 0.0169                 0.0163
 Red. Mass:       1.6264                 2.0245                 1.5525
 IR Intens:        0.043                  2.566                  0.567
 Frequency:       141.00                 156.85                 180.73
 Force Cnst:      0.0279                 0.0398                 0.0798
 Red. Mass:       2.3826                 2.7451                 4.1448
 IR Intens:        0.486                  0.895                  0.686
 Frequency:       219.88                 242.34                 282.56
 Force Cnst:      0.1306                 0.1256                 0.1965
 Red. Mass:       4.5838                 3.6284                 4.1775
 IR Intens:        2.146                  3.915                  4.128
 Frequency:       301.18                 334.02                 335.45
 Force Cnst:      0.1729                 0.2681                 0.2690
 Red. Mass:       3.2353                 4.0789                 4.0573
 IR Intens:       12.498                  2.497                 16.152
 Frequency:       387.94                 453.95                 580.13
 Force Cnst:      0.5326                 0.6073                 0.7682
 Red. Mass:       6.0067                 5.0016                 3.8743
 IR Intens:       13.464                  3.169                 22.232
 Frequency:       591.42                 656.71                 695.23
 Force Cnst:      1.2545                 1.1347                 1.7989
 Red. Mass:       6.0874                 4.4657                 6.3168
 IR Intens:       12.939                  3.424                 14.939
 Frequency:       746.01                 796.77                 804.65
 Force Cnst:      2.2599                 1.1560                 1.3742
 Red. Mass:       6.8921                 3.0907                 3.6023
 IR Intens:        4.119                  7.658                 15.640
 Frequency:       830.80                 850.10                 859.32
 Force Cnst:      1.0703                 1.9660                 1.4553
 Red. Mass:       2.6319                 4.6173                 3.3449
 IR Intens:       14.840                  0.833                  1.749
 Frequency:       893.94                 908.61                 919.85
 Force Cnst:      1.2727                 1.4106                 1.4731
 Red. Mass:       2.7031                 2.8999                 2.9548
 IR Intens:        2.134                 14.152                  5.088
 Frequency:       946.13                 951.20                 977.44
 Force Cnst:      1.7279                 2.7726                 1.4730
 Red. Mass:       3.2762                 5.2010                 2.6168
 IR Intens:       18.755                 21.927                 17.497
 Frequency:       993.43                1014.52                1026.71
 Force Cnst:      2.0774                 2.2967                 1.9658
 Red. Mass:       3.5727                 3.7873                 3.1652
 IR Intens:        4.508                 39.140                 18.513
 Frequency:      1057.60                1065.73                1077.84
 Force Cnst:      1.9763                 2.0577                 1.3670
 Red. Mass:       2.9988                 3.0749                 1.9972
 IR Intens:       15.146                 13.211                 36.676
 Frequency:      1165.89                1169.96                1170.91
 Force Cnst:      0.9773                 1.0898                 1.0353
 Red. Mass:       1.2203                 1.3513                 1.2816
 IR Intens:       35.669                 31.116                  1.012
 Frequency:      1185.30                1195.16                1207.44
 Force Cnst:      1.6702                 1.3487                 1.3095
 Red. Mass:       2.0178                 1.6026                 1.5244
 IR Intens:      187.367                 91.604                  7.878
 Frequency:      1213.85                1231.48                1236.70
 Force Cnst:      1.3937                 1.3216                 1.6556
 Red. Mass:       1.6055                 1.4791                 1.8373
 IR Intens:       88.727                 74.207                134.443
 Frequency:      1241.05                1252.80                1281.21
 Force Cnst:      1.4015                 1.4312                 1.2504
 Red. Mass:       1.5444                 1.5477                 1.2928
 IR Intens:       21.827                 91.879                  4.599
 Frequency:      1291.45                1311.59                1318.40
 Force Cnst:      1.5599                 1.4619                 1.5486
 Red. Mass:       1.5874                 1.4424                 1.5122
 IR Intens:       34.614                 20.268                 30.213
 Frequency:      1345.78                1361.72                1391.84
 Force Cnst:      1.6435                 1.6460                 1.9536
 Red. Mass:       1.5402                 1.5066                 1.7116
 IR Intens:       10.825                  9.754                 93.076
 Frequency:      1467.50                1468.02                1481.83
 Force Cnst:      1.5253                 1.5318                 1.3518
 Red. Mass:       1.2021                 1.2064                 1.0448
 IR Intens:       21.019                 12.062                 11.077
 Frequency:      1483.53                1491.59                1495.78
 Force Cnst:      1.3536                 1.4208                 1.3778
 Red. Mass:       1.0439                 1.0839                 1.0452
 IR Intens:        7.816                  2.324                  4.689
 Frequency:      1496.65                1514.15                1788.05
 Force Cnst:      1.3825                 1.4858                22.3636
 Red. Mass:       1.0475                 1.1000                11.8722
 IR Intens:       13.943                  7.063                268.363
 Frequency:      1797.29                3049.60                3051.79
 Force Cnst:     21.1692                 5.6401                 5.6499
 Red. Mass:      11.1229                 1.0293                 1.0296
 IR Intens:      212.139                 37.221                 34.385
 Frequency:      3055.43                3061.19                3066.33
 Force Cnst:      5.8657                 5.9380                 5.8881
 Red. Mass:       1.0664                 1.0755                 1.0629
 IR Intens:       13.060                 24.700                 30.044
 Frequency:      3092.25                3096.89                3114.43
 Force Cnst:      6.1429                 6.2228                 6.3184
 Red. Mass:       1.0904                 1.1012                 1.1056
 IR Intens:        5.090                  4.583                 41.162
 Frequency:      3125.02                3127.25                3153.20
 Force Cnst:      6.3690                 6.3803                 6.3845
 Red. Mass:       1.1069                 1.1073                 1.0899
 IR Intens:       15.397                 15.980                 13.125
 Frequency:      3154.56                3159.17                3170.69
 Force Cnst:      6.4873                 6.5067                 6.4580
 Red. Mass:       1.1065                 1.1065                 1.0903
 IR Intens:       16.147                 13.243                  6.941

 STANDARD THERMODYNAMIC QUANTITIES AT   298.15 K  AND     1.00 ATM

   This Molecule has  1 Imaginary Frequencies
   Zero point vibrational energy:      149.106 kcal/mol

   Atom    1 Element C  Has Mass   12.00000
   Atom    2 Element C  Has Mass   12.00000
   Atom    3 Element C  Has Mass   12.00000
   Atom    4 Element C  Has Mass   12.00000
   Atom    5 Element O  Has Mass   15.99491
   Atom    6 Element O  Has Mass   15.99491
   Atom    7 Element O  Has Mass   15.99491
   Atom    8 Element O  Has Mass   15.99491
   Atom    9 Element C  Has Mass   12.00000
   Atom   10 Element C  Has Mass   12.00000
   Atom   11 Element C  Has Mass   12.00000
   Atom   12 Element C  Has Mass   12.00000
   Atom   13 Element C  Has Mass   12.00000
   Atom   14 Element C  Has Mass   12.00000
   Atom   15 Element O  Has Mass   15.99491
   Atom   16 Element H  Has Mass    1.00783
   Atom   17 Element H  Has Mass    1.00783
   Atom   18 Element H  Has Mass    1.00783
   Atom   19 Element H  Has Mass    1.00783
   Atom   20 Element H  Has Mass    1.00783
   Atom   21 Element H  Has Mass    1.00783
   Atom   22 Element H  Has Mass    1.00783
   Atom   23 Element H  Has Mass    1.00783
   Atom   24 Element H  Has Mass    1.00783
   Atom   25 Element H  Has Mass    1.00783
   Atom   26 Element H  Has Mass    1.00783
   Atom   27 Element H  Has Mass    1.00783
   Atom   28 Element H  Has Mass    1.00783
   Atom   29 Element H  Has Mass    1.00783
   Molecular Mass:   214.084170 amu
   Principal axes and moments of inertia in amu*Bohr^2:
                             1           2           3
    Eigenvalues --     2562.19070  2929.81274  4759.15799
          X               0.67179    -0.60297     0.43025
          Y               0.72884     0.64175    -0.23863
          Z              -0.13223     0.47389     0.87060
   Rotational Symmetry Number is   1
   The Molecule is an Asymmetric Top
   Translational Enthalpy:        0.889 kcal/mol
   Rotational Enthalpy:           0.889 kcal/mol
   Vibrational Enthalpy:        155.772 kcal/mol
   gas constant (RT):             0.592 kcal/mol
   Translational Entropy:        41.987  cal/mol.K
   Rotational Entropy:           31.946  cal/mol.K
   Vibrational Entropy:          41.551  cal/mol.K

   Total Enthalpy:              158.142 kcal/mol
   Total Entropy:               115.484  cal/mol.K

 Total job time:  5841.40s(wall), 19725.73s(cpu)
        *  Thank you very much for using Q-Chem.  Have a nice day.  *
