 Q-Chem 5.0, Q-Chem, Inc., Pleasanton, CA (2017)
 Q-Chem 5.0.1 for Intel X86 EM64T Linux

User input:
--------------------------------------------------------------
$molecule
0 1
  C      0.41161527     -2.47265020     -0.01050795
  C     -0.52071545     -2.14553877      1.21074141
  C     -0.88443291     -0.69417829      1.45484492
  C      0.99705873     -1.28608247     -0.75403597
  O     -1.20293120     -0.04821913      0.32018180
  O     -0.94137382     -0.19204275      2.55222737
  O      1.67958303     -0.49235745      0.09971569
  O      0.93519517     -1.09557902     -1.94131347
  C      2.27505525      0.68648617     -0.47084672
  C     -1.60786421      1.32486390      0.45304908
  C     -0.51147916     -3.36010383     -0.88177080
  C     -0.59763857     -4.76739568     -0.25450148
  C     -1.48779437     -4.48124850      0.99388779
  C     -1.78327123     -2.97576880      0.80805320
  O     -1.81831461     -2.82501704     -0.61288511
  H      1.27383255     -3.04026960      0.35071162
  H     -0.09303496     -2.50152221      2.14624296
  H      1.51043479      1.30353133     -0.94541359
  H     -0.81432370      1.91326909      0.91683264
  H     -0.30501516     -3.30818797     -1.94660041
  H     -1.09044555     -5.45527187     -0.94269031
  H      0.38090725     -5.18143402     -0.00312500
  H     -2.41587885     -5.05336243      0.96079838
  H     -0.99079016     -4.69801516      1.94140295
  H     -2.71527965     -2.62197659      1.24416547
  H      2.73247588      1.21343561      0.36344586
  H      3.02697232      0.41408063     -1.21314208
  H     -2.51003769      1.39820058      1.06203465
  H     -1.80102900      1.66643450     -0.56123292
$end

$rem
sym_ignore      true
jobtype         opt
method          b3lyp
basis           6-311++G(d,p)
dft_d           d3_op
mem_total       62000
MEM_STATIC      4000
ao2mo_disk      350000
max_scf_cycles  200
geom_opt_max_cycles 1000
geom_opt_tol_displacement 1
GEOM_OPT_TOL_GRADIENT       1
GEOM_OPT_TOL_ENERGY         1
geom_opt_dmax    50
$end

--------------------------------------------------------------

   15    -765.8627860406      3.34E-09 Convergence criterion met
 Total energy in the final basis set = -765.86278604
    8    -765.8627861074      3.17E-09 Convergence criterion met
 Total energy in the final basis set = -765.86278611
    8    -765.8627862656      2.86E-09 Convergence criterion met
 Total energy in the final basis set = -765.86278627
    9    -765.8627853707      2.85E-09 Convergence criterion met
 Total energy in the final basis set = -765.86278537
    8    -765.8627861288      9.54E-09 Convergence criterion met
 Total energy in the final basis set = -765.86278613
    7    -765.8627860629      8.15E-09 Convergence criterion met
 Total energy in the final basis set = -765.86278606
    7    -765.8627861411      5.47E-09 Convergence criterion met
 Total energy in the final basis set = -765.86278614
    6    -765.8627861416      7.64E-09 Convergence criterion met
 Total energy in the final basis set = -765.86278614
    6    -765.8627861509      4.24E-09 Convergence criterion met
 Total energy in the final basis set = -765.86278615
    6    -765.8627861552      4.16E-09 Convergence criterion met
 Total energy in the final basis set = -765.86278616
    5    -765.8627861537      6.18E-09 Convergence criterion met
 Total energy in the final basis set = -765.86278615
 Final energy is   -765.862786153664
 **  OPTIMIZATION CONVERGED  **
 Total job time:  438.87s(wall), 7140.34s(cpu)
        *  Thank you very much for using Q-Chem.  Have a nice day.  *

User input: 2 of 2

r0160.ten.osc.edu 10.25.154
Q-Chem Developer Version! Running on 10.25.154.*
                  Welcome to Q-Chem
     A Quantum Leap Into The Future Of Chemistry

 Q-Chem 5.0, Q-Chem, Inc., Pleasanton, CA (2017)

 Yihan Shao,  Zhengting Gan,  E. Epifanovsky,  A. T. B. Gilbert,  M. Wormit,
 J. Kussmann,  A. W. Lange,  A. Behn,  Jia Deng,  Xintian Feng,  D. Ghosh,
 M. Goldey,  P. R. Horn,  L. D. Jacobson,  I. Kaliman,  T. Kus,  A. Landau,
 Jie Liu,  E. I. Proynov,  R. M. Richard,  R. P. Steele,  E. J. Sundstrom,
 H. L. Woodcock III,  P. M. Zimmerman,  D. Zuev,  B. Albrecht,  E. Alguire,
 S. A. Baeppler,  Z. Benda,  Y. A. Bernard,  E. J. Berquist,  K. B. Bravaya,
 D. Casanova,  Chun-Min Chang,  Yunqing Chen,  A. Chien,  K. D. Closser,
 M. P. Coons,  S. Dasgupta,  M. Diedenhofen,  Hainam Do,  R. G. Edgar,
 Po-Tung Fang,  S. Fatehi,  Qingguo Feng,  Qinghui Ge,  A. Ghysels,
 J. Gomes,  J. Gonthier,  A. Gunina,  M. W. D. Hanson-Heine,
 P. H. P. Harbach,  A. W. Hauser,  J. E. Herr,  E. G. Hohenstein,
 Z. C. Holden,  Kerwin Hui,  T.-C. Jagau,  Hyunjun Ji,  B. Kaduk,
 K. Khistyaev,  Jaehoon Kim,  P. Klunzinger,  K. Koh,  D. Kosenkov,
 T. Kowalczyk,  C. M. Krauter,  A. Kunitsa,  Ka Un Lao,  A. Laurent,
 K. V. Lawler,  Joonho Lee,  D. Lefrancois,  S. Lehtola,  D. S. Levine,
 Yi-Pei Li,  You-Sheng Lin,  Fenglai Liu,  E. Livshits,  A. Luenser,
 P. Manohar,  E. Mansoor,  S. F. Manzer,  Shan-Ping Mao,  Yuezhi Mao,
 N. Mardirossian,  A. V. Marenich,  L. A. Martinez-Martinez,  S. A. Maurer,
 N. J. Mayhall,  S. C. McKenzie,  J.-M. Mewes,  A. F. Morrison,  K. Nanda,
 T. S. Nguyen-Beck,  R. Olivares-Amaya,  J. A. Parkhill,  T. M. Perrine,
 F. Plasser,  S. Prager,  A. Prociuk,  D. R. Rehn,  F. Rob,  M. Schneider,
 N. Sergueev,  S. M. Sharada,  S. Sharma,  D. W. Small,  T. Stauch,
 T. Stein,  Yu-Chuan Su,  A. J. W. Thom,  T. Tsuchimochi,  L. Vogt,
 O. Vydrov,  M. A. Watson,  J. Wenzel,  M. de Wergifosse,  T. A. Wesolowski,
 A. White,  J. Witte,  A. Yamada,  Jun Yang,  K. Yao,  S. Yeganeh,
 S. R. Yost,  Zhi-Qiang You,  A. Zech,  Igor Ying Zhang,  Xing Zhang,
 Yan Zhao,  Ying Zhu,  B. R. Brooks,  G. K. L. Chan,  C. J. Cramer,
 M. S. Gordon,  W. J. Hehre,  A. Klamt,  M. W. Schmidt,  C. D. Sherrill,
 D. G. Truhlar,  A. Aspuru-Guzik,  R. Baer,  A. T. Bell,  N. A. Besley,
 Jeng-Da Chai,  A. Dreuw,  B. D. Dunietz,  T. R. Furlani,  Chao-Ping Hsu,
 Yousung Jung,  Jing Kong,  D. S. Lambrecht,  WanZhen Liang,  C. Ochsenfeld,
 V. A. Rassolov,  L. V. Slipchenko,  J. E. Subotnik,  T. Van Voorhis,
 J. M. Herbert,  A. I. Krylov,  P. M. W. Gill,  M. Head-Gordon

 Contributors to earlier versions of Q-Chem not listed above:
 R. D. Adamson,  B. Austin,  J. Baker,  G. J. O. Beran,  K. Brandhorst,
 S. T. Brown,  E. F. C. Byrd,  A. K. Chakraborty,  C.-L. Cheng,
 Siu Hung Chien,  D. M. Chipman,  D. L. Crittenden,  H. Dachsel,
 R. A. DiStasio Jr.,  R. J. Doerksen,  A. D. Dutoi,  L. Fusti-Molnar,
 W. A. Goddard III,  A. Golubeva-Zadorozhnaya,  S. R. Gwaltney,  G. Hawkins,
 A. Heyden,  S. Hirata,  G. Kedziora,  F. J. Keil,  C. Kelley,  Jihan Kim,
 R. A. King,  R. Z. Khaliullin,  P. P. Korambath,  W. Kurlancheek,
 A. M. Lee,  M. S. Lee,  S. V. Levchenko,  Ching Yeh Lin,  D. Liotard,
 R. C. Lochan,  I. Lotan,  P. E. Maslen,  N. Nair,  D. P. O'Neill,
 D. Neuhauser,  E. Neuscamman,  C. M. Oana,  R. Olson,  B. Peters,
 R. Peverati,  P. A. Pieniazek,  Y. M. Rhee,  J. Ritchie,  M. A. Rohrdanz,
 E. Rosta,  N. J. Russ,  H. F. Schaefer III,  N. E. Schultz,  N. Shenvi,
 A. C. Simmonett,  A. Sodt,  D. Stuck,  K. S. Thanthiriwatte,  V. Vanovschi,
 Tao Wang,  A. Warshel,  C. F. Williams,  Q. Wu,  X. Xu,  W. Zhang

 Please cite Q-Chem as follows:
 Y. Shao et al., Mol. Phys. 113, 184-215 (2015)
 DOI: 10.1080/00268976.2014.952696

 Q-Chem 5.0.1 for Intel X86 EM64T Linux

 Parts of Q-Chem use Armadillo 5.200.1 (Boston Tea Smuggler).
 http://arma.sourceforge.net/

 Q-Chem begins on Tue Oct 17 15:03:08 2017

Host: r0160.ten.osc.edu
0

     Scratch files written to /tmp/pbstmp.1311785/3//
Processing $rem in /users/PAS0291/osu6415/.qchemrc.
molden_format             true
The previous job contains 0 fragments, simply inherited here

Checking the input file for inconsistencies... 	...done.

--------------------------------------------------------------
User input:
--------------------------------------------------------------

$molecule
read
$end

$rem
sym_ignore      true
scf_guess       read
jobtype         freq
method          b3lyp
basis           6-311++G(d,p)
dft_d           d3_op
mem_total       62000
MEM_STATIC      4000
ao2mo_disk      350000
max_scf_cycles  200
$end
--------------------------------------------------------------

             Standard Nuclear Orientation (Angstroms)
    I     Atom           X                Y                Z
 ----------------------------------------------------------------
    1      C       0.4115212334    -2.4724740860    -0.0103468372
    2      C      -0.5208431469    -2.1453670221     1.2108029757
    3      C      -0.8850618649    -0.6941030876     1.4547835419
    4      C       0.9973927202    -1.2860645817    -0.7537940762
    5      O      -1.2022419094    -0.0478229532     0.3199226779
    6      O      -0.9436739008    -0.1923677742     2.5522588662
    7      O       1.6796581820    -0.4922442273     0.1000482361
    8      O       0.9362060624    -1.0959007675    -1.9411713931
    9      C       2.2758882128     0.6861553652    -0.4706360987
   10      C      -1.6084337003     1.3248795420     0.4528488903
   11      C      -0.5115825765    -3.3598217607    -0.8818046026
   12      C      -0.5976588727    -4.7672149837    -0.2548191853
   13      C      -1.4875352344    -4.4812752669     0.9938224920
   14      C      -1.7833042758    -2.9758057534     0.8081351656
   15      O      -1.8184403734    -2.8248946078    -0.6127680945
   16      H       1.2735779008    -3.0403099727     0.3509385964
   17      H      -0.0932088180    -2.5011783298     2.1463927014
   18      H       1.5116337940     1.3037001831    -0.9451600744
   19      H      -0.8135563448     1.9148143994     0.9124593023
   20      H      -0.3051080633    -3.3076446040    -1.9466181761
   21      H      -1.0907271559    -5.4548683333    -0.9430501976
   22      H       0.3808972023    -5.1814311859    -0.0037757436
   23      H      -2.4155082253    -5.0535819277     0.9610190565
   24      H      -0.9901977554    -4.6979368915     1.9411888978
   25      H      -2.7153294879    -2.6222020657     1.2443623792
   26      H       2.7337448485     1.2128684207     0.3635688747
   27      H       3.0275283791     0.4132273989    -1.2130166641
   28      H      -2.5079722184     1.3978986483     1.0656981105
   29      H      -1.8061846217     1.6650462549    -0.5610196411
 ----------------------------------------------------------------

    2    -765.8627861573      4.09E-09 Convergence criterion met
 Total energy in the final basis set = -765.86278616

                    Orbital Energies (a.u.)
 --------------------------------------------------------------

 Alpha MOs
 -- Occupied --
-19.176 -19.174 -19.132 -19.120 -19.116 -10.310 -10.307 -10.240
-10.232 -10.232 -10.230 -10.208 -10.207 -10.183 -10.182  -1.121
 -1.114  -1.065  -1.032  -1.028  -0.833  -0.786  -0.777  -0.739
 -0.730  -0.659  -0.608  -0.597  -0.577  -0.567  -0.551  -0.520
 -0.506  -0.496  -0.489  -0.484  -0.477  -0.473  -0.462  -0.432
 -0.427  -0.425  -0.411  -0.399  -0.385  -0.376  -0.372  -0.368
 -0.363  -0.358  -0.339  -0.338  -0.320  -0.314  -0.291  -0.282
 -0.276

          Ground-State Mulliken Net Atomic Charges

     Atom                 Charge (a.u.)
  ----------------------------------------
      1 C                    -0.056993
      2 C                     0.640818
      3 C                    -0.774433
      4 C                    -0.521387
      5 O                    -0.025957
      6 O                    -0.176926
      7 O                    -0.017972
      8 O                    -0.209582
      9 C                    -0.204332
     10 C                    -0.224366
     11 C                    -0.043765
     12 C                    -0.503042
     13 C                    -0.451440
     14 C                    -0.021358
     15 O                    -0.139331
     16 H                     0.235659
     17 H                     0.283703
     18 H                     0.180108
     19 H                     0.185442
     20 H                     0.279911
     21 H                     0.189376
     22 H                     0.124897
     23 H                     0.183709
     24 H                     0.125514
     25 H                     0.257679
     26 H                     0.162205
     27 H                     0.174556
     28 H                     0.176556
     29 H                     0.170751
  ----------------------------------------
  Sum of atomic charges =     0.000000

                    Cartesian Multipole Moments
 -----------------------------------------------------------------
    Charge (ESU x 10^10)
                 0.0000
    Dipole Moment (Debye)
         X       1.1498      Y      -0.5892      Z       0.5096
       Tot       1.3889
    Quadrupole Moments (Debye-Ang)
        XX     -84.8122     XY      -0.7523     YY     -72.0162
        XZ      -0.9120     YZ      -6.0937     ZZ    -102.9399

 Frequency:        42.82                  57.89                  73.13
 Force Cnst:      0.0055                 0.0088                 0.0107
 Red. Mass:       5.0659                 4.4503                 3.3807
 IR Intens:        2.648                  0.854                  0.025
 Frequency:        84.28                 110.15                 139.90
 Force Cnst:      0.0323                 0.0212                 0.0344
 Red. Mass:       7.7083                 2.9634                 2.9863
 IR Intens:        1.185                  3.021                  2.700
 Frequency:       141.00                 170.52                 188.26
 Force Cnst:      0.0144                 0.0344                 0.0310
 Red. Mass:       1.2260                 2.0091                 1.4852
 IR Intens:        0.413                  0.625                  0.254
 Frequency:       234.92                 252.28                 276.33
 Force Cnst:      0.1639                 0.1474                 0.2009
 Red. Mass:       5.0415                 3.9320                 4.4651
 IR Intens:        0.755                  8.354                  4.771
 Frequency:       292.15                 327.15                 336.70
 Force Cnst:      0.1469                 0.2229                 0.2479
 Red. Mass:       2.9212                 3.5344                 3.7113
 IR Intens:        4.548                  2.202                  3.364
 Frequency:       379.90                 467.55                 565.62
 Force Cnst:      0.6708                 0.7709                 0.7614
 Red. Mass:       7.8892                 5.9857                 4.0393
 IR Intens:       14.317                  9.764                 23.185
 Frequency:       626.49                 654.37                 705.48
 Force Cnst:      1.4336                 1.0930                 1.8512
 Red. Mass:       6.1994                 4.3323                 6.3129
 IR Intens:        9.729                  1.410                  2.273
 Frequency:       735.05                 799.55                 813.88
 Force Cnst:      1.7340                 1.8224                 1.0362
 Red. Mass:       5.4470                 4.8385                 2.6552
 IR Intens:        6.537                 14.505                 11.402
 Frequency:       825.32                 841.00                 860.73
 Force Cnst:      1.9375                 0.9277                 2.2638
 Red. Mass:       4.8277                 2.2262                 5.1863
 IR Intens:       10.267                  5.056                  1.138
 Frequency:       891.88                 903.02                 914.36
 Force Cnst:      1.4955                 1.3529                 1.5412
 Red. Mass:       3.1910                 2.8160                 3.1287
 IR Intens:        0.354                  5.570                 10.369
 Frequency:       938.25                 955.32                 968.26
 Force Cnst:      1.5620                 1.6177                 2.1746
 Red. Mass:       3.0116                 3.0086                 3.9367
 IR Intens:       31.858                  5.245                 19.200
 Frequency:       982.71                1021.21                1030.90
 Force Cnst:      1.3739                 3.5418                 1.6208
 Red. Mass:       2.4147                 5.7643                 2.5885
 IR Intens:       15.600                 42.424                 16.713
 Frequency:      1061.98                1069.60                1074.90
 Force Cnst:      2.1212                 2.6291                 1.3646
 Red. Mass:       3.1922                 3.9004                 2.0046
 IR Intens:       36.237                 22.516                 28.404
 Frequency:      1162.64                1171.22                1172.98
 Force Cnst:      0.9699                 1.0354                 1.0413
 Red. Mass:       1.2179                 1.2811                 1.2846
 IR Intens:       48.217                  0.371                  2.057
 Frequency:      1196.30                1206.44                1208.70
 Force Cnst:      1.7318                 1.3000                 1.2866
 Red. Mass:       2.0538                 1.5159                 1.4947
 IR Intens:       90.793                  7.693                 11.101
 Frequency:      1215.63                1231.02                1239.52
 Force Cnst:      1.5432                 1.0754                 1.3719
 Red. Mass:       1.7724                 1.2044                 1.5155
 IR Intens:      123.726                 14.975                 56.308
 Frequency:      1245.46                1274.95                1285.50
 Force Cnst:      1.5392                 1.9464                 1.4825
 Red. Mass:       1.6842                 2.0323                 1.5227
 IR Intens:       38.754                196.934                 67.667
 Frequency:      1294.87                1309.00                1315.57
 Force Cnst:      1.5926                 1.3646                 1.4827
 Red. Mass:       1.6121                 1.3517                 1.4540
 IR Intens:       58.518                 20.797                  9.385
 Frequency:      1353.07                1362.14                1378.26
 Force Cnst:      1.6158                 1.5819                 1.9819
 Red. Mass:       1.4979                 1.4471                 1.7708
 IR Intens:       11.016                  0.875                 36.550
 Frequency:      1468.87                1469.47                1483.28
 Force Cnst:      1.5327                 1.5200                 1.3552
 Red. Mass:       1.2057                 1.1948                 1.0454
 IR Intens:        6.796                 22.002                  5.402
 Frequency:      1486.74                1493.91                1494.66
 Force Cnst:      1.3607                 1.4241                 1.3780
 Red. Mass:       1.0448                 1.0830                 1.0469
 IR Intens:       10.599                  1.760                 16.169
 Frequency:      1500.53                1516.54                1779.38
 Force Cnst:      1.3898                 1.4907                20.1258
 Red. Mass:       1.0476                 1.1001                10.7886
 IR Intens:        4.425                  7.755                306.166
 Frequency:      1798.21                3048.16                3049.05
 Force Cnst:     22.4074                 5.6381                 5.6422
 Red. Mass:      11.7615                 1.0299                 1.0301
 IR Intens:      247.502                 13.322                 51.579
 Frequency:      3056.79                3062.74                3069.09
 Force Cnst:      5.8786                 5.9330                 5.8974
 Red. Mass:       1.0678                 1.0735                 1.0627
 IR Intens:       10.691                 21.319                 34.399
 Frequency:      3097.39                3114.50                3120.19
 Force Cnst:      6.2605                 6.3055                 6.3490
 Red. Mass:       1.1076                 1.1033                 1.1069
 IR Intens:        0.597                 24.060                 31.405
 Frequency:      3122.07                3123.83                3129.93
 Force Cnst:      6.3578                 6.2644                 6.2903
 Red. Mass:       1.1071                 1.0896                 1.0898
 IR Intens:        8.888                 19.150                 21.650
 Frequency:      3158.46                3159.06                3160.80
 Force Cnst:      6.5017                 6.5030                 6.4193
 Red. Mass:       1.1062                 1.1060                 1.0905
 IR Intens:        7.468                 12.384                  6.870

 STANDARD THERMODYNAMIC QUANTITIES AT   298.15 K  AND     1.00 ATM

   This Molecule has  0 Imaginary Frequencies
   Zero point vibrational energy:      149.250 kcal/mol

   Atom    1 Element C  Has Mass   12.00000
   Atom    2 Element C  Has Mass   12.00000
   Atom    3 Element C  Has Mass   12.00000
   Atom    4 Element C  Has Mass   12.00000
   Atom    5 Element O  Has Mass   15.99491
   Atom    6 Element O  Has Mass   15.99491
   Atom    7 Element O  Has Mass   15.99491
   Atom    8 Element O  Has Mass   15.99491
   Atom    9 Element C  Has Mass   12.00000
   Atom   10 Element C  Has Mass   12.00000
   Atom   11 Element C  Has Mass   12.00000
   Atom   12 Element C  Has Mass   12.00000
   Atom   13 Element C  Has Mass   12.00000
   Atom   14 Element C  Has Mass   12.00000
   Atom   15 Element O  Has Mass   15.99491
   Atom   16 Element H  Has Mass    1.00783
   Atom   17 Element H  Has Mass    1.00783
   Atom   18 Element H  Has Mass    1.00783
   Atom   19 Element H  Has Mass    1.00783
   Atom   20 Element H  Has Mass    1.00783
   Atom   21 Element H  Has Mass    1.00783
   Atom   22 Element H  Has Mass    1.00783
   Atom   23 Element H  Has Mass    1.00783
   Atom   24 Element H  Has Mass    1.00783
   Atom   25 Element H  Has Mass    1.00783
   Atom   26 Element H  Has Mass    1.00783
   Atom   27 Element H  Has Mass    1.00783
   Atom   28 Element H  Has Mass    1.00783
   Atom   29 Element H  Has Mass    1.00783
   Molecular Mass:   214.084170 amu
   Principal axes and moments of inertia in amu*Bohr^2:
                             1           2           3
    Eigenvalues --     2051.68387  3219.59171  4237.19548
          X               0.36981     0.69285     0.61903
          Y               0.92901    -0.28539    -0.23557
          Z              -0.01345    -0.66220     0.74921
   Rotational Symmetry Number is   1
   The Molecule is an Asymmetric Top
   Translational Enthalpy:        0.889 kcal/mol
   Rotational Enthalpy:           0.889 kcal/mol
   Vibrational Enthalpy:        156.438 kcal/mol
   gas constant (RT):             0.592 kcal/mol
   Translational Entropy:        41.987  cal/mol.K
   Rotational Entropy:           31.704  cal/mol.K
   Vibrational Entropy:          46.633  cal/mol.K

   Total Enthalpy:              158.808 kcal/mol
   Total Entropy:               120.324  cal/mol.K

 Total job time:  5952.73s(wall), 20518.07s(cpu)
        *  Thank you very much for using Q-Chem.  Have a nice day.  *
