 Q-Chem 5.0, Q-Chem, Inc., Pleasanton, CA (2017)
 Q-Chem 5.0.1 for Intel X86 EM64T Linux

User input:
--------------------------------------------------------------
$molecule
0 1
  C      0.49548120     -2.23273060      0.42068944
  C     -0.77417109     -2.11711866      1.33562155
  C     -1.20275678     -0.70995344      1.72759601
  C      1.07601714     -0.92802626     -0.10582510
  O     -1.96525410     -0.13254101      0.77938776
  O     -0.93733143     -0.20041218      2.79386554
  O      2.01598684     -1.19495805     -1.04188570
  O      0.80370019      0.19565270      0.25202718
  C      2.65924966     -0.04076219     -1.61088223
  C     -2.28784769      1.24476097      1.02109233
  C     -0.05454500     -3.13017915     -0.72857964
  C     -0.26753015     -4.57451884     -0.21858026
  C     -1.57317733     -4.40605584      0.61651108
  C     -1.81642100     -2.88899570      0.46970015
  O     -1.38798349     -2.63374863     -0.87755018
  H      1.31575459     -2.73192782      0.94816057
  H     -0.58688993     -2.62728478      2.28291259
  H      3.16218667      0.54059733     -0.83313722
  H     -1.36720899      1.83273192      1.06628468
  H      0.48899074     -3.03561222     -1.66726865
  H     -0.41629271     -5.25375419     -1.06235012
  H      0.57934215     -4.94479699      0.36773115
  H     -2.40243887     -4.96382479      0.17273685
  H     -1.46809560     -4.72258410      1.65852535
  H     -2.84511968     -2.55375937      0.59362332
  H      3.38135446     -0.43198080     -2.32816171
  H      1.92509579      0.59712160     -2.11107488
  H     -2.83644947      1.35737512      1.96060427
  H     -2.90315364      1.55458714      0.17540852
$end

$rem
sym_ignore      true
jobtype         ts
method          b3lyp
basis           6-311++G(d,p)
dft_d           d3_op
mem_total       62000
MEM_STATIC      4000
ao2mo_disk      350000
max_scf_cycles  200
geom_opt_max_cycles 1000
geom_opt_tol_displacement 1
GEOM_OPT_TOL_GRADIENT       1
GEOM_OPT_TOL_ENERGY         1
geom_opt_dmax    50
$end

--------------------------------------------------------------

   15    -765.8595510839      3.42E-09 Convergence criterion met
 Total energy in the final basis set = -765.85955108
   10    -765.8595419052      8.31E-09 Convergence criterion met
 Total energy in the final basis set = -765.85954191
   10    -765.8596420703      7.05E-09 Convergence criterion met
 Total energy in the final basis set = -765.85964207
   11    -765.8597545465      4.69E-09 Convergence criterion met
 Total energy in the final basis set = -765.85975455
   11    -765.8598497252      4.13E-09 Convergence criterion met
 Total energy in the final basis set = -765.85984973
   10    -765.8598812065      9.84E-09 Convergence criterion met
 Total energy in the final basis set = -765.85988121
   10    -765.8599084442      6.60E-09 Convergence criterion met
 Total energy in the final basis set = -765.85990844
   10    -765.8599251285      9.03E-09 Convergence criterion met
    8    -765.8599095109      1.98E-09 Convergence criterion met
 Total energy in the final basis set = -765.85990951
    7    -765.8599095224      6.88E-09 Convergence criterion met
 Total energy in the final basis set = -765.85990952
    7    -765.8599095637      5.39E-09 Convergence criterion met
 Total energy in the final basis set = -765.85990956
    8    -765.8599093915      3.32E-09 Convergence criterion met
 Total energy in the final basis set = -765.85990939
    8    -765.8599095384      2.63E-09 Convergence criterion met
 Total energy in the final basis set = -765.85990954
    4    -765.8599095349      5.16E-09 Convergence criterion met
 Total energy in the final basis set = -765.85990953
 Final energy is   -765.859909534928
 **  OPTIMIZATION CONVERGED  **
 Total job time:  1477.45s(wall), 24967.52s(cpu)
        *  Thank you very much for using Q-Chem.  Have a nice day.  *

User input: 2 of 2

r0110.ten.osc.edu 10.25.153
Q-Chem Developer Version! Running on 10.25.153.*
                  Welcome to Q-Chem
     A Quantum Leap Into The Future Of Chemistry

 Q-Chem 5.0, Q-Chem, Inc., Pleasanton, CA (2017)

 Yihan Shao,  Zhengting Gan,  E. Epifanovsky,  A. T. B. Gilbert,  M. Wormit,
 J. Kussmann,  A. W. Lange,  A. Behn,  Jia Deng,  Xintian Feng,  D. Ghosh,
 M. Goldey,  P. R. Horn,  L. D. Jacobson,  I. Kaliman,  T. Kus,  A. Landau,
 Jie Liu,  E. I. Proynov,  R. M. Richard,  R. P. Steele,  E. J. Sundstrom,
 H. L. Woodcock III,  P. M. Zimmerman,  D. Zuev,  B. Albrecht,  E. Alguire,
 S. A. Baeppler,  Z. Benda,  Y. A. Bernard,  E. J. Berquist,  K. B. Bravaya,
 D. Casanova,  Chun-Min Chang,  Yunqing Chen,  A. Chien,  K. D. Closser,
 M. P. Coons,  S. Dasgupta,  M. Diedenhofen,  Hainam Do,  R. G. Edgar,
 Po-Tung Fang,  S. Fatehi,  Qingguo Feng,  Qinghui Ge,  A. Ghysels,
 J. Gomes,  J. Gonthier,  A. Gunina,  M. W. D. Hanson-Heine,
 P. H. P. Harbach,  A. W. Hauser,  J. E. Herr,  E. G. Hohenstein,
 Z. C. Holden,  Kerwin Hui,  T.-C. Jagau,  Hyunjun Ji,  B. Kaduk,
 K. Khistyaev,  Jaehoon Kim,  P. Klunzinger,  K. Koh,  D. Kosenkov,
 T. Kowalczyk,  C. M. Krauter,  A. Kunitsa,  Ka Un Lao,  A. Laurent,
 K. V. Lawler,  Joonho Lee,  D. Lefrancois,  S. Lehtola,  D. S. Levine,
 Yi-Pei Li,  You-Sheng Lin,  Fenglai Liu,  E. Livshits,  A. Luenser,
 P. Manohar,  E. Mansoor,  S. F. Manzer,  Shan-Ping Mao,  Yuezhi Mao,
 N. Mardirossian,  A. V. Marenich,  L. A. Martinez-Martinez,  S. A. Maurer,
 N. J. Mayhall,  S. C. McKenzie,  J.-M. Mewes,  A. F. Morrison,  K. Nanda,
 T. S. Nguyen-Beck,  R. Olivares-Amaya,  J. A. Parkhill,  T. M. Perrine,
 F. Plasser,  S. Prager,  A. Prociuk,  D. R. Rehn,  F. Rob,  M. Schneider,
 N. Sergueev,  S. M. Sharada,  S. Sharma,  D. W. Small,  T. Stauch,
 T. Stein,  Yu-Chuan Su,  A. J. W. Thom,  T. Tsuchimochi,  L. Vogt,
 O. Vydrov,  M. A. Watson,  J. Wenzel,  M. de Wergifosse,  T. A. Wesolowski,
 A. White,  J. Witte,  A. Yamada,  Jun Yang,  K. Yao,  S. Yeganeh,
 S. R. Yost,  Zhi-Qiang You,  A. Zech,  Igor Ying Zhang,  Xing Zhang,
 Yan Zhao,  Ying Zhu,  B. R. Brooks,  G. K. L. Chan,  C. J. Cramer,
 M. S. Gordon,  W. J. Hehre,  A. Klamt,  M. W. Schmidt,  C. D. Sherrill,
 D. G. Truhlar,  A. Aspuru-Guzik,  R. Baer,  A. T. Bell,  N. A. Besley,
 Jeng-Da Chai,  A. Dreuw,  B. D. Dunietz,  T. R. Furlani,  Chao-Ping Hsu,
 Yousung Jung,  Jing Kong,  D. S. Lambrecht,  WanZhen Liang,  C. Ochsenfeld,
 V. A. Rassolov,  L. V. Slipchenko,  J. E. Subotnik,  T. Van Voorhis,
 J. M. Herbert,  A. I. Krylov,  P. M. W. Gill,  M. Head-Gordon

 Contributors to earlier versions of Q-Chem not listed above:
 R. D. Adamson,  B. Austin,  J. Baker,  G. J. O. Beran,  K. Brandhorst,
 S. T. Brown,  E. F. C. Byrd,  A. K. Chakraborty,  C.-L. Cheng,
 Siu Hung Chien,  D. M. Chipman,  D. L. Crittenden,  H. Dachsel,
 R. A. DiStasio Jr.,  R. J. Doerksen,  A. D. Dutoi,  L. Fusti-Molnar,
 W. A. Goddard III,  A. Golubeva-Zadorozhnaya,  S. R. Gwaltney,  G. Hawkins,
 A. Heyden,  S. Hirata,  G. Kedziora,  F. J. Keil,  C. Kelley,  Jihan Kim,
 R. A. King,  R. Z. Khaliullin,  P. P. Korambath,  W. Kurlancheek,
 A. M. Lee,  M. S. Lee,  S. V. Levchenko,  Ching Yeh Lin,  D. Liotard,
 R. C. Lochan,  I. Lotan,  P. E. Maslen,  N. Nair,  D. P. O'Neill,
 D. Neuhauser,  E. Neuscamman,  C. M. Oana,  R. Olson,  B. Peters,
 R. Peverati,  P. A. Pieniazek,  Y. M. Rhee,  J. Ritchie,  M. A. Rohrdanz,
 E. Rosta,  N. J. Russ,  H. F. Schaefer III,  N. E. Schultz,  N. Shenvi,
 A. C. Simmonett,  A. Sodt,  D. Stuck,  K. S. Thanthiriwatte,  V. Vanovschi,
 Tao Wang,  A. Warshel,  C. F. Williams,  Q. Wu,  X. Xu,  W. Zhang

 Please cite Q-Chem as follows:
 Y. Shao et al., Mol. Phys. 113, 184-215 (2015)
 DOI: 10.1080/00268976.2014.952696

 Q-Chem 5.0.1 for Intel X86 EM64T Linux

 Parts of Q-Chem use Armadillo 5.200.1 (Boston Tea Smuggler).
 http://arma.sourceforge.net/

 Q-Chem begins on Tue Oct 17 10:58:59 2017

Host: r0110.ten.osc.edu
0

     Scratch files written to /tmp/pbstmp.1311482/15//
Processing $rem in /users/PAS0291/osu6415/.qchemrc.
molden_format             true
The previous job contains 0 fragments, simply inherited here

Checking the input file for inconsistencies... 	...done.

--------------------------------------------------------------
User input:
--------------------------------------------------------------

$molecule
read
$end

$rem
sym_ignore      true
scf_guess       read
jobtype         freq
method          b3lyp
basis           6-311++G(d,p)
dft_d           d3_op
mem_total       62000
MEM_STATIC      4000
ao2mo_disk      350000
max_scf_cycles  200
$end

--------------------------------------------------------------

             Standard Nuclear Orientation (Angstroms)
    I     Atom           X                Y                Z
 ----------------------------------------------------------------
    1      C       0.4987788044    -2.2354815879     0.4204639228
    2      C      -0.7833985307    -2.1163673930     1.3187495834
    3      C      -1.2158960316    -0.7164946268     1.7277683815
    4      C       1.0968742902    -0.9316644613    -0.0861984328
    5      O      -1.9265383264    -0.1025350137     0.7675157779
    6      O      -1.0010195781    -0.2461683391     2.8183669238
    7      O       1.9543777638    -1.1749535100    -1.1008685406
    8      O       0.9023393208     0.1696517102     0.3611713261
    9      C       2.6297822438    -0.0258212982    -1.6479491097
   10      C      -2.2810605774     1.2663775875     1.0270932304
   11      C      -0.0280752203    -3.1503565106    -0.7217868345
   12      C      -0.2540854503    -4.5834748697    -0.1892251245
   13      C      -1.5781422148    -4.4024840703     0.6139475306
   14      C      -1.8161403482    -2.8889571710     0.4416696125
   15      O      -1.3602145257    -2.6550635668    -0.9007008564
   16      H       1.3061090330    -2.7264869932     0.9713823180
   17      H      -0.6100908741    -2.6360763790     2.2607184267
   18      H       3.2159092791     0.4752861134    -0.8763181852
   19      H      -1.3758954405     1.8629252954     1.1487809474
   20      H       0.5284860233    -3.0725563391    -1.6503215062
   21      H      -0.3829513623    -5.2784562729    -1.0200520230
   22      H       0.5777389998    -4.9398059634     0.4220575599
   23      H      -2.3958450604    -4.9660423157     0.1620908882
   24      H      -1.4955517610    -4.7013861384     1.6605046249
   25      H      -2.8431227150    -2.5493328572     0.5418478613
   26      H       3.2767346912    -0.4164479491    -2.4300995911
   27      H       1.9056459311     0.6763894908    -2.0634662976
   28      H      -2.8928730527     1.3426140194     1.9273367363
   29      H      -2.8413828310     1.5904705798     0.1527034998
 ----------------------------------------------------------------

    2    -765.8599095375      4.15E-09 Convergence criterion met
 Total energy in the final basis set = -765.85990954

                    Orbital Energies (a.u.)
 --------------------------------------------------------------

 Alpha MOs
 -- Occupied --
-19.180 -19.161 -19.133 -19.124 -19.104 -10.314 -10.297 -10.236
-10.234 -10.234 -10.217 -10.211 -10.201 -10.183 -10.181  -1.122
 -1.104  -1.065  -1.035  -1.016  -0.830  -0.786  -0.778  -0.737
 -0.721  -0.655  -0.605  -0.597  -0.580  -0.564  -0.545  -0.518
 -0.503  -0.493  -0.488  -0.485  -0.476  -0.465  -0.459  -0.435
 -0.423  -0.411  -0.407  -0.404  -0.378  -0.372  -0.369  -0.367
 -0.360  -0.356  -0.341  -0.339  -0.322  -0.301  -0.293  -0.278
 -0.270

          Ground-State Mulliken Net Atomic Charges

     Atom                 Charge (a.u.)
  ----------------------------------------
      1 C                    -0.153586
      2 C                     0.367912
      3 C                    -0.387791
      4 C                    -0.736850
      5 O                    -0.029825
      6 O                    -0.200299
      7 O                    -0.060829
      8 O                    -0.209070
      9 C                    -0.252515
     10 C                    -0.207303
     11 C                     0.300690
     12 C                    -0.320316
     13 C                    -0.697755
     14 C                    -0.018946
     15 O                    -0.117626
     16 H                     0.226594
     17 H                     0.285731
     18 H                     0.177510
     19 H                     0.190662
     20 H                     0.293646
     21 H                     0.181882
     22 H                     0.132532
     23 H                     0.186448
     24 H                     0.118524
     25 H                     0.276098
     26 H                     0.147234
     27 H                     0.187322
     28 H                     0.164687
     29 H                     0.155239
  ----------------------------------------
  Sum of atomic charges =    -0.000000

                    Cartesian Multipole Moments
 -----------------------------------------------------------------
    Charge (ESU x 10^10)
                -0.0000
    Dipole Moment (Debye)
         X       1.1510      Y      -1.9392      Z      -1.9806
       Tot       3.0014
    Quadrupole Moments (Debye-Ang)
        XX     -80.6333     XY      -2.1357     YY     -75.6582
        XZ      -5.2667     YZ      -5.7929     ZZ     -97.0601

 Frequency:       -39.38                  49.87                  82.61
 Force Cnst:      0.0040                 0.0051                 0.0087
 Red. Mass:       4.4043                 3.4636                 2.1751
 IR Intens:        0.829                  0.947                  1.978
 Frequency:       100.50                 109.10                 128.64
 Force Cnst:      0.0117                 0.0248                 0.0293
 Red. Mass:       1.9645                 3.5383                 3.0070
 IR Intens:        0.224                  3.541                  2.206
 Frequency:       148.19                 156.63                 167.90
 Force Cnst:      0.0223                 0.0313                 0.0459
 Red. Mass:       1.7257                 2.1623                 2.7646
 IR Intens:        0.017                  0.517                  0.618
 Frequency:       224.09                 239.98                 290.74
 Force Cnst:      0.1493                 0.1396                 0.1570
 Red. Mass:       5.0467                 4.1142                 3.1514
 IR Intens:        2.470                  3.502                  6.248
 Frequency:       305.82                 336.77                 339.69
 Force Cnst:      0.1923                 0.2590                 0.2844
 Red. Mass:       3.4898                 3.8763                 4.1840
 IR Intens:       10.920                  1.718                 22.820
 Frequency:       396.63                 444.57                 578.90
 Force Cnst:      0.8410                 0.5630                 1.0389
 Red. Mass:       9.0733                 4.8352                 5.2616
 IR Intens:        4.131                  0.463                 26.197
 Frequency:       597.16                 654.39                 697.23
 Force Cnst:      0.9587                 1.0641                 1.7309
 Red. Mass:       4.5627                 4.2176                 6.0434
 IR Intens:        8.586                  1.220                 16.646
 Frequency:       740.06                 796.93                 804.22
 Force Cnst:      2.2635                 1.3734                 1.3815
 Red. Mass:       7.0144                 3.6703                 3.6254
 IR Intens:        5.528                 16.053                 11.800
 Frequency:       829.88                 844.06                 846.61
 Force Cnst:      1.2197                 1.7643                 1.1105
 Red. Mass:       3.0058                 4.2030                 2.6297
 IR Intens:        9.909                  3.452                  2.073
 Frequency:       892.46                 905.57                 932.60
 Force Cnst:      1.7143                 1.3351                 1.3806
 Red. Mass:       3.6530                 2.7632                 2.6941
 IR Intens:        1.540                 10.042                  1.419
 Frequency:       944.98                 953.37                 974.23
 Force Cnst:      1.9725                 2.1607                 1.8689
 Red. Mass:       3.7491                 4.0347                 3.3420
 IR Intens:       32.210                 10.834                  2.159
 Frequency:       977.21                1018.90                1024.47
 Force Cnst:      1.4017                 1.9604                 2.3896
 Red. Mass:       2.4914                 3.2051                 3.8643
 IR Intens:       15.721                 24.295                 29.507
 Frequency:      1055.79                1069.91                1076.04
 Force Cnst:      2.1627                 2.4169                 1.4547
 Red. Mass:       3.2929                 3.5836                 2.1323
 IR Intens:        4.656                 60.843                 52.603
 Frequency:      1162.81                1170.89                1171.29
 Force Cnst:      0.9927                 1.0422                 1.0353
 Red. Mass:       1.2461                 1.2902                 1.2808
 IR Intens:       52.855                  6.035                  1.205
 Frequency:      1192.37                1207.25                1210.82
 Force Cnst:      1.5213                 1.2912                 1.2780
 Red. Mass:       1.8161                 1.5036                 1.4796
 IR Intens:      169.596                  0.444                  4.416
 Frequency:      1226.79                1232.28                1237.74
 Force Cnst:      1.5339                 1.2591                 1.4563
 Red. Mass:       1.7299                 1.4073                 1.6134
 IR Intens:      148.314                 31.199                 51.035
 Frequency:      1253.11                1272.67                1287.40
 Force Cnst:      1.2126                 2.1192                 1.4627
 Red. Mass:       1.3106                 2.2207                 1.4979
 IR Intens:        6.454                170.625                 75.469
 Frequency:      1297.63                1313.08                1315.60
 Force Cnst:      1.6880                 1.3922                 1.4562
 Red. Mass:       1.7014                 1.3705                 1.4280
 IR Intens:       62.534                 27.228                  8.714
 Frequency:      1351.35                1365.50                1368.88
 Force Cnst:      1.6678                 1.6468                 1.7022
 Red. Mass:       1.5501                 1.4990                 1.5418
 IR Intens:       18.748                  4.310                 19.543
 Frequency:      1468.39                1469.31                1482.46
 Force Cnst:      1.5350                 1.5059                 1.3531
 Red. Mass:       1.2083                 1.1839                 1.0450
 IR Intens:       16.201                 10.368                  8.998
 Frequency:      1484.08                1492.52                1496.85
 Force Cnst:      1.3548                 1.4219                 1.3818
 Red. Mass:       1.0440                 1.0834                 1.0468
 IR Intens:        9.115                  1.951                 12.666
 Frequency:      1497.49                1515.46                1782.57
 Force Cnst:      1.3829                 1.4875                20.1600
 Red. Mass:       1.0467                 1.0993                10.7683
 IR Intens:        6.274                  7.607                227.365
 Frequency:      1797.77                3049.30                3051.30
 Force Cnst:     22.6481                 5.6387                 5.6482
 Red. Mass:      11.8935                 1.0293                 1.0297
 IR Intens:      334.756                 37.754                 34.989
 Frequency:      3058.69                3064.67                3069.21
 Force Cnst:      5.8533                 5.9649                 5.9003
 Red. Mass:       1.0619                 1.0779                 1.0631
 IR Intens:       17.279                 17.966                 31.897
 Frequency:      3096.55                3105.71                3116.63
 Force Cnst:      6.2529                 6.1857                 6.3206
 Red. Mass:       1.1068                 1.0885                 1.1044
 IR Intens:        0.265                  6.453                 38.854
 Frequency:      3124.34                3124.52                3152.68
 Force Cnst:      6.3677                 6.3673                 6.3811
 Red. Mass:       1.1072                 1.1070                 1.0896
 IR Intens:       18.487                 14.530                 18.370
 Frequency:      3154.75                3158.44                3164.27
 Force Cnst:      6.4879                 6.5023                 6.4343
 Red. Mass:       1.1064                 1.1063                 1.0907
 IR Intens:       13.789                 13.510                  6.711

 STANDARD THERMODYNAMIC QUANTITIES AT   298.15 K  AND     1.00 ATM

   This Molecule has  1 Imaginary Frequencies
   Zero point vibrational energy:      149.179 kcal/mol

   Atom    1 Element C  Has Mass   12.00000
   Atom    2 Element C  Has Mass   12.00000
   Atom    3 Element C  Has Mass   12.00000
   Atom    4 Element C  Has Mass   12.00000
   Atom    5 Element O  Has Mass   15.99491
   Atom    6 Element O  Has Mass   15.99491
   Atom    7 Element O  Has Mass   15.99491
   Atom    8 Element O  Has Mass   15.99491
   Atom    9 Element C  Has Mass   12.00000
   Atom   10 Element C  Has Mass   12.00000
   Atom   11 Element C  Has Mass   12.00000
   Atom   12 Element C  Has Mass   12.00000
   Atom   13 Element C  Has Mass   12.00000
   Atom   14 Element C  Has Mass   12.00000
   Atom   15 Element O  Has Mass   15.99491
   Atom   16 Element H  Has Mass    1.00783
   Atom   17 Element H  Has Mass    1.00783
   Atom   18 Element H  Has Mass    1.00783
   Atom   19 Element H  Has Mass    1.00783
   Atom   20 Element H  Has Mass    1.00783
   Atom   21 Element H  Has Mass    1.00783
   Atom   22 Element H  Has Mass    1.00783
   Atom   23 Element H  Has Mass    1.00783
   Atom   24 Element H  Has Mass    1.00783
   Atom   25 Element H  Has Mass    1.00783
   Atom   26 Element H  Has Mass    1.00783
   Atom   27 Element H  Has Mass    1.00783
   Atom   28 Element H  Has Mass    1.00783
   Atom   29 Element H  Has Mass    1.00783
   Molecular Mass:   214.084170 amu
   Principal axes and moments of inertia in amu*Bohr^2:
                             1           2           3
    Eigenvalues --     2670.22045  2779.21257  4562.52870
          X               0.17273     0.81993     0.54579
          Y               0.97449    -0.06164    -0.21579
          Z               0.14329    -0.56914     0.80966
   Rotational Symmetry Number is   1
   The Molecule is an Asymmetric Top
   Translational Enthalpy:        0.889 kcal/mol
   Rotational Enthalpy:           0.889 kcal/mol
   Vibrational Enthalpy:        155.852 kcal/mol
   gas constant (RT):             0.592 kcal/mol
   Translational Entropy:        41.987  cal/mol.K
   Rotational Entropy:           31.893  cal/mol.K
   Vibrational Entropy:          41.662  cal/mol.K

   Total Enthalpy:              158.222 kcal/mol
   Total Entropy:               115.542  cal/mol.K

 Total job time:  6065.70s(wall), 22232.22s(cpu)
        *  Thank you very much for using Q-Chem.  Have a nice day.  *
