 Q-Chem 5.0, Q-Chem, Inc., Pleasanton, CA (2017)
 Q-Chem 5.0.1 for Intel X86 EM64T Linux

User input:
--------------------------------------------------------------
$molecule
0 1
  C      0.66751426     -2.26328003      0.13747959
  C     -0.06591189     -2.13202307      1.52400535
  C     -0.13210878     -0.75086582      2.14591904
  C      1.33226229     -0.98043977     -0.33394461
  O     -0.57632039      0.17748986      1.27953623
  O      0.12903761     -0.52146730      3.30179722
  O      0.93220426     -0.60048464     -1.55831693
  O      2.17161270     -0.39602184      0.30852405
  C      1.52118461      0.61024022     -2.06804731
  C     -0.62532854      1.52955685      1.76814478
  C     -0.46434747     -2.84290713     -0.74896508
  C     -0.68131377     -4.32858960     -0.38567583
  C     -1.41997831     -4.20044519      0.98150924
  C     -1.48260617     -2.66459371      1.13490344
  O     -1.63946593     -2.21445416     -0.21470022
  H      1.48975092     -2.97652903      0.23877986
  H      0.39905726     -2.76640069      2.27585628
  H      2.60505588      0.50866330     -2.13796968
  H      0.38049711      1.87159180      2.01736687
  H     -0.37592133     -2.61774997     -1.80680486
  H     -1.31260049     -4.80980733     -1.13380171
  H      0.25385184     -4.88871087     -0.32109775
  H     -2.42791475     -4.61399944      0.93009176
  H     -0.89388403     -4.68354339      1.80694209
  H     -2.29512568     -2.28306181      1.74953010
  H      1.08227036      0.75226768     -3.05293642
  H      1.27944827      1.44980765     -1.41489629
  H     -1.26115435      1.59529026      2.65186292
  H     -1.04099548      2.11617719      0.95179789
$end

$rem
sym_ignore      true
jobtype         opt
method          b3lyp
basis           6-311++G(d,p)
dft_d           d3_op
mem_total       62000
MEM_STATIC      4000
ao2mo_disk      350000
max_scf_cycles  200
geom_opt_max_cycles 1000
geom_opt_tol_displacement 1
GEOM_OPT_TOL_GRADIENT       1
GEOM_OPT_TOL_ENERGY         1
geom_opt_dmax    50
$end

--------------------------------------------------------------

   15    -765.8611139313      3.71E-09 Convergence criterion met
 Total energy in the final basis set = -765.86111393
    7    -765.8611139418      5.88E-09 Convergence criterion met
 Total energy in the final basis set = -765.86111394
    8    -765.8611139333      2.50E-09 Convergence criterion met
 Total energy in the final basis set = -765.86111393
    8    -765.8611139572      4.71E-09 Convergence criterion met
 Total energy in the final basis set = -765.86111396
    7    -765.8611139384      9.97E-09 Convergence criterion met
 Total energy in the final basis set = -765.86111394
    8    -765.8611139267      2.98E-09 Convergence criterion met
 Total energy in the final basis set = -765.86111393
    6    -765.8611139564      9.84E-09 Convergence criterion met
 Total energy in the final basis set = -765.86111396
    8    -765.8611138969      3.90E-09 Convergence criterion met
 Total energy in the final basis set = -765.86111390
    7    -765.8611139465      9.71E-09 Convergence criterion met
 Total energy in the final basis set = -765.86111395
    4    -765.8611139483      4.75E-09 Convergence criterion met
 Total energy in the final basis set = -765.86111395
 Final energy is   -765.861113948335
 **  OPTIMIZATION CONVERGED  **
 Total job time:  400.55s(wall), 6509.03s(cpu)
        *  Thank you very much for using Q-Chem.  Have a nice day.  *

User input: 2 of 2

r0179.ten.osc.edu 10.25.155
Q-Chem Developer Version! Running on 10.25.155.*
                  Welcome to Q-Chem
     A Quantum Leap Into The Future Of Chemistry

 Q-Chem 5.0, Q-Chem, Inc., Pleasanton, CA (2017)

 Yihan Shao,  Zhengting Gan,  E. Epifanovsky,  A. T. B. Gilbert,  M. Wormit,
 J. Kussmann,  A. W. Lange,  A. Behn,  Jia Deng,  Xintian Feng,  D. Ghosh,
 M. Goldey,  P. R. Horn,  L. D. Jacobson,  I. Kaliman,  T. Kus,  A. Landau,
 Jie Liu,  E. I. Proynov,  R. M. Richard,  R. P. Steele,  E. J. Sundstrom,
 H. L. Woodcock III,  P. M. Zimmerman,  D. Zuev,  B. Albrecht,  E. Alguire,
 S. A. Baeppler,  Z. Benda,  Y. A. Bernard,  E. J. Berquist,  K. B. Bravaya,
 D. Casanova,  Chun-Min Chang,  Yunqing Chen,  A. Chien,  K. D. Closser,
 M. P. Coons,  S. Dasgupta,  M. Diedenhofen,  Hainam Do,  R. G. Edgar,
 Po-Tung Fang,  S. Fatehi,  Qingguo Feng,  Qinghui Ge,  A. Ghysels,
 J. Gomes,  J. Gonthier,  A. Gunina,  M. W. D. Hanson-Heine,
 P. H. P. Harbach,  A. W. Hauser,  J. E. Herr,  E. G. Hohenstein,
 Z. C. Holden,  Kerwin Hui,  T.-C. Jagau,  Hyunjun Ji,  B. Kaduk,
 K. Khistyaev,  Jaehoon Kim,  P. Klunzinger,  K. Koh,  D. Kosenkov,
 T. Kowalczyk,  C. M. Krauter,  A. Kunitsa,  Ka Un Lao,  A. Laurent,
 K. V. Lawler,  Joonho Lee,  D. Lefrancois,  S. Lehtola,  D. S. Levine,
 Yi-Pei Li,  You-Sheng Lin,  Fenglai Liu,  E. Livshits,  A. Luenser,
 P. Manohar,  E. Mansoor,  S. F. Manzer,  Shan-Ping Mao,  Yuezhi Mao,
 N. Mardirossian,  A. V. Marenich,  L. A. Martinez-Martinez,  S. A. Maurer,
 N. J. Mayhall,  S. C. McKenzie,  J.-M. Mewes,  A. F. Morrison,  K. Nanda,
 T. S. Nguyen-Beck,  R. Olivares-Amaya,  J. A. Parkhill,  T. M. Perrine,
 F. Plasser,  S. Prager,  A. Prociuk,  D. R. Rehn,  F. Rob,  M. Schneider,
 N. Sergueev,  S. M. Sharada,  S. Sharma,  D. W. Small,  T. Stauch,
 T. Stein,  Yu-Chuan Su,  A. J. W. Thom,  T. Tsuchimochi,  L. Vogt,
 O. Vydrov,  M. A. Watson,  J. Wenzel,  M. de Wergifosse,  T. A. Wesolowski,
 A. White,  J. Witte,  A. Yamada,  Jun Yang,  K. Yao,  S. Yeganeh,
 S. R. Yost,  Zhi-Qiang You,  A. Zech,  Igor Ying Zhang,  Xing Zhang,
 Yan Zhao,  Ying Zhu,  B. R. Brooks,  G. K. L. Chan,  C. J. Cramer,
 M. S. Gordon,  W. J. Hehre,  A. Klamt,  M. W. Schmidt,  C. D. Sherrill,
 D. G. Truhlar,  A. Aspuru-Guzik,  R. Baer,  A. T. Bell,  N. A. Besley,
 Jeng-Da Chai,  A. Dreuw,  B. D. Dunietz,  T. R. Furlani,  Chao-Ping Hsu,
 Yousung Jung,  Jing Kong,  D. S. Lambrecht,  WanZhen Liang,  C. Ochsenfeld,
 V. A. Rassolov,  L. V. Slipchenko,  J. E. Subotnik,  T. Van Voorhis,
 J. M. Herbert,  A. I. Krylov,  P. M. W. Gill,  M. Head-Gordon

 Contributors to earlier versions of Q-Chem not listed above:
 R. D. Adamson,  B. Austin,  J. Baker,  G. J. O. Beran,  K. Brandhorst,
 S. T. Brown,  E. F. C. Byrd,  A. K. Chakraborty,  C.-L. Cheng,
 Siu Hung Chien,  D. M. Chipman,  D. L. Crittenden,  H. Dachsel,
 R. A. DiStasio Jr.,  R. J. Doerksen,  A. D. Dutoi,  L. Fusti-Molnar,
 W. A. Goddard III,  A. Golubeva-Zadorozhnaya,  S. R. Gwaltney,  G. Hawkins,
 A. Heyden,  S. Hirata,  G. Kedziora,  F. J. Keil,  C. Kelley,  Jihan Kim,
 R. A. King,  R. Z. Khaliullin,  P. P. Korambath,  W. Kurlancheek,
 A. M. Lee,  M. S. Lee,  S. V. Levchenko,  Ching Yeh Lin,  D. Liotard,
 R. C. Lochan,  I. Lotan,  P. E. Maslen,  N. Nair,  D. P. O'Neill,
 D. Neuhauser,  E. Neuscamman,  C. M. Oana,  R. Olson,  B. Peters,
 R. Peverati,  P. A. Pieniazek,  Y. M. Rhee,  J. Ritchie,  M. A. Rohrdanz,
 E. Rosta,  N. J. Russ,  H. F. Schaefer III,  N. E. Schultz,  N. Shenvi,
 A. C. Simmonett,  A. Sodt,  D. Stuck,  K. S. Thanthiriwatte,  V. Vanovschi,
 Tao Wang,  A. Warshel,  C. F. Williams,  Q. Wu,  X. Xu,  W. Zhang

 Please cite Q-Chem as follows:
 Y. Shao et al., Mol. Phys. 113, 184-215 (2015)
 DOI: 10.1080/00268976.2014.952696

 Q-Chem 5.0.1 for Intel X86 EM64T Linux

 Parts of Q-Chem use Armadillo 5.200.1 (Boston Tea Smuggler).
 http://arma.sourceforge.net/

 Q-Chem begins on Tue Oct 17 15:02:29 2017

Host: r0179.ten.osc.edu
0

     Scratch files written to /tmp/pbstmp.1311786/5//
Processing $rem in /users/PAS0291/osu6415/.qchemrc.
molden_format             true
The previous job contains 0 fragments, simply inherited here

Checking the input file for inconsistencies... 	...done.

--------------------------------------------------------------
User input:
--------------------------------------------------------------

$molecule
read
$end

$rem
sym_ignore      true
scf_guess       read
jobtype         freq
method          b3lyp
basis           6-311++G(d,p)
dft_d           d3_op
mem_total       62000
MEM_STATIC      4000
ao2mo_disk      350000
max_scf_cycles  200
$end
--------------------------------------------------------------

             Standard Nuclear Orientation (Angstroms)
    I     Atom           X                Y                Z
 ----------------------------------------------------------------
    1      C       0.6675452527    -2.2632387410     0.1375535819
    2      C      -0.0659847682    -2.1320809413     1.5240219881
    3      C      -0.1319490915    -0.7509692717     2.1460637773
    4      C       1.3321573331    -0.9803073867    -0.3338398814
    5      O      -0.5764357886     0.1774080633     1.2798074964
    6      O       0.1295729380    -0.5215933009     3.3018444577
    7      O       0.9322731206    -0.6005425208    -1.5583441774
    8      O       2.1712817147    -0.3956881451     0.3087266595
    9      C       1.5212736869     0.6101183897    -2.0681854085
   10      C      -0.6253550644     1.5294879222     1.7683394009
   11      C      -0.4642323576    -2.8429006943    -0.7489758540
   12      C      -0.6812320050    -4.3285764191    -0.3856160306
   13      C      -1.4202421939    -4.2003370288     0.9813669734
   14      C      -1.4827188829    -2.6644894213     1.1347320264
   15      O      -1.6393753167    -2.2143737860    -0.2148953616
   16      H       1.4898661045    -2.9763984359     0.2388266823
   17      H       0.3988356816    -2.7666369117     2.2758163432
   18      H       2.6052641735     0.5090228559    -2.1368277003
   19      H       0.3808341751     1.8723071461     2.0150690239
   20      H      -0.3756757908    -2.6178321291    -1.8068210646
   21      H      -1.3122774363    -4.8099220607    -1.1338576707
   22      H       0.2539655071    -4.8886134856    -0.3207397316
   23      H      -2.4282347684    -4.6137220714     0.9296329861
   24      H      -0.8944808228    -4.6835500196     1.8069417354
   25      H      -2.2952560993    -2.2828302954     1.7492502792
   26      H       1.0833701045     0.7513621314    -3.0536379360
   27      H       1.2784004742     1.4499914615    -1.4158383895
   28      H      -1.2590672713     1.5949044309     2.6535817094
   29      H      -1.0433525987     2.1157106852     0.9528941052
 ----------------------------------------------------------------

    2    -765.8611139468      2.75E-09 Convergence criterion met
 Total energy in the final basis set = -765.86111395

                    Orbital Energies (a.u.)
 --------------------------------------------------------------

 Alpha MOs
 -- Occupied --
-19.179 -19.170 -19.133 -19.117 -19.113 -10.311 -10.303 -10.239
-10.233 -10.233 -10.226 -10.208 -10.205 -10.183 -10.183  -1.121
 -1.112  -1.065  -1.031  -1.024  -0.831  -0.785  -0.780  -0.737
 -0.728  -0.658  -0.607  -0.598  -0.580  -0.568  -0.550  -0.516
 -0.504  -0.493  -0.490  -0.486  -0.478  -0.470  -0.462  -0.434
 -0.426  -0.422  -0.409  -0.396  -0.381  -0.374  -0.370  -0.368
 -0.364  -0.359  -0.342  -0.339  -0.320  -0.310  -0.293  -0.277
 -0.274

          Ground-State Mulliken Net Atomic Charges

     Atom                 Charge (a.u.)
  ----------------------------------------
      1 C                     0.380463
      2 C                     0.254468
      3 C                    -0.547227
      4 C                    -0.812846
      5 O                    -0.043098
      6 O                    -0.198665
      7 O                    -0.014211
      8 O                    -0.180451
      9 C                    -0.175908
     10 C                    -0.219467
     11 C                    -0.129656
     12 C                    -0.439537
     13 C                    -0.538370
     14 C                     0.083577
     15 O                    -0.127537
     16 H                     0.241672
     17 H                     0.281061
     18 H                     0.176362
     19 H                     0.200967
     20 H                     0.285051
     21 H                     0.185177
     22 H                     0.125390
     23 H                     0.185815
     24 H                     0.123822
     25 H                     0.260963
     26 H                     0.155086
     27 H                     0.162874
     28 H                     0.173983
     29 H                     0.150241
  ----------------------------------------
  Sum of atomic charges =     0.000000

                    Cartesian Multipole Moments
 -----------------------------------------------------------------
    Charge (ESU x 10^10)
                 0.0000
    Dipole Moment (Debye)
         X      -0.7035      Y      -0.9466      Z      -2.7523
       Tot       2.9944
    Quadrupole Moments (Debye-Ang)
        XX     -93.4293     XY      -0.8004     YY     -71.5348
        XZ      -8.9478     YZ      -1.3728     ZZ     -95.4613

 Frequency:        38.93                  51.79                  73.76
 Force Cnst:      0.0049                 0.0062                 0.0173
 Red. Mass:       5.5146                 3.9108                 5.4036
 IR Intens:        1.307                  1.297                  1.006
 Frequency:        86.49                 129.83                 140.91
 Force Cnst:      0.0151                 0.0203                 0.0186
 Red. Mass:       3.4318                 2.0465                 1.5912
 IR Intens:        5.124                  0.310                  1.324
 Frequency:       146.47                 159.00                 164.16
 Force Cnst:      0.0179                 0.0296                 0.0595
 Red. Mass:       1.4170                 1.9898                 3.7452
 IR Intens:        1.412                  0.846                  0.568
 Frequency:       225.26                 258.08                 280.45
 Force Cnst:      0.1547                 0.1226                 0.1621
 Red. Mass:       5.1745                 3.1239                 3.4979
 IR Intens:        0.950                  5.480                  4.927
 Frequency:       295.44                 332.89                 337.08
 Force Cnst:      0.1931                 0.2527                 0.2511
 Red. Mass:       3.7539                 3.8700                 3.7510
 IR Intens:        7.339                  9.128                  9.327
 Frequency:       381.23                 454.18                 571.49
 Force Cnst:      0.7287                 0.8352                 0.7338
 Red. Mass:       8.5098                 6.8719                 3.8135
 IR Intens:        3.449                  3.310                 24.685
 Frequency:       626.47                 654.74                 704.91
 Force Cnst:      1.2570                 1.1000                 1.8273
 Red. Mass:       5.4360                 4.3550                 6.2417
 IR Intens:       10.851                  3.352                  2.107
 Frequency:       733.11                 802.15                 805.12
 Force Cnst:      1.7865                 1.8940                 1.0336
 Red. Mass:       5.6417                 4.9959                 2.7062
 IR Intens:        8.217                 11.390                 21.280
 Frequency:       828.45                 839.36                 856.54
 Force Cnst:      1.6665                 0.9240                 2.0399
 Red. Mass:       4.1213                 2.2260                 4.7191
 IR Intens:        9.250                  6.639                  1.025
 Frequency:       884.27                 906.35                 930.41
 Force Cnst:      2.0100                 1.3533                 1.4460
 Red. Mass:       4.3630                 2.7962                 2.8351
 IR Intens:        4.474                  8.441                  7.699
 Frequency:       945.55                 955.58                 964.01
 Force Cnst:      1.6252                 2.0324                 1.9328
 Red. Mass:       3.0852                 3.7776                 3.5300
 IR Intens:       24.720                  8.588                  3.087
 Frequency:       983.97                1018.48                1027.69
 Force Cnst:      1.3216                 2.5279                 1.9187
 Red. Mass:       2.3167                 4.1363                 3.0835
 IR Intens:       12.587                 31.490                 23.374
 Frequency:      1057.91                1067.75                1073.21
 Force Cnst:      2.2731                 2.5144                 1.4571
 Red. Mass:       3.4472                 3.7432                 2.1472
 IR Intens:       18.259                 53.011                 32.917
 Frequency:      1161.95                1170.34                1172.51
 Force Cnst:      0.9647                 1.0375                 1.0383
 Red. Mass:       1.2128                 1.2856                 1.2819
 IR Intens:       65.183                  2.443                  1.013
 Frequency:      1199.91                1208.18                1209.32
 Force Cnst:      1.2819                 1.2762                 1.2808
 Red. Mass:       1.5111                 1.4839                 1.4864
 IR Intens:        5.099                  1.121                 10.214
 Frequency:      1233.13                1235.58                1240.88
 Force Cnst:      1.1785                 1.4073                 1.2735
 Red. Mass:       1.3155                 1.5646                 1.4038
 IR Intens:       25.582                 24.309                  8.077
 Frequency:      1261.88                1284.89                1286.25
 Force Cnst:      1.8539                 2.5431                 1.6096
 Red. Mass:       1.9760                 2.6145                 1.6512
 IR Intens:       64.932                326.187                130.797
 Frequency:      1289.30                1307.10                1317.39
 Force Cnst:      1.4748                 1.3893                 1.5049
 Red. Mass:       1.5059                 1.3801                 1.4718
 IR Intens:       16.990                 55.209                  9.774
 Frequency:      1351.35                1363.50                1366.59
 Force Cnst:      1.7148                 1.6457                 1.6653
 Red. Mass:       1.5937                 1.5024                 1.5134
 IR Intens:       26.270                  1.356                  6.016
 Frequency:      1468.73                1469.93                1482.30
 Force Cnst:      1.5328                 1.5343                 1.3530
 Red. Mass:       1.2060                 1.2052                 1.0451
 IR Intens:        9.677                 22.011                  4.581
 Frequency:      1484.92                1487.30                1496.63
 Force Cnst:      1.3568                 1.4115                 1.3814
 Red. Mass:       1.0443                 1.0831                 1.0467
 IR Intens:       14.210                  1.988                 16.420
 Frequency:      1498.07                1511.19                1777.66
 Force Cnst:      1.3834                 1.4805                21.0378
 Red. Mass:       1.0463                 1.1003                11.2994
 IR Intens:        1.817                  8.115                 96.797
 Frequency:      1786.44                3050.02                3051.66
 Force Cnst:     20.6537                 5.6418                 5.6489
 Red. Mass:      10.9842                 1.0293                 1.0295
 IR Intens:      466.372                 28.674                 37.675
 Frequency:      3059.52                3066.36                3069.99
 Force Cnst:      5.8515                 5.9582                 5.9217
 Red. Mass:       1.0610                 1.0755                 1.0664
 IR Intens:       19.298                 14.983                 31.759
 Frequency:      3097.94                3114.70                3124.71
 Force Cnst:      6.2642                 6.3078                 6.3696
 Red. Mass:       1.1078                 1.1036                 1.1072
 IR Intens:        0.582                 24.785                 19.599
 Frequency:      3125.03                3125.63                3132.66
 Force Cnst:      6.2701                 6.3714                 6.3020
 Red. Mass:       1.0897                 1.1069                 1.0899
 IR Intens:       16.168                 15.875                 20.906
 Frequency:      3156.02                3158.99                3167.00
 Force Cnst:      6.4924                 6.5052                 6.4426
 Red. Mass:       1.1063                 1.1064                 1.0902
 IR Intens:       12.620                 13.070                  8.651

 STANDARD THERMODYNAMIC QUANTITIES AT   298.15 K  AND     1.00 ATM

   This Molecule has  0 Imaginary Frequencies
   Zero point vibrational energy:      149.272 kcal/mol

   Atom    1 Element C  Has Mass   12.00000
   Atom    2 Element C  Has Mass   12.00000
   Atom    3 Element C  Has Mass   12.00000
   Atom    4 Element C  Has Mass   12.00000
   Atom    5 Element O  Has Mass   15.99491
   Atom    6 Element O  Has Mass   15.99491
   Atom    7 Element O  Has Mass   15.99491
   Atom    8 Element O  Has Mass   15.99491
   Atom    9 Element C  Has Mass   12.00000
   Atom   10 Element C  Has Mass   12.00000
   Atom   11 Element C  Has Mass   12.00000
   Atom   12 Element C  Has Mass   12.00000
   Atom   13 Element C  Has Mass   12.00000
   Atom   14 Element C  Has Mass   12.00000
   Atom   15 Element O  Has Mass   15.99491
   Atom   16 Element H  Has Mass    1.00783
   Atom   17 Element H  Has Mass    1.00783
   Atom   18 Element H  Has Mass    1.00783
   Atom   19 Element H  Has Mass    1.00783
   Atom   20 Element H  Has Mass    1.00783
   Atom   21 Element H  Has Mass    1.00783
   Atom   22 Element H  Has Mass    1.00783
   Atom   23 Element H  Has Mass    1.00783
   Atom   24 Element H  Has Mass    1.00783
   Atom   25 Element H  Has Mass    1.00783
   Atom   26 Element H  Has Mass    1.00783
   Atom   27 Element H  Has Mass    1.00783
   Atom   28 Element H  Has Mass    1.00783
   Atom   29 Element H  Has Mass    1.00783
   Molecular Mass:   214.084170 amu
   Principal axes and moments of inertia in amu*Bohr^2:
                             1           2           3
    Eigenvalues --     2295.97069  2983.72529  4268.12613
          X               0.42852    -0.34105     0.83669
          Y               0.90314     0.18889    -0.38556
          Z              -0.02655     0.92087     0.38896
   Rotational Symmetry Number is   1
   The Molecule is an Asymmetric Top
   Translational Enthalpy:        0.889 kcal/mol
   Rotational Enthalpy:           0.889 kcal/mol
   Vibrational Enthalpy:        156.474 kcal/mol
   gas constant (RT):             0.592 kcal/mol
   Translational Entropy:        41.987  cal/mol.K
   Rotational Entropy:           31.747  cal/mol.K
   Vibrational Entropy:          46.942  cal/mol.K

   Total Enthalpy:              158.844 kcal/mol
   Total Entropy:               120.676  cal/mol.K

 Total job time:  5979.90s(wall), 20596.72s(cpu)
        *  Thank you very much for using Q-Chem.  Have a nice day.  *
