 Q-Chem 5.0, Q-Chem, Inc., Pleasanton, CA (2017)
 Q-Chem 5.0.1 for Intel X86 EM64T Linux

User input:
--------------------------------------------------------------
$molecule
0  1
--
0  1
C        +0.20238000        +1.04766000        +0.59128000
C        +0.63819000        -0.38392000        +1.03507000
C        +1.32502000        +1.40342000        -0.40773000
C        +2.63024000        +1.71632000        +0.35656000
C        +3.06844000        +0.28546000        +0.80025000
C        +1.92879000        -0.57154000        +0.20725000
O        +1.61715000        +0.12844000        -1.01410000
H        +3.36771000        +2.16806000        -0.30914000
H        +2.46905000        +2.39751000        +1.19495000
H        +4.02649000        +0.00980000        +0.35668000
H        +3.15140000        +0.17666000        +1.88393000
H        +1.05332000        +2.11810000        -1.18255000
H        +2.19020000        -1.60239000        -0.02473000
H        +0.81538000        -0.46660000        +2.10960000
H        -0.10758000        -1.13032000        +0.75591000
H        -0.76622000        +1.02844000        +0.08894000
H        +0.14243000        +1.75630000        +1.41989000
--
0  1
C        +0.24697000        +2.39262000        +4.88536000
C        +0.68278000        +0.96104000        +5.32915000
C        +1.36961000        +2.74838000        +3.88635000
C        +2.67483000        +3.06128000        +4.65064000
C        +3.11303000        +1.63042000        +5.09433000
C        +1.97338000        +0.77342000        +4.50133000
O        +1.66174000        +1.47340000        +3.27998000
H        +3.41230000        +3.51302000        +3.98494000
H        +2.51364000        +3.74247000        +5.48903000
H        +4.07108000        +1.35476000        +4.65076000
H        +3.19599000        +1.52162000        +6.17801000
H        +1.09791000        +3.46306000        +3.11153000
H        +2.23479000        -0.25743000        +4.26935000
H        +0.85997000        +0.87836000        +6.40368000
H        -0.06299000        +0.21464000        +5.04999000
H        -0.72163000        +2.37340000        +4.38302000
H        +0.18702000        +3.10126000        +5.71397000
$end

$rem
JOBTYPE                   SP
METHOD                    B3LYP
DFT_D                     d3_op
BASIS                     6-311++G(d,p)
SYMMETRY                  False
THRESH                    12
SCF_CONVERGENCE           8
MAX_SUB_FILE_NUM          128
MEM_STATIC                400
MEM_TOTAL                 4000
$end
--------------------------------------------------------------

             Standard Nuclear Orientation (Angstroms)
    I     Atom           X                Y                Z
 ----------------------------------------------------------------
    1      C      -1.7860644020    -1.2641765388     0.7814999320
    2      C      -1.7862089716    -1.2659876297    -0.7793645450
    3      C      -2.6218391168     0.0003676610     1.0769915907
    4      C      -1.7860326684     1.2649939184     0.7806929707
    5      C      -1.7860336823     1.2656767294    -0.7801529312
    6      C      -2.6193967193     0.0000534269    -1.0778168812
    7      O      -3.5786837407    -0.0003401280    -0.0014546893
    8      H      -2.2788906733     2.1542670170     1.1773941952
    9      H      -0.7839928425     1.2126712885     1.2120609738
   10      H      -2.2821837822     2.1535172628    -1.1753450980
   11      H      -0.7836623061     1.2158279724    -1.2112548561
   12      H      -3.1502462726     0.0007151524     2.0286849141
   13      H      -3.1463165381    -0.0003114360    -2.0302647814
   14      H      -0.7838243674    -1.2176261446    -1.2103323762
   15      H      -2.2831235840    -2.1534296934    -1.1752668184
   16      H      -2.2807769723    -2.1523063816     1.1782185968
   17      H      -0.7841452796    -1.2111498123     1.2124354523
   18      C       2.7139387797    -1.2643624500     0.7812853578
   19      C       2.7137942101    -1.2661735410    -0.7795791192
   20      C       1.8781640649     0.0001817497     1.0767770165
   21      C       2.7139705134     1.2648080071     0.7804783965
   22      C       2.7139694994     1.2654908181    -0.7803675054
   23      C       1.8806064624    -0.0001324844    -1.0780314554
   24      O       0.9213194410    -0.0005260392    -0.0016692635
   25      H       2.2211125084     2.1540811057     1.1771796210
   26      H       3.7160103392     1.2124853772     1.2118463996
   27      H       2.2178193995     2.1533313515    -1.1755596722
   28      H       3.7163408756     1.2156420611    -1.2114694303
   29      H       1.3497569091     0.0005292412     2.0284703399
   30      H       1.3536866436    -0.0004973472    -2.0304793555
   31      H       3.7161788143    -1.2178120559    -1.2105469504
   32      H       2.2168795977    -2.1536156046    -1.1754813926
   33      H       2.2192262094    -2.1524922929     1.1780040226
   34      H       3.7158579021    -1.2113357236     1.2122208781
 ----------------------------------------------------------------

   13    -619.9389315189      6.09E-09 Convergence criterion met
 Total energy in the final basis set = -619.93893152

                    Orbital Energies (a.u.)
 --------------------------------------------------------------

 Alpha MOs
 -- Occupied --
-19.128 -19.104 -10.229 -10.229 -10.205 -10.205 -10.178 -10.178
-10.178 -10.178 -10.153 -10.153 -10.153 -10.153  -1.059  -1.032
 -0.808  -0.781  -0.760  -0.756  -0.735  -0.731  -0.621  -0.597
 -0.583  -0.581  -0.557  -0.556  -0.536  -0.510  -0.489  -0.478
 -0.461  -0.449  -0.428  -0.416  -0.404  -0.399  -0.392  -0.375
 -0.374  -0.370  -0.357  -0.352  -0.350  -0.345  -0.334  -0.333
 -0.324  -0.315  -0.305  -0.291  -0.275  -0.248

          Ground-State Mulliken Net Atomic Charges

     Atom                 Charge (a.u.)
  ----------------------------------------
      1 C                    -0.378821
      2 C                    -0.392183
      3 C                     0.092895
      4 C                    -0.379731
      5 C                    -0.390896
      6 C                     0.101694
      7 O                    -0.162706
      8 H                     0.174672
      9 H                     0.060129
     10 H                     0.175136
     11 H                     0.061059
     12 H                     0.229938
     13 H                     0.229475
     14 H                     0.061318
     15 H                     0.175031
     16 H                     0.174875
     17 H                     0.059898
     18 C                    -0.461094
     19 C                    -0.464730
     20 C                     0.120380
     21 C                    -0.461549
     22 C                    -0.464685
     23 C                     0.124425
     24 O                     0.118185
     25 H                     0.161414
     26 H                     0.135476
     27 H                     0.161405
     28 H                     0.135462
     29 H                     0.205066
     30 H                     0.204848
     31 H                     0.135421
     32 H                     0.161351
     33 H                     0.161317
     34 H                     0.135525
  ----------------------------------------
  Sum of atomic charges =     0.000000

                    Cartesian Multipole Moments
 -----------------------------------------------------------------
    Charge (ESU x 10^10)
                 0.0000
    Dipole Moment (Debye)
         X       4.3853      Y       0.0034      Z       0.0018
       Tot       4.3853
    Quadrupole Moments (Debye-Ang)
        XX     -95.8290     XY       0.0035     YY     -87.3841
        XZ      -0.0083     YZ       0.0056     ZZ     -82.9127

 Total job time:  148.38s(wall), 589.81s(cpu)
        *  Thank you very much for using Q-Chem.  Have a nice day.  *
