 Q-Chem 5.0, Q-Chem, Inc., Pleasanton, CA (2017)
 Q-Chem 5.0.1 for Intel X86 EM64T Linux

User input:
--------------------------------------------------------------
$molecule
0  1
C        +3.27031000        +2.81908000        +3.38135000
C        +3.67387000        +1.36067000        +3.79411000
C        +4.37769000        +3.17394000        +2.36049000
C        +5.67831000        +3.49120000        +3.12395000
C        +6.09097000        +2.06771000        +3.59840000
C        +4.99184000        +1.18121000        +2.94802000
O        +4.67601000        +1.91083000        +1.75164000
H        +6.41995000        +3.91202000        +2.44345000
H        +5.52997000        +4.19908000        +3.94191000
H        +7.06943000        +1.78414000        +3.20701000
H        +6.12120000        +1.96158000        +4.68468000
H        +4.08031000        +3.97363000        +1.71476000
H        +5.29100000        +0.15924000        +2.84326000
H        +3.86454000        +1.28515000        +4.84427000
H        +2.92237000        +0.62064000        +3.61383000
H        +2.30088000        +2.84231000        +2.92905000
H        +3.20313000        +3.50037000        +4.20368000
@C        +0.22270000        +1.04488000        +0.58595000
@C        +0.62626000        -0.41353000        +0.99871000
@C        +1.33008000        +1.39974000        -0.43491000
@C        +2.63070000        +1.71700000        +0.32855000
@C        +3.04336000        +0.29351000        +0.80300000
@C        +1.94423000        -0.59299000        +0.15262000
@O        +1.62840000        +0.13663000        -1.04376000
@H        +3.37234000        +2.13782000        -0.35195000
@H        +2.48236000        +2.42488000        +1.14651000
@H        +4.02182000        +0.00994000        +0.41161000
@H        +3.07359000        +0.18738000        +1.88928000
@H        +1.03270000        +2.19943000        -1.08064000
@H        +2.24339000        -1.61496000        +0.04786000
@H        +0.81693000        -0.48905000        +2.04887000
@H        -0.12524000        -1.15356000        +0.81843000
@H        -0.74673000        +1.06811000        +0.13365000
@H        +0.15552000        +1.72617000        +1.40828000
$end

$rem
JOBTYPE                   SP
METHOD                    B3LYP
DFT_D                     d3_op
BASIS                     6-311++G(d,p)
SYMMETRY                  False
THRESH                    12
SCF_CONVERGENCE           8
MAX_SUB_FILE_NUM          128
MEM_STATIC                400
MEM_TOTAL                 4000
$end
--------------------------------------------------------------

             Standard Nuclear Orientation (Angstroms)
    I     Atom           X                Y                Z
 ----------------------------------------------------------------
    1      C       3.2703100000     2.8190800000     3.3813500000
    2      C       3.6738700000     1.3606700000     3.7941100000
    3      C       4.3776900000     3.1739400000     2.3604900000
    4      C       5.6783100000     3.4912000000     3.1239500000
    5      C       6.0909700000     2.0677100000     3.5984000000
    6      C       4.9918400000     1.1812100000     2.9480200000
    7      O       4.6760100000     1.9108300000     1.7516400000
    8      H       6.4199500000     3.9120200000     2.4434500000
    9      H       5.5299700000     4.1990800000     3.9419100000
   10      H       7.0694300000     1.7841400000     3.2070100000
   11      H       6.1212000000     1.9615800000     4.6846800000
   12      H       4.0803100000     3.9736300000     1.7147600000
   13      H       5.2910000000     0.1592400000     2.8432600000
   14      H       3.8645400000     1.2851500000     4.8442700000
   15      H       2.9223700000     0.6206400000     3.6138300000
   16      H       2.3008800000     2.8423100000     2.9290500000
   17      H       3.2031300000     3.5003700000     4.2036800000
   18      GH      0.2227000000     1.0448800000     0.5859500000
   19      GH      0.6262600000    -0.4135300000     0.9987100000
   20      GH      1.3300800000     1.3997400000    -0.4349100000
   21      GH      2.6307000000     1.7170000000     0.3285500000
   22      GH      3.0433600000     0.2935100000     0.8030000000
   23      GH      1.9442300000    -0.5929900000     0.1526200000
   24      GH      1.6284000000     0.1366300000    -1.0437600000
   25      GH      3.3723400000     2.1378200000    -0.3519500000
   26      GH      2.4823600000     2.4248800000     1.1465100000
   27      GH      4.0218200000     0.0099400000     0.4116100000
   28      GH      3.0735900000     0.1873800000     1.8892800000
   29      GH      1.0327000000     2.1994300000    -1.0806400000
   30      GH      2.2433900000    -1.6149600000     0.0478600000
   31      GH      0.8169300000    -0.4890500000     2.0488700000
   32      GH     -0.1252400000    -1.1535600000     0.8184300000
   33      GH     -0.7467300000     1.0681100000     0.1336500000
   34      GH      0.1555200000     1.7261700000     1.4082800000
 ----------------------------------------------------------------

   12    -309.9604585086      6.32E-09 Convergence criterion met
 Total energy in the final basis set = -309.96045851

                    Orbital Energies (a.u.)
 --------------------------------------------------------------

 Alpha MOs
 -- Occupied --
-19.123 -10.221 -10.218 -10.168 -10.167 -10.165 -10.163  -1.050
 -0.798  -0.749  -0.747  -0.614  -0.578  -0.573  -0.527  -0.478
 -0.465  -0.430  -0.406  -0.395  -0.364  -0.360  -0.351  -0.339
 -0.317  -0.304  -0.264

          Ground-State Mulliken Net Atomic Charges

     Atom                 Charge (a.u.)
  ----------------------------------------
      1 C                    -0.407084
      2 C                    -0.366328
      3 C                     0.233035
      4 C                    -0.602561
      5 C                    -0.549611
      6 C                     0.202827
      7 O                    -0.026327
      8 H                     0.166987
      9 H                     0.125739
     10 H                     0.168498
     11 H                     0.123003
     12 H                     0.216043
     13 H                     0.220014
     14 H                     0.166050
     15 H                     0.139359
     16 H                     0.124590
     17 H                     0.174663
     18 GH                   -0.003295
     19 GH                   -0.005407
     20 GH                   -0.062698
     21 GH                    0.000278
     22 GH                   -0.000648
     23 GH                   -0.075635
     24 GH                   -0.000286
     25 GH                    0.012536
     26 GH                    0.005715
     27 GH                    0.014335
     28 GH                    0.004603
     29 GH                   -0.001223
     30 GH                   -0.001545
     31 GH                    0.001737
     32 GH                   -0.000074
     33 GH                    0.000235
     34 GH                    0.002475
  ----------------------------------------
  Sum of atomic charges =     0.000000

                    Cartesian Multipole Moments
 -----------------------------------------------------------------
    Charge (ESU x 10^10)
                 0.0000
    Dipole Moment (Debye)
         X      -0.0199      Y       0.5094      Z       1.7002
       Tot       1.7750
    Quadrupole Moments (Debye-Ang)
        XX     -43.3886     XY       1.4570     YY     -38.8481
        XZ       7.8853     YZ       3.5992     ZZ     -36.6783

 Total job time:  151.75s(wall), 602.82s(cpu)
        *  Thank you very much for using Q-Chem.  Have a nice day.  *
