 Q-Chem 5.0, Q-Chem, Inc., Pleasanton, CA (2017)
 Q-Chem 5.0.1 for Intel X86 EM64T Linux

User input:
--------------------------------------------------------------
$molecule
0  1
C        +0.22270000        +1.04488000        +0.58595000
C        +0.62626000        -0.41353000        +0.99871000
C        +1.33008000        +1.39974000        -0.43491000
C        +2.63070000        +1.71700000        +0.32855000
C        +3.04336000        +0.29351000        +0.80300000
C        +1.94423000        -0.59299000        +0.15262000
O        +1.62840000        +0.13663000        -1.04376000
H        +3.37234000        +2.13782000        -0.35195000
H        +2.48236000        +2.42488000        +1.14651000
H        +4.02182000        +0.00994000        +0.41161000
H        +3.07359000        +0.18738000        +1.88928000
H        +1.03270000        +2.19943000        -1.08064000
H        +2.24339000        -1.61496000        +0.04786000
H        +0.81693000        -0.48905000        +2.04887000
H        -0.12524000        -1.15356000        +0.81843000
H        -0.74673000        +1.06811000        +0.13365000
H        +0.15552000        +1.72617000        +1.40828000
@C        +4.15074000        +3.33162000        +4.18891000
@C        +4.55430000        +1.87321000        +4.60167000
@C        +5.25812000        +3.68648000        +3.16805000
@C        +6.55874000        +4.00374000        +3.93151000
@C        +6.97140000        +2.58025000        +4.40596000
@C        +5.87227000        +1.69375000        +3.75558000
@O        +5.55644000        +2.42337000        +2.55920000
@H        +7.30038000        +4.42456000        +3.25101000
@H        +6.41040000        +4.71162000        +4.74947000
@H        +7.94986000        +2.29668000        +4.01457000
@H        +7.00163000        +2.47412000        +5.49224000
@H        +4.96074000        +4.48617000        +2.52232000
@H        +6.17143000        +0.67178000        +3.65082000
@H        +4.74497000        +1.79769000        +5.65183000
@H        +3.80280000        +1.13318000        +4.42139000
@H        +3.18131000        +3.35485000        +3.73661000
@H        +4.08356000        +4.01291000        +5.01124000
$end

$rem
JOBTYPE                   SP
METHOD                    B3LYP
DFT_D                     d3_op
BASIS                     6-311++G(d,p)
SYMMETRY                  False
THRESH                    12
SCF_CONVERGENCE           8
MAX_SUB_FILE_NUM          128
MEM_STATIC                400
MEM_TOTAL                 4000
$end
--------------------------------------------------------------

             Standard Nuclear Orientation (Angstroms)
    I     Atom           X                Y                Z
 ----------------------------------------------------------------
    1      C       0.2227000000     1.0448800000     0.5859500000
    2      C       0.6262600000    -0.4135300000     0.9987100000
    3      C       1.3300800000     1.3997400000    -0.4349100000
    4      C       2.6307000000     1.7170000000     0.3285500000
    5      C       3.0433600000     0.2935100000     0.8030000000
    6      C       1.9442300000    -0.5929900000     0.1526200000
    7      O       1.6284000000     0.1366300000    -1.0437600000
    8      H       3.3723400000     2.1378200000    -0.3519500000
    9      H       2.4823600000     2.4248800000     1.1465100000
   10      H       4.0218200000     0.0099400000     0.4116100000
   11      H       3.0735900000     0.1873800000     1.8892800000
   12      H       1.0327000000     2.1994300000    -1.0806400000
   13      H       2.2433900000    -1.6149600000     0.0478600000
   14      H       0.8169300000    -0.4890500000     2.0488700000
   15      H      -0.1252400000    -1.1535600000     0.8184300000
   16      H      -0.7467300000     1.0681100000     0.1336500000
   17      H       0.1555200000     1.7261700000     1.4082800000
   18      GH      4.1507400000     3.3316200000     4.1889100000
   19      GH      4.5543000000     1.8732100000     4.6016700000
   20      GH      5.2581200000     3.6864800000     3.1680500000
   21      GH      6.5587400000     4.0037400000     3.9315100000
   22      GH      6.9714000000     2.5802500000     4.4059600000
   23      GH      5.8722700000     1.6937500000     3.7555800000
   24      GH      5.5564400000     2.4233700000     2.5592000000
   25      GH      7.3003800000     4.4245600000     3.2510100000
   26      GH      6.4104000000     4.7116200000     4.7494700000
   27      GH      7.9498600000     2.2966800000     4.0145700000
   28      GH      7.0016300000     2.4741200000     5.4922400000
   29      GH      4.9607400000     4.4861700000     2.5223200000
   30      GH      6.1714300000     0.6717800000     3.6508200000
   31      GH      4.7449700000     1.7976900000     5.6518300000
   32      GH      3.8028000000     1.1331800000     4.4213900000
   33      GH      3.1813100000     3.3548500000     3.7366100000
   34      GH      4.0835600000     4.0129100000     5.0112400000
 ----------------------------------------------------------------

   12    -309.9595845298      6.22E-09 Convergence criterion met
 Total energy in the final basis set = -309.95958453

                    Orbital Energies (a.u.)
 --------------------------------------------------------------

 Alpha MOs
 -- Occupied --
-19.123 -10.221 -10.218 -10.168 -10.167 -10.165 -10.163  -1.050
 -0.798  -0.749  -0.747  -0.614  -0.578  -0.574  -0.527  -0.478
 -0.465  -0.431  -0.406  -0.395  -0.364  -0.360  -0.351  -0.339
 -0.317  -0.304  -0.264

          Ground-State Mulliken Net Atomic Charges

     Atom                 Charge (a.u.)
  ----------------------------------------
      1 C                    -0.453225
      2 C                    -0.434629
      3 C                     0.068472
      4 C                    -0.343179
      5 C                    -0.297649
      6 C                     0.045669
      7 O                    -0.138877
      8 H                     0.181499
      9 H                     0.077431
     10 H                     0.172407
     11 H                     0.070567
     12 H                     0.232235
     13 H                     0.234568
     14 H                     0.110262
     15 H                     0.178440
     16 H                     0.171560
     17 H                     0.117286
     18 GH                    0.006865
     19 GH                    0.011807
     20 GH                   -0.018249
     21 GH                    0.000719
     22 GH                   -0.002711
     23 GH                   -0.020025
     24 GH                    0.008430
     25 GH                   -0.000304
     26 GH                    0.000227
     27 GH                   -0.000214
     28 GH                    0.000097
     29 GH                    0.002025
     30 GH                    0.002325
     31 GH                   -0.000782
     32 GH                    0.009755
     33 GH                    0.008156
     34 GH                   -0.000961
  ----------------------------------------
  Sum of atomic charges =    -0.000000

                    Cartesian Multipole Moments
 -----------------------------------------------------------------
    Charge (ESU x 10^10)
                -0.0000
    Dipole Moment (Debye)
         X      -0.0139      Y       0.5166      Z       1.7204
       Tot       1.7964
    Quadrupole Moments (Debye-Ang)
        XX     -43.2291     XY      -0.0573     YY     -40.6240
        XZ       2.7762     YZ      -0.8639     ZZ     -46.2382

 Total job time:  118.40s(wall), 471.15s(cpu)
        *  Thank you very much for using Q-Chem.  Have a nice day.  *
