 Q-Chem 5.0, Q-Chem, Inc., Pleasanton, CA (2017)
 Q-Chem 5.0.1 for Intel X86 EM64T Linux

User input:
--------------------------------------------------------------
$molecule
0  1
--
0  1
C        +0.22270000        +1.04488000        +0.58595000
C        +0.62626000        -0.41353000        +0.99871000
C        +1.33008000        +1.39974000        -0.43491000
C        +2.63070000        +1.71700000        +0.32855000
C        +3.04336000        +0.29351000        +0.80300000
C        +1.94423000        -0.59299000        +0.15262000
O        +1.62840000        +0.13663000        -1.04376000
H        +3.37234000        +2.13782000        -0.35195000
H        +2.48236000        +2.42488000        +1.14651000
H        +4.02182000        +0.00994000        +0.41161000
H        +3.07359000        +0.18738000        +1.88928000
H        +1.03270000        +2.19943000        -1.08064000
H        +2.24339000        -1.61496000        +0.04786000
H        +0.81693000        -0.48905000        +2.04887000
H        -0.12524000        -1.15356000        +0.81843000
H        -0.74673000        +1.06811000        +0.13365000
H        +0.15552000        +1.72617000        +1.40828000
--
0  1
C        +3.27031000        +2.81908000        +3.38135000
C        +3.67387000        +1.36067000        +3.79411000
C        +4.37769000        +3.17394000        +2.36049000
C        +5.67831000        +3.49120000        +3.12395000
C        +6.09097000        +2.06771000        +3.59840000
C        +4.99184000        +1.18121000        +2.94802000
O        +4.67601000        +1.91083000        +1.75164000
H        +6.41995000        +3.91202000        +2.44345000
H        +5.52997000        +4.19908000        +3.94191000
H        +7.06943000        +1.78414000        +3.20701000
H        +6.12120000        +1.96158000        +4.68468000
H        +4.08031000        +3.97363000        +1.71476000
H        +5.29100000        +0.15924000        +2.84326000
H        +3.86454000        +1.28515000        +4.84427000
H        +2.92237000        +0.62064000        +3.61383000
H        +2.30088000        +2.84231000        +2.92905000
H        +3.20313000        +3.50037000        +4.20368000
$end

$rem
JOBTYPE                   SP
METHOD                    B3LYP
DFT_D                     d3_op
BASIS                     6-311++G(d,p)
SYMMETRY                  False
THRESH                    12
SCF_CONVERGENCE           8
MAX_SUB_FILE_NUM          128
MEM_STATIC                400
MEM_TOTAL                 4000
$end
--------------------------------------------------------------

             Standard Nuclear Orientation (Angstroms)
    I     Atom           X                Y                Z
 ----------------------------------------------------------------
    1      C       2.8453019365    -0.5648556430     1.1917797517
    2      C       2.8942720801     0.9747983583     0.8963839143
    3      C       2.5036607705    -1.1411552374    -0.2030432890
    4      C       1.0081313708    -0.9034811899    -0.4894701125
    5      C       1.0011808036     0.6323039707    -0.7405288473
    6      C       2.5121455260     0.9821444545    -0.6330095708
    7      O       3.1408306033    -0.2220731918    -1.0999506502
    8      H       0.7051738140    -1.4518571140    -1.3826107379
    9      H       0.3622011477    -1.2151041511     0.3338297651
   10      H       0.6400894210     0.8717637004    -1.7421545757
   11      H       0.3940196408     1.1888138159    -0.0237068451
   12      H       2.7734347410    -2.1735359746    -0.2825304692
   13      H       2.7623477477     1.8978192824    -1.1268035581
   14      H       2.1812561793     1.5134367223     1.4849171613
   15      H       3.8274933180     1.4449424074     1.1265147975
   16      H       3.7900485455    -0.9250843977     1.5419204904
   17      H       2.1493554620    -0.8383771558     1.9571164959
   18      C      -1.6472987957    -0.5061430459     1.4429072183
   19      C      -1.5983286521     1.0335109553     1.1475113809
   20      C      -1.9889399616    -1.0824426404     0.0480841776
   21      C      -3.4844693614    -0.8447685929    -0.2383426459
   22      C      -3.4914199286     0.6910165677    -0.4894013807
   23      C      -1.9804552062     1.0408570515    -0.3818821041
   24      O      -1.3517701289    -0.1633605948    -0.8488231836
   25      H      -3.7874269182    -1.3931445169    -1.1314832713
   26      H      -4.1303995845    -1.1563915540     0.5849572317
   27      H      -3.8525113111     0.9304762974    -1.4910271091
   28      H      -4.0985810914     1.2475264129     0.2274206215
   29      H      -1.7191659911    -2.1148233775    -0.0314030026
   30      H      -1.7302529844     1.9565318794    -0.8756760915
   31      H      -2.3113445529     1.5721493194     1.7360446279
   32      H      -0.6651074141     1.5036550045     1.3776422642
   33      H      -0.7025521867    -0.8663718006     1.7930479570
   34      H      -2.3432452702    -0.7796645588     2.2082439625
 ----------------------------------------------------------------

   13    -619.8985957219      6.78E-09 Convergence criterion met
 Total energy in the final basis set = -619.89859572

                    Orbital Energies (a.u.)
 --------------------------------------------------------------

 Alpha MOs
 -- Occupied --
-19.126 -19.109 -10.228 -10.225 -10.206 -10.203 -10.174 -10.173
-10.173 -10.172 -10.156 -10.155 -10.148 -10.148  -1.059  -1.036
 -0.806  -0.785  -0.758  -0.757  -0.735  -0.734  -0.624  -0.603
 -0.586  -0.582  -0.569  -0.559  -0.535  -0.513  -0.493  -0.479
 -0.459  -0.447  -0.439  -0.417  -0.414  -0.405  -0.393  -0.384
 -0.377  -0.367  -0.358  -0.349  -0.346  -0.345  -0.337  -0.325
 -0.322  -0.310  -0.305  -0.289  -0.270  -0.244

          Ground-State Mulliken Net Atomic Charges

     Atom                 Charge (a.u.)
  ----------------------------------------
      1 C                    -0.374309
      2 C                    -0.368482
      3 C                    -0.205849
      4 C                    -0.127021
      5 C                    -0.164589
      6 C                    -0.216650
      7 O                    -0.126604
      8 H                     0.211588
      9 H                     0.025038
     10 H                     0.206065
     11 H                     0.013189
     12 H                     0.217748
     13 H                     0.216237
     14 H                     0.089312
     15 H                     0.180589
     16 H                     0.173284
     17 H                     0.102311
     18 C                    -0.414476
     19 C                    -0.393198
     20 C                     0.186760
     21 C                    -0.593728
     22 C                    -0.551290
     23 C                     0.188379
     24 O                     0.037389
     25 H                     0.169182
     26 H                     0.127853
     27 H                     0.171086
     28 H                     0.124641
     29 H                     0.226371
     30 H                     0.228552
     31 H                     0.166538
     32 H                     0.162776
     33 H                     0.134505
     34 H                     0.176801
  ----------------------------------------
  Sum of atomic charges =     0.000000

                    Cartesian Multipole Moments
 -----------------------------------------------------------------
    Charge (ESU x 10^10)
                -0.0000
    Dipole Moment (Debye)
         X      -3.2489      Y       0.4719      Z       2.3606
       Tot       4.0436
    Quadrupole Moments (Debye-Ang)
        XX     -92.7090     XY       0.9081     YY     -81.7893
        XZ       3.8966     YZ      -2.0229     ZZ     -90.5868

 Total job time:  174.83s(wall), 694.94s(cpu)
        *  Thank you very much for using Q-Chem.  Have a nice day.  *
