 Q-Chem 5.0, Q-Chem, Inc., Pleasanton, CA (2017)
 Q-Chem 5.0.1 for Intel X86 EM64T Linux

User input:
--------------------------------------------------------------
$molecule
0  1
--
0  1
C        +0.22270000        +1.04488000        +0.58595000
C        +0.62626000        -0.41353000        +0.99871000
C        +1.33008000        +1.39974000        -0.43491000
C        +2.63070000        +1.71700000        +0.32855000
C        +3.04336000        +0.29351000        +0.80300000
C        +1.94423000        -0.59299000        +0.15262000
O        +1.62840000        +0.13663000        -1.04376000
H        +3.37234000        +2.13782000        -0.35195000
H        +2.48236000        +2.42488000        +1.14651000
H        +4.02182000        +0.00994000        +0.41161000
H        +3.07359000        +0.18738000        +1.88928000
H        +1.03270000        +2.19943000        -1.08064000
H        +2.24339000        -1.61496000        +0.04786000
H        +0.81693000        -0.48905000        +2.04887000
H        -0.12524000        -1.15356000        +0.81843000
H        -0.74673000        +1.06811000        +0.13365000
H        +0.15552000        +1.72617000        +1.40828000
--
0  1
C        +4.15074000        +3.33162000        +4.18891000
C        +4.55430000        +1.87321000        +4.60167000
C        +5.25812000        +3.68648000        +3.16805000
C        +6.55874000        +4.00374000        +3.93151000
C        +6.97140000        +2.58025000        +4.40596000
C        +5.87227000        +1.69375000        +3.75558000
O        +5.55644000        +2.42337000        +2.55920000
H        +7.30038000        +4.42456000        +3.25101000
H        +6.41040000        +4.71162000        +4.74947000
H        +7.94986000        +2.29668000        +4.01457000
H        +7.00163000        +2.47412000        +5.49224000
H        +4.96074000        +4.48617000        +2.52232000
H        +6.17143000        +0.67178000        +3.65082000
H        +4.74497000        +1.79769000        +5.65183000
H        +3.80280000        +1.13318000        +4.42139000
H        +3.18131000        +3.35485000        +3.73661000
H        +4.08356000        +4.01291000        +5.01124000
$end

$rem
JOBTYPE                   SP
METHOD                    B3LYP
DFT_D                     d3_op
BASIS                     6-311++G(d,p)
SYMMETRY                  False
THRESH                    12
SCF_CONVERGENCE           8
MAX_SUB_FILE_NUM          128
MEM_STATIC                400
MEM_TOTAL                 4000
$end
--------------------------------------------------------------

             Standard Nuclear Orientation (Angstroms)
    I     Atom           X                Y                Z
 ----------------------------------------------------------------
    1      C       3.4706699601    -0.5087239723     1.2526974118
    2      C       3.5181485576     1.0191128592     0.9010560916
    3      C       3.1630865791    -1.1386858828    -0.1267632359
    4      C       1.6730634307    -0.9209014399    -0.4546937429
    5      C       1.6636718913     0.6043844762    -0.7631244991
    6      C       3.1700312336     0.9671176817    -0.6355733143
    7      O       3.8152026742    -0.2498510609    -1.0432005086
    8      H       1.3928719294    -1.5040196462    -1.3331386713
    9      H       1.0106526491    -1.2055082481     0.3652869475
   10      H       1.3236578685     0.8041431995    -1.7807044543
   11      H       1.0378526366     1.1835550369    -0.0811469406
   12      H       3.4399430004    -2.1716629507    -0.1616214132
   13      H       3.4263501387     1.8652394172    -1.1576576094
   14      H       2.7894430110     1.5750013551     1.4532069328
   15      H       4.4435651153     1.5031432741     1.1338999911
   16      H       4.4092788963    -0.8499292928     1.6367568368
   17      H       2.7593436905    -0.7577201178     2.0122444500
   18      C      -2.3258711601    -0.4560297454     1.4459154019
   19      C      -2.2783925626     1.0718070862     1.0942740817
   20      C      -2.6334545411    -1.0859916559     0.0664547542
   21      C      -4.1234776894    -0.8682072130    -0.2614757528
   22      C      -4.1328692288     0.6570787031    -0.5699065090
   23      C      -2.6265098865     1.0198119086    -0.4423553242
   24      O      -1.9813384459    -0.1971568339    -0.8499825185
   25      H      -4.4036691907    -1.4513254192    -1.1399206812
   26      H      -4.7858884710    -1.1528140212     0.5585049376
   27      H      -4.4728832516     0.8568374264    -1.5874864642
   28      H      -4.7586884835     1.2362492638     0.1120710495
   29      H      -2.3565981198    -2.1189687238     0.0315965769
   30      H      -2.3701909814     1.9179336441    -0.9644396193
   31      H      -3.0070981091     1.6276955820     1.6464249229
   32      H      -1.3529760049     1.5558375011     1.3271179812
   33      H      -1.3872622239    -0.7972350659     1.8299748269
   34      H      -3.0371974297    -0.7050258908     2.2054624401
 ----------------------------------------------------------------

   13    -619.9215164199      6.36E-09 Convergence criterion met
 Total energy in the final basis set = -619.92151642

                    Orbital Energies (a.u.)
 --------------------------------------------------------------

 Alpha MOs
 -- Occupied --
-19.126 -19.117 -10.225 -10.222 -10.215 -10.212 -10.171 -10.170
-10.169 -10.167 -10.160 -10.159 -10.159 -10.158  -1.053  -1.044
 -0.801  -0.791  -0.752  -0.751  -0.742  -0.741  -0.617  -0.607
 -0.581  -0.577  -0.571  -0.567  -0.530  -0.520  -0.481  -0.471
 -0.468  -0.458  -0.434  -0.424  -0.410  -0.399  -0.398  -0.389
 -0.368  -0.363  -0.357  -0.355  -0.353  -0.345  -0.342  -0.332
 -0.321  -0.311  -0.308  -0.297  -0.268  -0.257

          Ground-State Mulliken Net Atomic Charges

     Atom                 Charge (a.u.)
  ----------------------------------------
      1 C                    -0.453380
      2 C                    -0.435535
      3 C                     0.071582
      4 C                    -0.328458
      5 C                    -0.305427
      6 C                     0.050588
      7 O                    -0.142373
      8 H                     0.185369
      9 H                     0.068311
     10 H                     0.176532
     11 H                     0.058098
     12 H                     0.229580
     13 H                     0.231778
     14 H                     0.106624
     15 H                     0.175823
     16 H                     0.169509
     17 H                     0.114379
     18 C                    -0.323474
     19 C                    -0.377095
     20 C                     0.107718
     21 C                    -0.564738
     22 C                    -0.488785
     23 C                     0.147193
     24 O                    -0.064543
     25 H                     0.168925
     26 H                     0.125041
     27 H                     0.167974
     28 H                     0.125221
     29 H                     0.221577
     30 H                     0.226199
     31 H                     0.134323
     32 H                     0.143592
     33 H                     0.131480
     34 H                     0.146392
  ----------------------------------------
  Sum of atomic charges =    -0.000000

                    Cartesian Multipole Moments
 -----------------------------------------------------------------
    Charge (ESU x 10^10)
                -0.0000
    Dipole Moment (Debye)
         X      -2.7674      Y       0.5633      Z       2.3900
       Tot       3.6997
    Quadrupole Moments (Debye-Ang)
        XX     -91.9882     XY       1.0609     YY     -81.5469
        XZ       3.8422     YZ      -2.4009     ZZ     -90.1772

 Total job time:  143.47s(wall), 570.89s(cpu)
        *  Thank you very much for using Q-Chem.  Have a nice day.  *
