 Q-Chem 5.0, Q-Chem, Inc., Pleasanton, CA (2017)
 Q-Chem 5.0.1 for Intel X86 EM64T Linux

User input:
--------------------------------------------------------------
$molecule
0  1
C        +0.24697000        +2.39262000        +4.88536000
C        +0.68278000        +0.96104000        +5.32915000
C        +1.36961000        +2.74838000        +3.88635000
C        +2.67483000        +3.06128000        +4.65064000
C        +3.11303000        +1.63042000        +5.09433000
C        +1.97338000        +0.77342000        +4.50133000
O        +1.66174000        +1.47340000        +3.27998000
H        +3.41230000        +3.51302000        +3.98494000
H        +2.51364000        +3.74247000        +5.48903000
H        +4.07108000        +1.35476000        +4.65076000
H        +3.19599000        +1.52162000        +6.17801000
H        +1.09791000        +3.46306000        +3.11153000
H        +2.23479000        -0.25743000        +4.26935000
H        +0.85997000        +0.87836000        +6.40368000
H        -0.06299000        +0.21464000        +5.04999000
H        -0.72163000        +2.37340000        +4.38302000
H        +0.18702000        +3.10126000        +5.71397000
@C        +0.20238000        +1.04766000        +0.59128000
@C        +0.63819000        -0.38392000        +1.03507000
@C        +1.32502000        +1.40342000        -0.40773000
@C        +2.63024000        +1.71632000        +0.35656000
@C        +3.06844000        +0.28546000        +0.80025000
@C        +1.92879000        -0.57154000        +0.20725000
@O        +1.61715000        +0.12844000        -1.01410000
@H        +3.36771000        +2.16806000        -0.30914000
@H        +2.46905000        +2.39751000        +1.19495000
@H        +4.02649000        +0.00980000        +0.35668000
@H        +3.15140000        +0.17666000        +1.88393000
@H        +1.05332000        +2.11810000        -1.18255000
@H        +2.19020000        -1.60239000        -0.02473000
@H        +0.81538000        -0.46660000        +2.10960000
@H        -0.10758000        -1.13032000        +0.75591000
@H        -0.76622000        +1.02844000        +0.08894000
@H        +0.14243000        +1.75630000        +1.41989000
$end

$rem
JOBTYPE                   SP
METHOD                    B3LYP
DFT_D                     d3_op
BASIS                     6-311++G(d,p)
SYMMETRY                  False
THRESH                    12
SCF_CONVERGENCE           8
MAX_SUB_FILE_NUM          128
MEM_STATIC                400
MEM_TOTAL                 4000
$end
--------------------------------------------------------------

             Standard Nuclear Orientation (Angstroms)
    I     Atom           X                Y                Z
 ----------------------------------------------------------------
    1      C       0.2469700000     2.3926200000     4.8853600000
    2      C       0.6827800000     0.9610400000     5.3291500000
    3      C       1.3696100000     2.7483800000     3.8863500000
    4      C       2.6748300000     3.0612800000     4.6506400000
    5      C       3.1130300000     1.6304200000     5.0943300000
    6      C       1.9733800000     0.7734200000     4.5013300000
    7      O       1.6617400000     1.4734000000     3.2799800000
    8      H       3.4123000000     3.5130200000     3.9849400000
    9      H       2.5136400000     3.7424700000     5.4890300000
   10      H       4.0710800000     1.3547600000     4.6507600000
   11      H       3.1959900000     1.5216200000     6.1780100000
   12      H       1.0979100000     3.4630600000     3.1115300000
   13      H       2.2347900000    -0.2574300000     4.2693500000
   14      H       0.8599700000     0.8783600000     6.4036800000
   15      H      -0.0629900000     0.2146400000     5.0499900000
   16      H      -0.7216300000     2.3734000000     4.3830200000
   17      H       0.1870200000     3.1012600000     5.7139700000
   18      GH      0.2023800000     1.0476600000     0.5912800000
   19      GH      0.6381900000    -0.3839200000     1.0350700000
   20      GH      1.3250200000     1.4034200000    -0.4077300000
   21      GH      2.6302400000     1.7163200000     0.3565600000
   22      GH      3.0684400000     0.2854600000     0.8002500000
   23      GH      1.9287900000    -0.5715400000     0.2072500000
   24      GH      1.6171500000     0.1284400000    -1.0141000000
   25      GH      3.3677100000     2.1680600000    -0.3091400000
   26      GH      2.4690500000     2.3975100000     1.1949500000
   27      GH      4.0264900000     0.0098000000     0.3566800000
   28      GH      3.1514000000     0.1766600000     1.8839300000
   29      GH      1.0533200000     2.1181000000    -1.1825500000
   30      GH      2.1902000000    -1.6023900000    -0.0247300000
   31      GH      0.8153800000    -0.4666000000     2.1096000000
   32      GH     -0.1075800000    -1.1303200000     0.7559100000
   33      GH     -0.7662200000     1.0284400000     0.0889400000
   34      GH      0.1424300000     1.7563000000     1.4198900000
 ----------------------------------------------------------------

   11    -309.9685466029      9.69E-09 Convergence criterion met
 Total energy in the final basis set = -309.96854660

                    Orbital Energies (a.u.)
 --------------------------------------------------------------

 Alpha MOs
 -- Occupied --
-19.118 -10.219 -10.219 -10.170 -10.170 -10.170 -10.170  -1.046
 -0.798  -0.751  -0.746  -0.612  -0.572  -0.571  -0.524  -0.478
 -0.468  -0.418  -0.408  -0.389  -0.367  -0.361  -0.348  -0.342
 -0.323  -0.306  -0.263

          Ground-State Mulliken Net Atomic Charges

     Atom                 Charge (a.u.)
  ----------------------------------------
      1 C                    -0.476273
      2 C                    -0.482677
      3 C                     0.182852
      4 C                    -0.479496
      5 C                    -0.480498
      6 C                     0.186607
      7 O                     0.094796
      8 H                     0.158176
      9 H                     0.130693
     10 H                     0.157802
     11 H                     0.130474
     12 H                     0.196959
     13 H                     0.197118
     14 H                     0.130446
     15 H                     0.158170
     16 H                     0.157528
     17 H                     0.130458
     18 GH                   -0.033287
     19 GH                   -0.037243
     20 GH                    0.070842
     21 GH                   -0.033082
     22 GH                   -0.037226
     23 GH                    0.073654
     24 GH                   -0.001478
     25 GH                   -0.005246
     26 GH                   -0.021406
     27 GH                   -0.005291
     28 GH                   -0.020737
     29 GH                    0.004777
     30 GH                    0.004727
     31 GH                   -0.020571
     32 GH                   -0.005291
     33 GH                   -0.005252
     34 GH                   -0.021023
  ----------------------------------------
  Sum of atomic charges =     0.000000

                    Cartesian Multipole Moments
 -----------------------------------------------------------------
    Charge (ESU x 10^10)
                 0.0000
    Dipole Moment (Debye)
         X       0.0201      Y       0.5266      Z       1.6725
       Tot       1.7536
    Quadrupole Moments (Debye-Ang)
        XX     -43.1103     XY       0.3380     YY     -39.8607
        XZ       3.0319     YZ       3.8099     ZZ     -31.5640

 Total job time:  130.62s(wall), 520.16s(cpu)
        *  Thank you very much for using Q-Chem.  Have a nice day.  *
