 Q-Chem 5.0, Q-Chem, Inc., Pleasanton, CA (2017)
 Q-Chem 5.0.1 for Intel X86 EM64T Linux

User input:
--------------------------------------------------------------
$molecule
0  1
C        +0.20238000        +1.04766000        +0.59128000
C        +0.63819000        -0.38392000        +1.03507000
C        +1.32502000        +1.40342000        -0.40773000
C        +2.63024000        +1.71632000        +0.35656000
C        +3.06844000        +0.28546000        +0.80025000
C        +1.92879000        -0.57154000        +0.20725000
O        +1.61715000        +0.12844000        -1.01410000
H        +3.36771000        +2.16806000        -0.30914000
H        +2.46905000        +2.39751000        +1.19495000
H        +4.02649000        +0.00980000        +0.35668000
H        +3.15140000        +0.17666000        +1.88393000
H        +1.05332000        +2.11810000        -1.18255000
H        +2.19020000        -1.60239000        -0.02473000
H        +0.81538000        -0.46660000        +2.10960000
H        -0.10758000        -1.13032000        +0.75591000
H        -0.76622000        +1.02844000        +0.08894000
H        +0.14243000        +1.75630000        +1.41989000
@C        +0.24697000        +2.39262000        +4.88536000
@C        +0.68278000        +0.96104000        +5.32915000
@C        +1.36961000        +2.74838000        +3.88635000
@C        +2.67483000        +3.06128000        +4.65064000
@C        +3.11303000        +1.63042000        +5.09433000
@C        +1.97338000        +0.77342000        +4.50133000
@O        +1.66174000        +1.47340000        +3.27998000
@H        +3.41230000        +3.51302000        +3.98494000
@H        +2.51364000        +3.74247000        +5.48903000
@H        +4.07108000        +1.35476000        +4.65076000
@H        +3.19599000        +1.52162000        +6.17801000
@H        +1.09791000        +3.46306000        +3.11153000
@H        +2.23479000        -0.25743000        +4.26935000
@H        +0.85997000        +0.87836000        +6.40368000
@H        -0.06299000        +0.21464000        +5.04999000
@H        -0.72163000        +2.37340000        +4.38302000
@H        +0.18702000        +3.10126000        +5.71397000
$end

$rem
JOBTYPE                   SP
METHOD                    B3LYP
DFT_D                     d3_op
BASIS                     6-311++G(d,p)
SYMMETRY                  False
THRESH                    12
SCF_CONVERGENCE           8
MAX_SUB_FILE_NUM          128
MEM_STATIC                400
MEM_TOTAL                 4000
$end
--------------------------------------------------------------

             Standard Nuclear Orientation (Angstroms)
    I     Atom           X                Y                Z
 ----------------------------------------------------------------
    1      C       0.2023800000     1.0476600000     0.5912800000
    2      C       0.6381900000    -0.3839200000     1.0350700000
    3      C       1.3250200000     1.4034200000    -0.4077300000
    4      C       2.6302400000     1.7163200000     0.3565600000
    5      C       3.0684400000     0.2854600000     0.8002500000
    6      C       1.9287900000    -0.5715400000     0.2072500000
    7      O       1.6171500000     0.1284400000    -1.0141000000
    8      H       3.3677100000     2.1680600000    -0.3091400000
    9      H       2.4690500000     2.3975100000     1.1949500000
   10      H       4.0264900000     0.0098000000     0.3566800000
   11      H       3.1514000000     0.1766600000     1.8839300000
   12      H       1.0533200000     2.1181000000    -1.1825500000
   13      H       2.1902000000    -1.6023900000    -0.0247300000
   14      H       0.8153800000    -0.4666000000     2.1096000000
   15      H      -0.1075800000    -1.1303200000     0.7559100000
   16      H      -0.7662200000     1.0284400000     0.0889400000
   17      H       0.1424300000     1.7563000000     1.4198900000
   18      GH      0.2469700000     2.3926200000     4.8853600000
   19      GH      0.6827800000     0.9610400000     5.3291500000
   20      GH      1.3696100000     2.7483800000     3.8863500000
   21      GH      2.6748300000     3.0612800000     4.6506400000
   22      GH      3.1130300000     1.6304200000     5.0943300000
   23      GH      1.9733800000     0.7734200000     4.5013300000
   24      GH      1.6617400000     1.4734000000     3.2799800000
   25      GH      3.4123000000     3.5130200000     3.9849400000
   26      GH      2.5136400000     3.7424700000     5.4890300000
   27      GH      4.0710800000     1.3547600000     4.6507600000
   28      GH      3.1959900000     1.5216200000     6.1780100000
   29      GH      1.0979100000     3.4630600000     3.1115300000
   30      GH      2.2347900000    -0.2574300000     4.2693500000
   31      GH      0.8599700000     0.8783600000     6.4036800000
   32      GH     -0.0629900000     0.2146400000     5.0499900000
   33      GH     -0.7216300000     2.3734000000     4.3830200000
   34      GH      0.1870200000     3.1012600000     5.7139700000
 ----------------------------------------------------------------

   11    -309.9682216009      9.67E-09 Convergence criterion met
 Total energy in the final basis set = -309.96822160

                    Orbital Energies (a.u.)
 --------------------------------------------------------------

 Alpha MOs
 -- Occupied --
-19.118 -10.219 -10.219 -10.170 -10.170 -10.170 -10.170  -1.047
 -0.798  -0.751  -0.746  -0.612  -0.572  -0.571  -0.524  -0.478
 -0.468  -0.418  -0.408  -0.389  -0.367  -0.361  -0.348  -0.342
 -0.323  -0.306  -0.263

          Ground-State Mulliken Net Atomic Charges

     Atom                 Charge (a.u.)
  ----------------------------------------
      1 C                    -0.372797
      2 C                    -0.380118
      3 C                     0.048493
      4 C                    -0.374637
      5 C                    -0.380434
      6 C                     0.051389
      7 O                    -0.157675
      8 H                     0.190403
      9 H                     0.081834
     10 H                     0.190709
     11 H                     0.082537
     12 H                     0.236547
     13 H                     0.236105
     14 H                     0.082481
     15 H                     0.190933
     16 H                     0.190355
     17 H                     0.081009
     18 GH                    0.009098
     19 GH                    0.008695
     20 GH                   -0.039346
     21 GH                    0.008687
     22 GH                    0.009124
     23 GH                   -0.040802
     24 GH                    0.024421
     25 GH                    0.002335
     26 GH                   -0.000206
     27 GH                    0.002359
     28 GH                   -0.000206
     29 GH                    0.007294
     30 GH                    0.007068
     31 GH                   -0.000222
     32 GH                    0.002397
     33 GH                    0.002359
     34 GH                   -0.000192
  ----------------------------------------
  Sum of atomic charges =     0.000000

                    Cartesian Multipole Moments
 -----------------------------------------------------------------
    Charge (ESU x 10^10)
                 0.0000
    Dipole Moment (Debye)
         X       0.0194      Y       0.5283      Z       1.6801
       Tot       1.7613
    Quadrupole Moments (Debye-Ang)
        XX     -43.1091     XY       0.2904     YY     -41.2701
        XZ       2.8859     YZ      -0.7015     ZZ     -45.9392

 Total job time:  119.13s(wall), 474.16s(cpu)
        *  Thank you very much for using Q-Chem.  Have a nice day.  *
