 Q-Chem 5.0, Q-Chem, Inc., Pleasanton, CA (2017)
 Q-Chem 5.0.1 for Intel X86 EM64T Linux

User input:
--------------------------------------------------------------
$molecule
0  1
--
0  1
C        +0.20553000        +1.04146000        +0.58269000
C        +0.65000000        -0.38925000        +1.00740000
C        +1.32948000        +1.41743000        -0.40725000
C        +2.62919000        +1.72756000        +0.36622000
C        +3.06783000        +0.29650000        +0.79479000
C        +1.94651000        -0.57906000        +0.17708000
O        +1.63056000        +0.15702000        -1.03120000
H        +3.36767000        +2.18673000        -0.29348000
H        +2.46319000        +2.40269000        +1.20873000
H        +4.03298000        +0.02999000        +0.35944000
H        +3.13919000        +0.17160000        +1.87760000
H        +1.05575000        +2.14422000        -1.17046000
C        +2.32428000        -2.00466000        -0.15206000
H        +3.19961000        -2.02906000        -0.80581000
H        +1.50021000        -2.51513000        -0.65630000
H        +2.56254000        -2.55434000        +0.76296000
H        -0.76025000        +1.02051000        +0.07473000
H        +0.13481000        +1.74083000        +1.41846000
H        +0.82947000        -0.48542000        +2.08050000
H        -0.09122000        -1.13848000        +0.72072000
--
0  1
C        +0.22194000        +2.33191000        +4.89366000
C        +0.66641000        +0.90120000        +5.31837000
C        +1.34589000        +2.70788000        +3.90372000
C        +2.64560000        +3.01801000        +4.67719000
C        +3.08424000        +1.58695000        +5.10576000
C        +1.96292000        +0.71139000        +4.48805000
O        +1.64697000        +1.44747000        +3.27977000
H        +3.38408000        +3.47718000        +4.01749000
H        +2.47960000        +3.69314000        +5.51970000
H        +4.04939000        +1.32044000        +4.67041000
H        +3.15560000        +1.46205000        +6.18857000
H        +1.07216000        +3.43467000        +3.14051000
C        +2.34069000        -0.71421000        +4.15891000
H        +3.21602000        -0.73861000        +3.50516000
H        +1.51662000        -1.22468000        +3.65467000
H        +2.57895000        -1.26389000        +5.07393000
H        -0.74384000        +2.31096000        +4.38570000
H        +0.15122000        +3.03128000        +5.72943000
H        +0.84588000        +0.80503000        +6.39147000
H        -0.07481000        +0.15197000        +5.03169000
$end

$rem
JOBTYPE                   SP
METHOD                    B3LYP
DFT_D                     d3_op
BASIS                     6-311++G(d,p)
SYMMETRY                  False
THRESH                    12
SCF_CONVERGENCE           8
MAX_SUB_FILE_NUM          128
MEM_STATIC                400
MEM_TOTAL                 4000
$end
--------------------------------------------------------------

             Standard Nuclear Orientation (Angstroms)
    I     Atom           X                Y                Z
 ----------------------------------------------------------------
    1      C       1.5347781554    -1.2431192330     1.2627778258
    2      C       1.6610225692     0.3089521621     1.2628183974
    3      C       2.3449354340    -1.6045755108    -0.0011813469
    4      C       1.5367819927    -1.2408341224    -1.2654055199
    5      C       1.6594387183     0.3112382718    -1.2593533352
    6      C       2.5288174515     0.5574423971     0.0012392426
    7      O       3.3856918639    -0.6118926587     0.0005349797
    8      H       2.0015239127    -1.6709194230    -2.1544698997
    9      H       0.5049557983    -1.5962394552    -1.2184867493
   10      H       2.1799053986     0.6718604196    -2.1488126239
   11      H       0.6953708848     0.8215235109    -1.2014573695
   12      H       2.7906882043    -2.5980267052    -0.0018977371
   13      C       3.3553203382     1.8224597535    -0.0004156738
   14      H       3.9908610264     1.8650580843    -0.8883686271
   15      H       3.9933713595     1.8671213914     0.8854879302
   16      H       2.7036142994     2.7007856574    -0.0010288593
   17      H       1.9977188991    -1.6770569159     2.1507965348
   18      H       0.5023608603    -1.5953773104     1.2112027946
   19      H       0.6977679414     0.8209933200     1.2084480523
   20      H       2.1834460807     0.6663685647     2.1529112541
   21      C      -2.9508246682    -0.8834525291     1.2627300168
   22      C      -2.8245802544     0.6686188660     1.2627705885
   23      C      -2.1406673897    -1.2449088069    -0.0012291559
   24      C      -2.9488208309    -0.8811674184    -1.2654533289
   25      C      -2.8261641053     0.6709049757    -1.2594011441
   26      C      -1.9567853721     0.9171091010     0.0011914336
   27      O      -1.0999109598    -0.2522259548     0.0004871708
   28      H      -2.4840789110    -1.3112527191    -2.1545177086
   29      H      -3.9806470253    -1.2365727512    -1.2185345583
   30      H      -2.3056974250     1.0315271235    -2.1488604328
   31      H      -3.7902319389     1.1811902148    -1.2015051784
   32      H      -1.6949146194    -2.2383600013    -0.0019455461
   33      C      -1.1302824854     2.1821264575    -0.0004634828
   34      H      -0.4947417972     2.2247247882    -0.8884164361
   35      H      -0.4922314641     2.2267880954     0.8854401213
   36      H      -1.7819885242     3.0604523613    -0.0010766682
   37      H      -2.4878839245    -1.3173902120     2.1507487259
   38      H      -3.9832419633    -1.2357106065     1.2111549856
   39      H      -3.7878348822     1.1806600239     1.2084002433
   40      H      -2.3021567429     1.0260352686     2.1528634451
 ----------------------------------------------------------------

   13    -698.6057274071      6.39E-09 Convergence criterion met
 Total energy in the final basis set = -698.60572741

                    Orbital Energies (a.u.)
 --------------------------------------------------------------

 Alpha MOs
 -- Occupied --
-19.125 -19.102 -10.234 -10.227 -10.211 -10.203 -10.176 -10.176
-10.175 -10.175 -10.170 -10.152 -10.151 -10.151 -10.150 -10.150
 -1.056  -1.031  -0.809  -0.786  -0.781  -0.760  -0.758  -0.734
 -0.689  -0.667  -0.621  -0.598  -0.583  -0.565  -0.557  -0.539
 -0.509  -0.493  -0.486  -0.477  -0.465  -0.456  -0.440  -0.425
 -0.422  -0.413  -0.402  -0.400  -0.390  -0.381  -0.378  -0.370
 -0.360  -0.357  -0.354  -0.348  -0.341  -0.333  -0.329  -0.327
 -0.319  -0.310  -0.303  -0.287  -0.273  -0.247

          Ground-State Mulliken Net Atomic Charges

     Atom                 Charge (a.u.)
  ----------------------------------------
      1 C                    -0.382173
      2 C                    -0.019869
      3 C                    -0.119027
      4 C                    -0.383107
      5 C                    -0.018414
      6 C                    -0.194848
      7 O                    -0.080294
      8 H                     0.174061
      9 H                     0.083043
     10 H                     0.199615
     11 H                     0.030603
     12 H                     0.225917
     13 C                    -0.537427
     14 H                     0.148630
     15 H                     0.148466
     16 H                     0.139433
     17 H                     0.174269
     18 H                     0.081928
     19 H                     0.030930
     20 H                     0.199636
     21 C                    -0.580177
     22 C                    -0.330083
     23 C                     0.221602
     24 C                    -0.582986
     25 C                    -0.326058
     26 C                    -0.020677
     27 O                     0.162648
     28 H                     0.154586
     29 H                     0.146807
     30 H                     0.163811
     31 H                     0.149269
     32 H                     0.221409
     33 C                    -0.412008
     34 H                     0.172991
     35 H                     0.173079
     36 H                     0.169779
     37 H                     0.155062
     38 H                     0.146470
     39 H                     0.149192
     40 H                     0.163913
  ----------------------------------------
  Sum of atomic charges =     0.000000

                    Cartesian Multipole Moments
 -----------------------------------------------------------------
    Charge (ESU x 10^10)
                 0.0000
    Dipole Moment (Debye)
         X      -4.2005      Y       0.5844      Z      -0.0046
       Tot       4.2410
    Quadrupole Moments (Debye-Ang)
        XX    -107.5609     XY       2.1199     YY     -96.7935
        XZ       0.0022     YZ       0.0050     ZZ    -100.8901

 Total job time:  257.63s(wall), 1020.59s(cpu)
        *  Thank you very much for using Q-Chem.  Have a nice day.  *
