 Q-Chem 5.0, Q-Chem, Inc., Pleasanton, CA (2017)
 Q-Chem 5.0.1 for Intel X86 EM64T Linux

User input:
--------------------------------------------------------------
$molecule
0  1
C        +0.22194000        +2.33191000        +4.89366000
C        +0.66641000        +0.90120000        +5.31837000
C        +1.34589000        +2.70788000        +3.90372000
C        +2.64560000        +3.01801000        +4.67719000
C        +3.08424000        +1.58695000        +5.10576000
C        +1.96292000        +0.71139000        +4.48805000
O        +1.64697000        +1.44747000        +3.27977000
H        +3.38408000        +3.47718000        +4.01749000
H        +2.47960000        +3.69314000        +5.51970000
H        +4.04939000        +1.32044000        +4.67041000
H        +3.15560000        +1.46205000        +6.18857000
H        +1.07216000        +3.43467000        +3.14051000
C        +2.34069000        -0.71421000        +4.15891000
H        +3.21602000        -0.73861000        +3.50516000
H        +1.51662000        -1.22468000        +3.65467000
H        +2.57895000        -1.26389000        +5.07393000
H        -0.74384000        +2.31096000        +4.38570000
H        +0.15122000        +3.03128000        +5.72943000
H        +0.84588000        +0.80503000        +6.39147000
H        -0.07481000        +0.15197000        +5.03169000
@C        +0.20553000        +1.04146000        +0.58269000
@C        +0.65000000        -0.38925000        +1.00740000
@C        +1.32948000        +1.41743000        -0.40725000
@C        +2.62919000        +1.72756000        +0.36622000
@C        +3.06783000        +0.29650000        +0.79479000
@C        +1.94651000        -0.57906000        +0.17708000
@O        +1.63056000        +0.15702000        -1.03120000
@H        +3.36767000        +2.18673000        -0.29348000
@H        +2.46319000        +2.40269000        +1.20873000
@H        +4.03298000        +0.02999000        +0.35944000
@H        +3.13919000        +0.17160000        +1.87760000
@H        +1.05575000        +2.14422000        -1.17046000
@C        +2.32428000        -2.00466000        -0.15206000
@H        +3.19961000        -2.02906000        -0.80581000
@H        +1.50021000        -2.51513000        -0.65630000
@H        +2.56254000        -2.55434000        +0.76296000
@H        -0.76025000        +1.02051000        +0.07473000
@H        +0.13481000        +1.74083000        +1.41846000
@H        +0.82947000        -0.48542000        +2.08050000
@H        -0.09122000        -1.13848000        +0.72072000
$end

$rem
JOBTYPE                   SP
METHOD                    B3LYP
DFT_D                     d3_op
BASIS                     6-311++G(d,p)
SYMMETRY                  False
THRESH                    12
SCF_CONVERGENCE           8
MAX_SUB_FILE_NUM          128
MEM_STATIC                400
MEM_TOTAL                 4000
$end
--------------------------------------------------------------

             Standard Nuclear Orientation (Angstroms)
    I     Atom           X                Y                Z
 ----------------------------------------------------------------
    1      C       0.2219400000     2.3319100000     4.8936600000
    2      C       0.6664100000     0.9012000000     5.3183700000
    3      C       1.3458900000     2.7078800000     3.9037200000
    4      C       2.6456000000     3.0180100000     4.6771900000
    5      C       3.0842400000     1.5869500000     5.1057600000
    6      C       1.9629200000     0.7113900000     4.4880500000
    7      O       1.6469700000     1.4474700000     3.2797700000
    8      H       3.3840800000     3.4771800000     4.0174900000
    9      H       2.4796000000     3.6931400000     5.5197000000
   10      H       4.0493900000     1.3204400000     4.6704100000
   11      H       3.1556000000     1.4620500000     6.1885700000
   12      H       1.0721600000     3.4346700000     3.1405100000
   13      C       2.3406900000    -0.7142100000     4.1589100000
   14      H       3.2160200000    -0.7386100000     3.5051600000
   15      H       1.5166200000    -1.2246800000     3.6546700000
   16      H       2.5789500000    -1.2638900000     5.0739300000
   17      H      -0.7438400000     2.3109600000     4.3857000000
   18      H       0.1512200000     3.0312800000     5.7294300000
   19      H       0.8458800000     0.8050300000     6.3914700000
   20      H      -0.0748100000     0.1519700000     5.0316900000
   21      GH      0.2055300000     1.0414600000     0.5826900000
   22      GH      0.6500000000    -0.3892500000     1.0074000000
   23      GH      1.3294800000     1.4174300000    -0.4072500000
   24      GH      2.6291900000     1.7275600000     0.3662200000
   25      GH      3.0678300000     0.2965000000     0.7947900000
   26      GH      1.9465100000    -0.5790600000     0.1770800000
   27      GH      1.6305600000     0.1570200000    -1.0312000000
   28      GH      3.3676700000     2.1867300000    -0.2934800000
   29      GH      2.4631900000     2.4026900000     1.2087300000
   30      GH      4.0329800000     0.0299900000     0.3594400000
   31      GH      3.1391900000     0.1716000000     1.8776000000
   32      GH      1.0557500000     2.1442200000    -1.1704600000
   33      GH      2.3242800000    -2.0046600000    -0.1520600000
   34      GH      3.1996100000    -2.0290600000    -0.8058100000
   35      GH      1.5002100000    -2.5151300000    -0.6563000000
   36      GH      2.5625400000    -2.5543400000     0.7629600000
   37      GH     -0.7602500000     1.0205100000     0.0747300000
   38      GH      0.1348100000     1.7408300000     1.4184600000
   39      GH      0.8294700000    -0.4854200000     2.0805000000
   40      GH     -0.0912200000    -1.1384800000     0.7207200000
 ----------------------------------------------------------------

   13    -349.3037284807      2.93E-09 Convergence criterion met
 Total energy in the final basis set = -349.30372848

                    Orbital Energies (a.u.)
 --------------------------------------------------------------

 Alpha MOs
 -- Occupied --
-19.115 -10.224 -10.217 -10.168 -10.168 -10.168 -10.167 -10.161
 -1.045  -0.799  -0.773  -0.750  -0.679  -0.613  -0.573  -0.554
 -0.498  -0.481  -0.467  -0.434  -0.414  -0.405  -0.391  -0.371
 -0.362  -0.346  -0.344  -0.339  -0.319  -0.302  -0.262

          Ground-State Mulliken Net Atomic Charges

     Atom                 Charge (a.u.)
  ----------------------------------------
      1 C                    -0.586680
      2 C                    -0.334239
      3 C                     0.312146
      4 C                    -0.594168
      5 C                    -0.325409
      6 C                    -0.002444
      7 O                     0.144641
      8 H                     0.151305
      9 H                     0.141592
     10 H                     0.161634
     11 H                     0.145300
     12 H                     0.220411
     13 C                    -0.411828
     14 H                     0.153474
     15 H                     0.154361
     16 H                     0.171690
     17 H                     0.151124
     18 H                     0.140956
     19 H                     0.145478
     20 H                     0.162112
     21 GH                   -0.046955
     22 GH                   -0.033840
     23 GH                    0.031762
     24 GH                   -0.043815
     25 GH                   -0.036499
     26 GH                    0.104628
     27 GH                   -0.004776
     28 GH                   -0.002209
     29 GH                   -0.044182
     30 GH                   -0.005071
     31 GH                   -0.004119
     32 GH                    0.001687
     33 GH                    0.039571
     34 GH                    0.000106
     35 GH                    0.000096
     36 GH                   -0.000838
     37 GH                   -0.002245
     38 GH                   -0.044669
     39 GH                   -0.005058
     40 GH                   -0.005032
  ----------------------------------------
  Sum of atomic charges =     0.000000

                    Cartesian Multipole Moments
 -----------------------------------------------------------------
    Charge (ESU x 10^10)
                 0.0000
    Dipole Moment (Debye)
         X       0.0421      Y       0.3648      Z       1.5944
       Tot       1.6361
    Quadrupole Moments (Debye-Ang)
        XX     -49.7759     XY       0.0963     YY     -47.1728
        XZ       2.9622     YZ       3.0683     ZZ     -38.8237

 Total job time:  242.74s(wall), 964.25s(cpu)
        *  Thank you very much for using Q-Chem.  Have a nice day.  *
