 Q-Chem 5.0, Q-Chem, Inc., Pleasanton, CA (2017)
 Q-Chem 5.0.1 for Intel X86 EM64T Linux

User input:
--------------------------------------------------------------
$molecule
0  1
C        +0.22270000        +1.04488000        +0.58595000
C        +0.62626000        -0.41353000        +0.99871000
C        +1.33008000        +1.39974000        -0.43491000
C        +2.63070000        +1.71700000        +0.32855000
C        +3.04336000        +0.29351000        +0.80300000
C        +1.94423000        -0.59299000        +0.15262000
O        +1.62840000        +0.13663000        -1.04376000
H        +3.37234000        +2.13782000        -0.35195000
H        +2.48236000        +2.42488000        +1.14651000
H        +4.02182000        +0.00994000        +0.41161000
H        +3.07359000        +0.18738000        +1.88928000
H        +1.03270000        +2.19943000        -1.08064000
C        +2.35450000        -2.01267000        -0.16812000
H        +3.25743000        -2.00195000        -0.74215000
H        +1.57951000        -2.48932000        -0.73123000
H        +2.51687000        -2.55129000        +0.74206000
H        -0.74673000        +1.06811000        +0.13365000
H        +0.15552000        +1.72617000        +1.40828000
H        +0.81693000        -0.48905000        +2.04887000
H        -0.12524000        -1.15356000        +0.81843000
@C        +4.41712000        +3.11228000        +4.01709000
@C        +4.82068000        +1.65387000        +4.42985000
@C        +5.52450000        +3.46714000        +2.99623000
@C        +6.82512000        +3.78440000        +3.75969000
@C        +7.23778000        +2.36091000        +4.23414000
@C        +6.13865000        +1.47441000        +3.58376000
@O        +5.82282000        +2.20403000        +2.38738000
@H        +7.56676000        +4.20522000        +3.07919000
@H        +6.67678000        +4.49228000        +4.57765000
@H        +8.21624000        +2.07734000        +3.84275000
@H        +7.26801000        +2.25478000        +5.32042000
@H        +5.22712000        +4.26683000        +2.35050000
@C        +6.54892000        +0.05473000        +3.26302000
@H        +7.45185000        +0.06545000        +2.68899000
@H        +5.77393000        -0.42192000        +2.69991000
@H        +6.71129000        -0.48389000        +4.17320000
@H        +3.44769000        +3.13551000        +3.56479000
@H        +4.34994000        +3.79357000        +4.83942000
@H        +5.01135000        +1.57835000        +5.48001000
@H        +4.06918000        +0.91384000        +4.24957000
$end

$rem
JOBTYPE                   SP
METHOD                    B3LYP
DFT_D                     d3_op
BASIS                     6-311++G(d,p)
SYMMETRY                  False
THRESH                    12
SCF_CONVERGENCE           8
MAX_SUB_FILE_NUM          128
MEM_STATIC                400
MEM_TOTAL                 4000
$end
--------------------------------------------------------------

             Standard Nuclear Orientation (Angstroms)
    I     Atom           X                Y                Z
 ----------------------------------------------------------------
    1      C       0.2227000000     1.0448800000     0.5859500000
    2      C       0.6262600000    -0.4135300000     0.9987100000
    3      C       1.3300800000     1.3997400000    -0.4349100000
    4      C       2.6307000000     1.7170000000     0.3285500000
    5      C       3.0433600000     0.2935100000     0.8030000000
    6      C       1.9442300000    -0.5929900000     0.1526200000
    7      O       1.6284000000     0.1366300000    -1.0437600000
    8      H       3.3723400000     2.1378200000    -0.3519500000
    9      H       2.4823600000     2.4248800000     1.1465100000
   10      H       4.0218200000     0.0099400000     0.4116100000
   11      H       3.0735900000     0.1873800000     1.8892800000
   12      H       1.0327000000     2.1994300000    -1.0806400000
   13      C       2.3545000000    -2.0126700000    -0.1681200000
   14      H       3.2574300000    -2.0019500000    -0.7421500000
   15      H       1.5795100000    -2.4893200000    -0.7312300000
   16      H       2.5168700000    -2.5512900000     0.7420600000
   17      H      -0.7467300000     1.0681100000     0.1336500000
   18      H       0.1555200000     1.7261700000     1.4082800000
   19      H       0.8169300000    -0.4890500000     2.0488700000
   20      H      -0.1252400000    -1.1535600000     0.8184300000
   21      GH      4.4171200000     3.1122800000     4.0170900000
   22      GH      4.8206800000     1.6538700000     4.4298500000
   23      GH      5.5245000000     3.4671400000     2.9962300000
   24      GH      6.8251200000     3.7844000000     3.7596900000
   25      GH      7.2377800000     2.3609100000     4.2341400000
   26      GH      6.1386500000     1.4744100000     3.5837600000
   27      GH      5.8228200000     2.2040300000     2.3873800000
   28      GH      7.5667600000     4.2052200000     3.0791900000
   29      GH      6.6767800000     4.4922800000     4.5776500000
   30      GH      8.2162400000     2.0773400000     3.8427500000
   31      GH      7.2680100000     2.2547800000     5.3204200000
   32      GH      5.2271200000     4.2668300000     2.3505000000
   33      GH      6.5489200000     0.0547300000     3.2630200000
   34      GH      7.4518500000     0.0654500000     2.6889900000
   35      GH      5.7739300000    -0.4219200000     2.6999100000
   36      GH      6.7112900000    -0.4838900000     4.1732000000
   37      GH      3.4476900000     3.1355100000     3.5647900000
   38      GH      4.3499400000     3.7935700000     4.8394200000
   39      GH      5.0113500000     1.5783500000     5.4800100000
   40      GH      4.0691800000     0.9138400000     4.2495700000
 ----------------------------------------------------------------

   13    -349.2961408369      2.61E-09 Convergence criterion met
 Total energy in the final basis set = -349.29614084

                    Orbital Energies (a.u.)
 --------------------------------------------------------------

 Alpha MOs
 -- Occupied --
-19.119 -10.225 -10.216 -10.166 -10.166 -10.163 -10.162 -10.154
 -1.049  -0.798  -0.775  -0.748  -0.684  -0.615  -0.575  -0.556
 -0.503  -0.482  -0.465  -0.441  -0.418  -0.405  -0.392  -0.378
 -0.360  -0.348  -0.344  -0.336  -0.316  -0.301  -0.262

          Ground-State Mulliken Net Atomic Charges

     Atom                 Charge (a.u.)
  ----------------------------------------
      1 C                    -0.652783
      2 C                    -0.239661
      3 C                     0.370823
      4 C                    -0.593730
      5 C                    -0.097929
      6 C                    -0.036904
      7 O                    -0.068032
      8 H                     0.180459
      9 H                     0.087580
     10 H                     0.164724
     11 H                     0.044466
     12 H                     0.253352
     13 C                    -0.464528
     14 H                     0.145598
     15 H                     0.159695
     16 H                     0.141403
     17 H                     0.172267
     18 H                     0.118131
     19 H                     0.136530
     20 H                     0.169745
     21 GH                    0.008126
     22 GH                    0.004762
     23 GH                   -0.021090
     24 GH                    0.003260
     25 GH                   -0.007360
     26 GH                   -0.008266
     27 GH                    0.005313
     28 GH                   -0.000263
     29 GH                    0.000150
     30 GH                   -0.000146
     31 GH                   -0.000021
     32 GH                    0.001786
     33 GH                   -0.000970
     34 GH                    0.001715
     35 GH                    0.004074
     36 GH                   -0.001126
     37 GH                    0.012207
     38 GH                   -0.001404
     39 GH                   -0.000642
     40 GH                    0.008686
  ----------------------------------------
  Sum of atomic charges =     0.000000

                    Cartesian Multipole Moments
 -----------------------------------------------------------------
    Charge (ESU x 10^10)
                 0.0000
    Dipole Moment (Debye)
         X      -0.0063      Y       0.4048      Z       1.6167
       Tot       1.6666
    Quadrupole Moments (Debye-Ang)
        XX     -49.7906     XY      -0.0694     YY     -47.6122
        XZ       2.5575     YZ      -0.6746     ZZ     -52.6569

 Total job time:  202.01s(wall), 800.42s(cpu)
        *  Thank you very much for using Q-Chem.  Have a nice day.  *
