 Q-Chem 5.0, Q-Chem, Inc., Pleasanton, CA (2017)
 Q-Chem 5.0.1 for Intel X86 EM64T Linux

User input:
--------------------------------------------------------------
$molecule
0  1
C        +3.47699000        +2.64889000        +3.24804000
C        +3.88055000        +1.19048000        +3.66080000
C        +4.58437000        +3.00375000        +2.22718000
C        +5.88499000        +3.32101000        +2.99064000
C        +6.29765000        +1.89752000        +3.46509000
C        +5.19852000        +1.01102000        +2.81471000
O        +4.88269000        +1.74064000        +1.61833000
H        +6.62663000        +3.74183000        +2.31014000
H        +5.73665000        +4.02889000        +3.80860000
H        +7.27611000        +1.61395000        +3.07370000
H        +6.32788000        +1.79139000        +4.55137000
H        +4.28699000        +3.80344000        +1.58145000
C        +5.60879000        -0.40866000        +2.49397000
H        +6.51172000        -0.39794000        +1.91994000
H        +4.83380000        -0.88531000        +1.93086000
H        +5.77116000        -0.94728000        +3.40415000
H        +2.50756000        +2.67212000        +2.79574000
H        +3.40981000        +3.33018000        +4.07037000
H        +4.07122000        +1.11496000        +4.71096000
H        +3.12905000        +0.45045000        +3.48052000
@C        +0.22270000        +1.04488000        +0.58595000
@C        +0.62626000        -0.41353000        +0.99871000
@C        +1.33008000        +1.39974000        -0.43491000
@C        +2.63070000        +1.71700000        +0.32855000
@C        +3.04336000        +0.29351000        +0.80300000
@C        +1.94423000        -0.59299000        +0.15262000
@O        +1.62840000        +0.13663000        -1.04376000
@H        +3.37234000        +2.13782000        -0.35195000
@H        +2.48236000        +2.42488000        +1.14651000
@H        +4.02182000        +0.00994000        +0.41161000
@H        +3.07359000        +0.18738000        +1.88928000
@H        +1.03270000        +2.19943000        -1.08064000
@C        +2.35450000        -2.01267000        -0.16812000
@H        +3.25743000        -2.00195000        -0.74215000
@H        +1.57951000        -2.48932000        -0.73123000
@H        +2.51687000        -2.55129000        +0.74206000
@H        -0.74673000        +1.06811000        +0.13365000
@H        +0.15552000        +1.72617000        +1.40828000
@H        +0.81693000        -0.48905000        +2.04887000
@H        -0.12524000        -1.15356000        +0.81843000
$end

$rem
JOBTYPE                   SP
METHOD                    B3LYP
DFT_D                     d3_op
BASIS                     6-311++G(d,p)
SYMMETRY                  False
THRESH                    12
SCF_CONVERGENCE           8
MAX_SUB_FILE_NUM          128
MEM_STATIC                400
MEM_TOTAL                 4000
$end
--------------------------------------------------------------

             Standard Nuclear Orientation (Angstroms)
    I     Atom           X                Y                Z
 ----------------------------------------------------------------
    1      C       3.4769900000     2.6488900000     3.2480400000
    2      C       3.8805500000     1.1904800000     3.6608000000
    3      C       4.5843700000     3.0037500000     2.2271800000
    4      C       5.8849900000     3.3210100000     2.9906400000
    5      C       6.2976500000     1.8975200000     3.4650900000
    6      C       5.1985200000     1.0110200000     2.8147100000
    7      O       4.8826900000     1.7406400000     1.6183300000
    8      H       6.6266300000     3.7418300000     2.3101400000
    9      H       5.7366500000     4.0288900000     3.8086000000
   10      H       7.2761100000     1.6139500000     3.0737000000
   11      H       6.3278800000     1.7913900000     4.5513700000
   12      H       4.2869900000     3.8034400000     1.5814500000
   13      C       5.6087900000    -0.4086600000     2.4939700000
   14      H       6.5117200000    -0.3979400000     1.9199400000
   15      H       4.8338000000    -0.8853100000     1.9308600000
   16      H       5.7711600000    -0.9472800000     3.4041500000
   17      H       2.5075600000     2.6721200000     2.7957400000
   18      H       3.4098100000     3.3301800000     4.0703700000
   19      H       4.0712200000     1.1149600000     4.7109600000
   20      H       3.1290500000     0.4504500000     3.4805200000
   21      GH      0.2227000000     1.0448800000     0.5859500000
   22      GH      0.6262600000    -0.4135300000     0.9987100000
   23      GH      1.3300800000     1.3997400000    -0.4349100000
   24      GH      2.6307000000     1.7170000000     0.3285500000
   25      GH      3.0433600000     0.2935100000     0.8030000000
   26      GH      1.9442300000    -0.5929900000     0.1526200000
   27      GH      1.6284000000     0.1366300000    -1.0437600000
   28      GH      3.3723400000     2.1378200000    -0.3519500000
   29      GH      2.4823600000     2.4248800000     1.1465100000
   30      GH      4.0218200000     0.0099400000     0.4116100000
   31      GH      3.0735900000     0.1873800000     1.8892800000
   32      GH      1.0327000000     2.1994300000    -1.0806400000
   33      GH      2.3545000000    -2.0126700000    -0.1681200000
   34      GH      3.2574300000    -2.0019500000    -0.7421500000
   35      GH      1.5795100000    -2.4893200000    -0.7312300000
   36      GH      2.5168700000    -2.5512900000     0.7420600000
   37      GH     -0.7467300000     1.0681100000     0.1336500000
   38      GH      0.1555200000     1.7261700000     1.4082800000
   39      GH      0.8169300000    -0.4890500000     2.0488700000
   40      GH     -0.1252400000    -1.1535600000     0.8184300000
 ----------------------------------------------------------------

   13    -349.2969923615      2.62E-09 Convergence criterion met
 Total energy in the final basis set = -349.29699236

                    Orbital Energies (a.u.)
 --------------------------------------------------------------

 Alpha MOs
 -- Occupied --
-19.119 -10.225 -10.216 -10.166 -10.166 -10.163 -10.162 -10.154
 -1.049  -0.798  -0.775  -0.748  -0.684  -0.614  -0.575  -0.556
 -0.503  -0.482  -0.464  -0.440  -0.418  -0.405  -0.392  -0.377
 -0.360  -0.348  -0.344  -0.336  -0.316  -0.301  -0.262

          Ground-State Mulliken Net Atomic Charges

     Atom                 Charge (a.u.)
  ----------------------------------------
      1 C                    -0.353342
      2 C                    -0.482464
      3 C                     0.250334
      4 C                    -0.694425
      5 C                    -0.435654
      6 C                     0.385523
      7 O                     0.043967
      8 H                     0.159560
      9 H                     0.128827
     10 H                     0.157595
     11 H                     0.133230
     12 H                     0.228683
     13 C                    -0.444632
     14 H                     0.152589
     15 H                     0.105931
     16 H                     0.147890
     17 H                     0.122146
     18 H                     0.182092
     19 H                     0.173847
     20 H                     0.193557
     21 GH                   -0.007436
     22 GH                   -0.000930
     23 GH                   -0.082561
     24 GH                    0.070532
     25 GH                   -0.021771
     26 GH                   -0.115899
     27 GH                   -0.002005
     28 GH                    0.006320
     29 GH                   -0.000300
     30 GH                    0.041222
     31 GH                   -0.072409
     32 GH                   -0.002289
     33 GH                    0.027889
     34 GH                   -0.002857
     35 GH                   -0.000268
     36 GH                    0.005327
     37 GH                   -0.000133
     38 GH                    0.002332
     39 GH                    0.000223
     40 GH                   -0.000239
  ----------------------------------------
  Sum of atomic charges =     0.000000

                    Cartesian Multipole Moments
 -----------------------------------------------------------------
    Charge (ESU x 10^10)
                 0.0000
    Dipole Moment (Debye)
         X      -0.0099      Y       0.3972      Z       1.6033
       Tot       1.6518
    Quadrupole Moments (Debye-Ang)
        XX     -49.8722     XY       1.1971     YY     -46.3696
        XZ       7.7373     YZ       2.9725     ZZ     -44.0846

 Total job time:  278.15s(wall), 1102.64s(cpu)
        *  Thank you very much for using Q-Chem.  Have a nice day.  *
