 Q-Chem 5.0, Q-Chem, Inc., Pleasanton, CA (2017)
 Q-Chem 5.0.1 for Intel X86 EM64T Linux

User input:
--------------------------------------------------------------
$molecule
0  1
--
0  1
C        +0.22270000        +1.04488000        +0.58595000
C        +0.62626000        -0.41353000        +0.99871000
C        +1.33008000        +1.39974000        -0.43491000
C        +2.63070000        +1.71700000        +0.32855000
C        +3.04336000        +0.29351000        +0.80300000
C        +1.94423000        -0.59299000        +0.15262000
O        +1.62840000        +0.13663000        -1.04376000
H        +3.37234000        +2.13782000        -0.35195000
H        +2.48236000        +2.42488000        +1.14651000
H        +4.02182000        +0.00994000        +0.41161000
H        +3.07359000        +0.18738000        +1.88928000
H        +1.03270000        +2.19943000        -1.08064000
C        +2.35450000        -2.01267000        -0.16812000
H        +3.25743000        -2.00195000        -0.74215000
H        +1.57951000        -2.48932000        -0.73123000
H        +2.51687000        -2.55129000        +0.74206000
H        -0.74673000        +1.06811000        +0.13365000
H        +0.15552000        +1.72617000        +1.40828000
H        +0.81693000        -0.48905000        +2.04887000
H        -0.12524000        -1.15356000        +0.81843000
--
0  1
C        +4.41712000        +3.11228000        +4.01709000
C        +4.82068000        +1.65387000        +4.42985000
C        +5.52450000        +3.46714000        +2.99623000
C        +6.82512000        +3.78440000        +3.75969000
C        +7.23778000        +2.36091000        +4.23414000
C        +6.13865000        +1.47441000        +3.58376000
O        +5.82282000        +2.20403000        +2.38738000
H        +7.56676000        +4.20522000        +3.07919000
H        +6.67678000        +4.49228000        +4.57765000
H        +8.21624000        +2.07734000        +3.84275000
H        +7.26801000        +2.25478000        +5.32042000
H        +5.22712000        +4.26683000        +2.35050000
C        +6.54892000        +0.05473000        +3.26302000
H        +7.45185000        +0.06545000        +2.68899000
H        +5.77393000        -0.42192000        +2.69991000
H        +6.71129000        -0.48389000        +4.17320000
H        +3.44769000        +3.13551000        +3.56479000
H        +4.34994000        +3.79357000        +4.83942000
H        +5.01135000        +1.57835000        +5.48001000
H        +4.06918000        +0.91384000        +4.24957000
$end

$rem
JOBTYPE                   SP
METHOD                    B3LYP
DFT_D                     d3_op
BASIS                     6-311++G(d,p)
SYMMETRY                  False
THRESH                    12
SCF_CONVERGENCE           8
MAX_SUB_FILE_NUM          128
MEM_STATIC                400
MEM_TOTAL                 4000
$end
--------------------------------------------------------------

             Standard Nuclear Orientation (Angstroms)
    I     Atom           X                Y                Z
 ----------------------------------------------------------------
    1      C       3.4366746319    -1.5035409967     0.8165175695
    2      C       3.4604780339    -0.0139422368     1.3071499696
    3      C       3.0744205625    -1.3356438677    -0.6784586065
    4      C       1.5706056197    -1.0196175737    -0.7959552572
    5      C       1.5394394143     0.4438835384    -0.2678378263
    6      C       3.0477628204     0.7283942048    -0.0209019348
    7      O       3.6819794343    -0.0834381150    -1.0219596797
    8      H       1.2567140891    -1.0705199721    -1.8395455335
    9      H       0.9452240278    -1.7055762012    -0.2210500151
   10      H       1.1554132647     1.1327340942    -1.0221526656
   11      H       0.9398357477     0.5688445597     0.6360658491
   12      H       3.3554313547    -2.1932219414    -1.2533490095
   13      C       3.4691363960     2.1752421820    -0.1464493904
   14      H       3.1325002626     2.5646541928    -1.0845018110
   15      H       4.5358085743     2.2418484044    -0.0947611909
   16      H       3.0372587262     2.7430009535     0.6510685149
   17      H       4.3926666640    -1.9689847558     0.9363123500
   18      H       2.7596546830    -2.1290601472     1.3599010681
   19      H       2.7527053842     0.1556137797     2.0914987304
   20      H       4.3921686990     0.3040918156     1.7263210270
   21      C      -2.3601744592    -1.4011078149     0.9779847624
   22      C      -2.3363710572     0.0884909450     1.4686171625
   23      C      -2.7224285286    -1.2332106858    -0.5169914136
   24      C      -4.2262434714    -0.9171843919    -0.6344880643
   25      C      -4.2574096768     0.5463167202    -0.1063706334
   26      C      -2.7490862707     0.8308273866     0.1405652582
   27      O      -2.1148696567     0.0189950668    -0.8604924868
   28      H      -4.5401350020    -0.9680867903    -1.6780783406
   29      H      -4.8516250633    -1.6031430194    -0.0595828222
   30      H      -4.6414358264     1.2351672760    -0.8606854726
   31      H      -4.8570133434     0.6712777415     0.7975330420
   32      H      -2.4414177364    -2.0907887596    -1.0918818166
   33      C      -2.3277126951     2.2776753638     0.0150178025
   34      H      -2.6643488285     2.6670873747    -0.9230346180
   35      H      -1.2610405168     2.3442815863     0.0667060020
   36      H      -2.7595903649     2.8454341353     0.8125357078
   37      H      -1.4041824271    -1.8665515740     1.0977795429
   38      H      -3.0371944081    -2.0266269654     1.5213682610
   39      H      -3.0441437069     0.2580469615     2.2529659233
   40      H      -1.4046803921     0.4065249974     1.8877882199
 ----------------------------------------------------------------

   13    -698.5954788310      5.67E-09 Convergence criterion met
 Total energy in the final basis set = -698.59547883

                    Orbital Energies (a.u.)
 --------------------------------------------------------------

 Alpha MOs
 -- Occupied --
-19.121 -19.114 -10.228 -10.220 -10.219 -10.211 -10.168 -10.168
-10.166 -10.166 -10.159 -10.159 -10.159 -10.158 -10.157 -10.150
 -1.052  -1.044  -0.801  -0.793  -0.778  -0.770  -0.751  -0.743
 -0.686  -0.679  -0.618  -0.609  -0.578  -0.570  -0.559  -0.551
 -0.506  -0.498  -0.485  -0.476  -0.468  -0.459  -0.443  -0.436
 -0.420  -0.413  -0.408  -0.399  -0.395  -0.387  -0.380  -0.373
 -0.363  -0.355  -0.351  -0.346  -0.343  -0.339  -0.338  -0.331
 -0.319  -0.311  -0.304  -0.295  -0.265  -0.257

          Ground-State Mulliken Net Atomic Charges

     Atom                 Charge (a.u.)
  ----------------------------------------
      1 C                    -0.657422
      2 C                    -0.236728
      3 C                     0.376458
      4 C                    -0.573705
      5 C                    -0.124190
      6 C                    -0.039200
      7 O                    -0.070744
      8 H                     0.187838
      9 H                     0.069546
     10 H                     0.169871
     11 H                     0.019768
     12 H                     0.251248
     13 C                    -0.453033
     14 H                     0.147762
     15 H                     0.157975
     16 H                     0.139329
     17 H                     0.170742
     18 H                     0.116034
     19 H                     0.133842
     20 H                     0.168031
     21 C                    -0.410763
     22 C                    -0.349448
     23 C                     0.185217
     24 C                    -0.667361
     25 C                    -0.420031
     26 C                     0.232186
     27 O                    -0.036565
     28 H                     0.165610
     29 H                     0.127092
     30 H                     0.153671
     31 H                     0.141045
     32 H                     0.234278
     33 C                    -0.345255
     34 H                     0.156238
     35 H                     0.149036
     36 H                     0.137827
     37 H                     0.129074
     38 H                     0.152973
     39 H                     0.150380
     40 H                     0.161374
  ----------------------------------------
  Sum of atomic charges =     0.000000

                    Cartesian Multipole Moments
 -----------------------------------------------------------------
    Charge (ESU x 10^10)
                 0.0000
    Dipole Moment (Debye)
         X      -2.4200      Y      -0.6370      Z       2.2803
       Tot       3.3856
    Quadrupole Moments (Debye-Ang)
        XX    -103.9793     XY      -0.1703     YY     -95.3089
        XZ       3.3490     YZ       1.5840     ZZ    -103.1283

 Total job time:  224.00s(wall), 888.97s(cpu)
        *  Thank you very much for using Q-Chem.  Have a nice day.  *
