 Q-Chem 5.0, Q-Chem, Inc., Pleasanton, CA (2017)
 Q-Chem 5.0.1 for Intel X86 EM64T Linux

User input:
--------------------------------------------------------------
$molecule
0  1
--
0  1
C        +0.22270000        +1.04488000        +0.58595000
C        +0.62626000        -0.41353000        +0.99871000
C        +1.33008000        +1.39974000        -0.43491000
C        +2.63070000        +1.71700000        +0.32855000
C        +3.04336000        +0.29351000        +0.80300000
C        +1.94423000        -0.59299000        +0.15262000
O        +1.62840000        +0.13663000        -1.04376000
H        +3.37234000        +2.13782000        -0.35195000
H        +2.48236000        +2.42488000        +1.14651000
H        +4.02182000        +0.00994000        +0.41161000
H        +3.07359000        +0.18738000        +1.88928000
H        +1.03270000        +2.19943000        -1.08064000
C        +2.35450000        -2.01267000        -0.16812000
H        +3.25743000        -2.00195000        -0.74215000
H        +1.57951000        -2.48932000        -0.73123000
H        +2.51687000        -2.55129000        +0.74206000
H        -0.74673000        +1.06811000        +0.13365000
H        +0.15552000        +1.72617000        +1.40828000
H        +0.81693000        -0.48905000        +2.04887000
H        -0.12524000        -1.15356000        +0.81843000
--
0  1
C        +3.47699000        +2.64889000        +3.24804000
C        +3.88055000        +1.19048000        +3.66080000
C        +4.58437000        +3.00375000        +2.22718000
C        +5.88499000        +3.32101000        +2.99064000
C        +6.29765000        +1.89752000        +3.46509000
C        +5.19852000        +1.01102000        +2.81471000
O        +4.88269000        +1.74064000        +1.61833000
H        +6.62663000        +3.74183000        +2.31014000
H        +5.73665000        +4.02889000        +3.80860000
H        +7.27611000        +1.61395000        +3.07370000
H        +6.32788000        +1.79139000        +4.55137000
H        +4.28699000        +3.80344000        +1.58145000
C        +5.60879000        -0.40866000        +2.49397000
H        +6.51172000        -0.39794000        +1.91994000
H        +4.83380000        -0.88531000        +1.93086000
H        +5.77116000        -0.94728000        +3.40415000
H        +2.50756000        +2.67212000        +2.79574000
H        +3.40981000        +3.33018000        +4.07037000
H        +4.07122000        +1.11496000        +4.71096000
H        +3.12905000        +0.45045000        +3.48052000
$end

$rem
JOBTYPE                   SP
METHOD                    B3LYP
DFT_D                     d3_op
BASIS                     6-311++G(d,p)
SYMMETRY                  False
THRESH                    12
SCF_CONVERGENCE           8
MAX_SUB_FILE_NUM          128
MEM_STATIC                400
MEM_TOTAL                 4000
$end
--------------------------------------------------------------

             Standard Nuclear Orientation (Angstroms)
    I     Atom           X                Y                Z
 ----------------------------------------------------------------
    1      C       2.7808328844    -1.5329747092     0.7792956934
    2      C       2.8340238215    -0.0455098528     1.2740787212
    3      C       2.3939627443    -1.3550703983    -0.7083375862
    4      C       0.8927669210    -1.0180461565    -0.7975744844
    5      C       0.8913204309     0.4439511194    -0.2643984052
    6      C       2.4076380320     0.7069044509    -0.0439451689
    7      O       3.0124095896    -0.1101641334    -1.0588684809
    8      H       0.5593912294    -1.0611089900    -1.8354597635
    9      H       0.2684870738    -1.6972995733    -0.2135822930
   10      H       0.5032501506     1.1405517221    -1.0094696142
   11      H       0.3099323916     0.5740705256     0.6506090025
   12      H       2.6526927711    -2.2144748723    -1.2909085404
   13      C       2.8465693514     2.1482511632    -0.1725759372
   14      H       2.4984296800     2.5454140591    -1.1031501403
   15      H       3.9148180475     2.2000412907    -0.1400167470
   16      H       2.4370422274     2.7191825575     0.6344110710
   17      H       3.7323300486    -2.0118931533     0.8802893473
   18      H       2.1051910252    -2.1509796459     1.3328964715
   19      H       2.1429481462     0.1310883320     2.0716511863
   20      H       3.7774328717     0.2582926540     1.6772919777
   21      C      -1.7121963895    -1.3922200491     0.9862998512
   22      C      -1.6590054524     0.0952448072     1.4810828790
   23      C      -2.0990665297    -1.2143157383    -0.5013334283
   24      C      -3.6002623530    -0.8772914964    -0.5905703266
   25      C      -3.6017088431     0.5847057794    -0.0573942474
   26      C      -2.0853912420     0.8476591109     0.1630589890
   27      O      -1.4806196844     0.0305905266    -0.8518643231
   28      H      -3.9336380446    -0.9203543299    -1.6284556057
   29      H      -4.2245422002    -1.5565449133    -0.0065781351
   30      H      -3.9897791234     1.2813063821    -0.8024654564
   31      H      -4.1830968823     0.7148251856     0.8576131603
   32      H      -1.8403365028    -2.0737202123    -1.0839043826
   33      C      -1.6464599225     2.2890058232     0.0344282207
   34      H      -1.9945995939     2.6861687192    -0.8961459824
   35      H      -0.5782112265     2.3407959508     0.0669874108
   36      H      -2.0559870466     2.8599372175     0.8414152289
   37      H      -0.7606992253    -1.8711384933     1.0872935051
   38      H      -2.3878382488    -2.0102249859     1.5399006294
   39      H      -2.3500811277     0.2718429920     2.2786553441
   40      H      -0.7155964023     0.3990473140     1.8842961356
 ----------------------------------------------------------------

   13    -698.5641538850      7.07E-09 Convergence criterion met
 Total energy in the final basis set = -698.56415389

                    Orbital Energies (a.u.)
 --------------------------------------------------------------

 Alpha MOs
 -- Occupied --
-19.121 -19.107 -10.232 -10.222 -10.211 -10.203 -10.171 -10.171
-10.171 -10.169 -10.157 -10.155 -10.155 -10.148 -10.147 -10.145
 -1.058  -1.037  -0.806  -0.788  -0.783  -0.765  -0.758  -0.735
 -0.690  -0.675  -0.626  -0.604  -0.583  -0.569  -0.562  -0.546
 -0.511  -0.496  -0.493  -0.481  -0.463  -0.449  -0.448  -0.431
 -0.424  -0.414  -0.414  -0.399  -0.392  -0.384  -0.381  -0.372
 -0.366  -0.355  -0.353  -0.347  -0.342  -0.336  -0.329  -0.322
 -0.319  -0.306  -0.303  -0.287  -0.268  -0.243

          Ground-State Mulliken Net Atomic Charges

     Atom                 Charge (a.u.)
  ----------------------------------------
      1 C                    -0.546815
      2 C                    -0.149138
      3 C                    -0.029335
      4 C                    -0.101427
      5 C                    -0.125905
      6 C                    -0.273124
      7 O                    -0.030180
      8 H                     0.213626
      9 H                     0.039571
     10 H                     0.220338
     11 H                    -0.158136
     12 H                     0.235104
     13 C                    -0.544387
     14 H                     0.147391
     15 H                     0.164240
     16 H                     0.150750
     17 H                     0.171996
     18 H                     0.112440
     19 H                     0.116652
     20 H                     0.170905
     21 C                    -0.404491
     22 C                    -0.438116
     23 C                     0.208623
     24 C                    -0.680132
     25 C                    -0.461039
     26 C                     0.339495
     27 O                     0.103419
     28 H                     0.161842
     29 H                     0.131061
     30 H                     0.160196
     31 H                     0.133656
     32 H                     0.237010
     33 C                    -0.422875
     34 H                     0.160112
     35 H                     0.123485
     36 H                     0.146573
     37 H                     0.119504
     38 H                     0.183330
     39 H                     0.174436
     40 H                     0.239345
  ----------------------------------------
  Sum of atomic charges =    -0.000000

                    Cartesian Multipole Moments
 -----------------------------------------------------------------
    Charge (ESU x 10^10)
                -0.0000
    Dipole Moment (Debye)
         X      -2.9299      Y      -0.5927      Z       2.2343
       Tot       3.7320
    Quadrupole Moments (Debye-Ang)
        XX    -104.8728     XY       0.1288     YY     -95.8055
        XZ       3.4311     YZ       1.4723     ZZ    -103.3173

 Total job time:  288.62s(wall), 1146.93s(cpu)
        *  Thank you very much for using Q-Chem.  Have a nice day.  *
