 Q-Chem 5.0, Q-Chem, Inc., Pleasanton, CA (2017)
 Q-Chem 5.0.1 for Intel X86 EM64T Linux

User input:
--------------------------------------------------------------
$molecule
0  1
C        +0.22270000        +1.04488000        +0.58595000
C        +0.62626000        -0.41353000        +0.99871000
C        +1.33008000        +1.39974000        -0.43491000
C        +2.63070000        +1.71700000        +0.32855000
C        +3.04336000        +0.29351000        +0.80300000
C        +1.94423000        -0.59299000        +0.15262000
O        +1.62840000        +0.13663000        -1.04376000
H        +3.37234000        +2.13782000        -0.35195000
H        +2.48236000        +2.42488000        +1.14651000
H        +4.02182000        +0.00994000        +0.41161000
H        +3.07359000        +0.18738000        +1.88928000
C        +0.90028000        +2.39077000        -1.49430000
C        +2.35450000        -2.01267000        -0.16812000
H        +3.26311000        -2.00678000        -0.77366000
H        +2.54990000        -2.57059000        +0.75079000
H        +1.57335000        -2.52896000        -0.72872000
H        +1.71845000        +2.58186000        -2.15686000
H        +0.59919000        +3.30478000        -1.02650000
H        +0.07925000        +1.98653000        -2.04874000
H        +0.81693000        -0.48905000        +2.04887000
H        -0.12524000        -1.15356000        +0.81843000
H        -0.74673000        +1.06811000        +0.13365000
H        +0.15552000        +1.72617000        +1.40828000
@C        +3.60027000        +2.85018000        +2.94876000
@C        +4.00383000        +1.39177000        +3.36152000
@C        +4.70765000        +3.20504000        +1.92790000
@C        +6.00827000        +3.52230000        +2.69136000
@C        +6.42093000        +2.09881000        +3.16581000
@C        +5.32180000        +1.21231000        +2.51543000
@O        +5.00597000        +1.94193000        +1.31905000
@H        +6.74991000        +3.94312000        +2.01086000
@H        +5.85993000        +4.23018000        +3.50932000
@H        +7.39939000        +1.81524000        +2.77442000
@H        +6.45116000        +1.99268000        +4.25209000
@C        +4.27785000        +4.19607000        +0.86851000
@C        +5.73207000        -0.20737000        +2.19469000
@H        +6.64068000        -0.20148000        +1.58915000
@H        +5.92747000        -0.76529000        +3.11360000
@H        +4.95092000        -0.72366000        +1.63409000
@H        +5.09602000        +4.38716000        +0.20595000
@H        +3.97676000        +5.11008000        +1.33631000
@H        +3.45682000        +3.79183000        +0.31407000
@H        +4.19450000        +1.31625000        +4.41168000
@H        +3.25233000        +0.65174000        +3.18124000
@H        +2.63084000        +2.87341000        +2.49646000
@H        +3.53309000        +3.53147000        +3.77109000
$end

$rem
JOBTYPE                   SP
METHOD                    B3LYP
DFT_D                     d3_op
BASIS                     6-311++G(d,p)
SYMMETRY                  False
THRESH                    12
SCF_CONVERGENCE           8
MAX_SUB_FILE_NUM          128
MEM_STATIC                400
MEM_TOTAL                 4000
$end
--------------------------------------------------------------

             Standard Nuclear Orientation (Angstroms)
    I     Atom           X                Y                Z
 ----------------------------------------------------------------
    1      C       0.2227000000     1.0448800000     0.5859500000
    2      C       0.6262600000    -0.4135300000     0.9987100000
    3      C       1.3300800000     1.3997400000    -0.4349100000
    4      C       2.6307000000     1.7170000000     0.3285500000
    5      C       3.0433600000     0.2935100000     0.8030000000
    6      C       1.9442300000    -0.5929900000     0.1526200000
    7      O       1.6284000000     0.1366300000    -1.0437600000
    8      H       3.3723400000     2.1378200000    -0.3519500000
    9      H       2.4823600000     2.4248800000     1.1465100000
   10      H       4.0218200000     0.0099400000     0.4116100000
   11      H       3.0735900000     0.1873800000     1.8892800000
   12      C       0.9002800000     2.3907700000    -1.4943000000
   13      C       2.3545000000    -2.0126700000    -0.1681200000
   14      H       3.2631100000    -2.0067800000    -0.7736600000
   15      H       2.5499000000    -2.5705900000     0.7507900000
   16      H       1.5733500000    -2.5289600000    -0.7287200000
   17      H       1.7184500000     2.5818600000    -2.1568600000
   18      H       0.5991900000     3.3047800000    -1.0265000000
   19      H       0.0792500000     1.9865300000    -2.0487400000
   20      H       0.8169300000    -0.4890500000     2.0488700000
   21      H      -0.1252400000    -1.1535600000     0.8184300000
   22      H      -0.7467300000     1.0681100000     0.1336500000
   23      H       0.1555200000     1.7261700000     1.4082800000
   24      GH      3.6002700000     2.8501800000     2.9487600000
   25      GH      4.0038300000     1.3917700000     3.3615200000
   26      GH      4.7076500000     3.2050400000     1.9279000000
   27      GH      6.0082700000     3.5223000000     2.6913600000
   28      GH      6.4209300000     2.0988100000     3.1658100000
   29      GH      5.3218000000     1.2123100000     2.5154300000
   30      GH      5.0059700000     1.9419300000     1.3190500000
   31      GH      6.7499100000     3.9431200000     2.0108600000
   32      GH      5.8599300000     4.2301800000     3.5093200000
   33      GH      7.3993900000     1.8152400000     2.7744200000
   34      GH      6.4511600000     1.9926800000     4.2520900000
   35      GH      4.2778500000     4.1960700000     0.8685100000
   36      GH      5.7320700000    -0.2073700000     2.1946900000
   37      GH      6.6406800000    -0.2014800000     1.5891500000
   38      GH      5.9274700000    -0.7652900000     3.1136000000
   39      GH      4.9509200000    -0.7236600000     1.6340900000
   40      GH      5.0960200000     4.3871600000     0.2059500000
   41      GH      3.9767600000     5.1100800000     1.3363100000
   42      GH      3.4568200000     3.7918300000     0.3140700000
   43      GH      4.1945000000     1.3162500000     4.4116800000
   44      GH      3.2523300000     0.6517400000     3.1812400000
   45      GH      2.6308400000     2.8734100000     2.4964600000
   46      GH      3.5330900000     3.5314700000     3.7710900000
 ----------------------------------------------------------------

   12    -388.6335104035      6.99E-09 Convergence criterion met
 Total energy in the final basis set = -388.63351040

                    Orbital Energies (a.u.)
 --------------------------------------------------------------

 Alpha MOs
 -- Occupied --
-19.115 -10.224 -10.221 -10.166 -10.165 -10.162 -10.161 -10.160
-10.151  -1.049  -0.799  -0.789  -0.748  -0.717  -0.652  -0.616
 -0.562  -0.555  -0.486  -0.474  -0.464  -0.444  -0.420  -0.410
 -0.406  -0.402  -0.384  -0.360  -0.346  -0.343  -0.340  -0.333
 -0.316  -0.299  -0.261

          Ground-State Mulliken Net Atomic Charges

     Atom                 Charge (a.u.)
  ----------------------------------------
      1 C                    -0.397130
      2 C                    -0.418516
      3 C                    -0.205843
      4 C                    -0.282704
      5 C                    -0.209665
      6 C                    -0.248898
      7 O                     0.080524
      8 H                     0.207280
      9 H                     0.057850
     10 H                     0.198907
     11 H                     0.067189
     12 C                    -0.222371
     13 C                    -0.267998
     14 H                     0.149362
     15 H                     0.158379
     16 H                     0.166842
     17 H                     0.140023
     18 H                     0.154043
     19 H                     0.165128
     20 H                     0.132364
     21 H                     0.176867
     22 H                     0.162549
     23 H                     0.142125
     24 GH                    0.066978
     25 GH                    0.047450
     26 GH                   -0.062951
     27 GH                   -0.021991
     28 GH                   -0.011839
     29 GH                   -0.021629
     30 GH                    0.041809
     31 GH                   -0.000770
     32 GH                   -0.000041
     33 GH                   -0.000208
     34 GH                   -0.000120
     35 GH                    0.000231
     36 GH                   -0.035146
     37 GH                    0.001281
     38 GH                   -0.001214
     39 GH                    0.035218
     40 GH                    0.000603
     41 GH                   -0.001253
     42 GH                    0.049739
     43 GH                    0.001100
     44 GH                    0.002552
     45 GH                    0.002711
     46 GH                    0.001181
  ----------------------------------------
  Sum of atomic charges =     0.000000

                    Cartesian Multipole Moments
 -----------------------------------------------------------------
    Charge (ESU x 10^10)
                 0.0000
    Dipole Moment (Debye)
         X      -0.0305      Y       0.4299      Z       1.5045
       Tot       1.5650
    Quadrupole Moments (Debye-Ang)
        XX     -56.4611     XY       0.1537     YY     -54.7977
        XZ       2.4094     YZ      -0.4806     ZZ     -59.0907

 Total job time:  350.30s(wall), 1385.12s(cpu)
        *  Thank you very much for using Q-Chem.  Have a nice day.  *
