 Q-Chem 5.0, Q-Chem, Inc., Pleasanton, CA (2017)
 Q-Chem 5.0.1 for Intel X86 EM64T Linux

User input:
--------------------------------------------------------------
$molecule
0  1
--
0  1
C        +0.22270000        +1.04488000        +0.58595000
C        +0.62626000        -0.41353000        +0.99871000
C        +1.33008000        +1.39974000        -0.43491000
C        +2.63070000        +1.71700000        +0.32855000
C        +3.04336000        +0.29351000        +0.80300000
C        +1.94423000        -0.59299000        +0.15262000
O        +1.62840000        +0.13663000        -1.04376000
H        +3.37234000        +2.13782000        -0.35195000
H        +2.48236000        +2.42488000        +1.14651000
H        +4.02182000        +0.00994000        +0.41161000
H        +3.07359000        +0.18738000        +1.88928000
C        +0.90028000        +2.39077000        -1.49430000
C        +2.35450000        -2.01267000        -0.16812000
H        +3.26311000        -2.00678000        -0.77366000
H        +2.54990000        -2.57059000        +0.75079000
H        +1.57335000        -2.52896000        -0.72872000
H        +1.71845000        +2.58186000        -2.15686000
H        +0.59919000        +3.30478000        -1.02650000
H        +0.07925000        +1.98653000        -2.04874000
H        +0.81693000        -0.48905000        +2.04887000
H        -0.12524000        -1.15356000        +0.81843000
H        -0.74673000        +1.06811000        +0.13365000
H        +0.15552000        +1.72617000        +1.40828000
--
0  1
C        +3.60027000        +2.85018000        +2.94876000
C        +4.00383000        +1.39177000        +3.36152000
C        +4.70765000        +3.20504000        +1.92790000
C        +6.00827000        +3.52230000        +2.69136000
C        +6.42093000        +2.09881000        +3.16581000
C        +5.32180000        +1.21231000        +2.51543000
O        +5.00597000        +1.94193000        +1.31905000
H        +6.74991000        +3.94312000        +2.01086000
H        +5.85993000        +4.23018000        +3.50932000
H        +7.39939000        +1.81524000        +2.77442000
H        +6.45116000        +1.99268000        +4.25209000
C        +4.27785000        +4.19607000        +0.86851000
C        +5.73207000        -0.20737000        +2.19469000
H        +6.64068000        -0.20148000        +1.58915000
H        +5.92747000        -0.76529000        +3.11360000
H        +4.95092000        -0.72366000        +1.63409000
H        +5.09602000        +4.38716000        +0.20595000
H        +3.97676000        +5.11008000        +1.33631000
H        +3.45682000        +3.79183000        +0.31407000
H        +4.19450000        +1.31625000        +4.41168000
H        +3.25233000        +0.65174000        +3.18124000
H        +2.63084000        +2.87341000        +2.49646000
H        +3.53309000        +3.53147000        +3.77109000
$end

$rem
JOBTYPE                   SP
METHOD                    B3LYP
DFT_D                     d3_op
BASIS                     6-311++G(d,p)
SYMMETRY                  False
THRESH                    12
SCF_CONVERGENCE           8
MAX_SUB_FILE_NUM          128
MEM_STATIC                400
MEM_TOTAL                 4000
$end
--------------------------------------------------------------

             Standard Nuclear Orientation (Angstroms)
    I     Atom           X                Y                Z
 ----------------------------------------------------------------
    1      C       2.7652241665    -0.8061480773     1.3046592678
    2      C       2.8310307480     0.7607860131     1.3287065010
    3      C       2.3000595350    -1.0783460436    -0.1458238781
    4      C       0.7933642809    -0.7726262423    -0.2532588728
    5      C       0.8068264115     0.7818766606    -0.1821648914
    6      C       2.3301900009     1.0877982402    -0.1298340881
    7      O       2.8885491383     0.0003485875    -0.8842261375
    8      H       0.4069150381    -1.1216074270    -1.2119395952
    9      H       0.2062287231    -1.2417155610     0.5388171711
   10      H       0.3744983397     1.2266439185    -1.0800828014
   11      H       0.2726374934     1.1837739468     0.6811441144
   12      C       2.7708108937    -2.4016322757    -0.7083915443
   13      C       2.7492215219     2.4215743249    -0.7061507225
   14      H       2.3634176548     2.5223944042    -1.7226526672
   15      H       2.3553027541     3.2404689414    -0.0994456164
   16      H       3.8364991460     2.5081531764    -0.7429544885
   17      H       2.4088493501    -2.5127409242    -1.7091622472
   18      H       2.3960034359    -3.2002091178    -0.1028333678
   19      H       3.8404900387    -2.4277765611    -0.7110287997
   20      H       2.1807997173     1.1727156106     2.0719480218
   21      H       3.7914173541     1.1644458249     1.5728659830
   22      H       3.7248359219    -1.2398005301     1.4943966567
   23      H       2.1246834286    -1.2255081769     2.0521487429
   24      C      -1.7339568865    -0.8064829865     1.3902631925
   25      C      -1.6681503049     0.7604511039     1.4143104257
   26      C      -2.1991215179    -1.0786809528    -0.0602199534
   27      C      -3.7058167720    -0.7729611515    -0.1676549481
   28      C      -3.6923546414     0.7815417513    -0.0965609667
   29      C      -2.1689910520     1.0874633309    -0.0442301634
   30      O      -1.6106319146     0.0000136782    -0.7986222128
   31      H      -4.0922660148    -1.1219423363    -1.1263356705
   32      H      -4.2929523299    -1.2420504702     0.6244210958
   33      H      -4.1246827132     1.2263090093    -0.9944788767
   34      H      -4.2265435595     1.1834390375     0.7667480391
   35      C      -1.7283701593    -2.4019671850    -0.6227876196
   36      C      -1.7499595310     2.4212394156    -0.6205467979
   37      H      -2.1357633981     2.5220594949    -1.6370487426
   38      H      -2.1438782988     3.2401340322    -0.0138416917
   39      H      -0.6626819069     2.5078182672    -0.6573505638
   40      H      -2.0903317029    -2.5130758334    -1.6235583225
   41      H      -2.1031776170    -3.2005440270    -0.0172294431
   42      H      -0.6586910142    -2.4281114703    -0.6254248751
   43      H      -2.3183813356     1.1723807014     2.1575519465
   44      H      -0.7077636988     1.1641109156     1.6584699077
   45      H      -0.7743451310    -1.2401354393     1.5800005814
   46      H      -2.3744976243    -1.2258430862     2.1377526676
 ----------------------------------------------------------------

   13    -777.2128791142      6.34E-09 Convergence criterion met
 Total energy in the final basis set = -777.21287911

                    Orbital Energies (a.u.)
 --------------------------------------------------------------

 Alpha MOs
 -- Occupied --
-19.118 -19.104 -10.230 -10.227 -10.212 -10.209 -10.171 -10.170
-10.168 -10.167 -10.161 -10.156 -10.155 -10.153 -10.152 -10.145
-10.145 -10.145  -1.057  -1.038  -0.807  -0.797  -0.791  -0.780
 -0.760  -0.738  -0.721  -0.710  -0.658  -0.648  -0.629  -0.605
 -0.570  -0.569  -0.556  -0.544  -0.503  -0.491  -0.476  -0.467
 -0.466  -0.456  -0.448  -0.438  -0.424  -0.424  -0.417  -0.412
 -0.409  -0.401  -0.399  -0.393  -0.382  -0.371  -0.366  -0.357
 -0.353  -0.351  -0.348  -0.342  -0.337  -0.330  -0.326  -0.319
 -0.314  -0.305  -0.292  -0.285  -0.268  -0.244

          Ground-State Mulliken Net Atomic Charges

     Atom                 Charge (a.u.)
  ----------------------------------------
      1 C                    -0.405457
      2 C                    -0.410132
      3 C                    -0.253278
      4 C                    -0.131703
      5 C                    -0.191464
      6 C                    -0.353955
      7 O                     0.075163
      8 H                     0.222615
      9 H                    -0.068541
     10 H                     0.208935
     11 H                    -0.011760
     12 C                    -0.235299
     13 C                    -0.273072
     14 H                     0.150848
     15 H                     0.154044
     16 H                     0.164867
     17 H                     0.141201
     18 H                     0.149822
     19 H                     0.163157
     20 H                     0.118786
     21 H                     0.173031
     22 H                     0.158361
     23 H                     0.132586
     24 C                    -0.369297
     25 C                    -0.390172
     26 C                     0.104459
     27 C                    -0.502383
     28 C                    -0.490620
     29 C                     0.199647
     30 O                     0.163213
     31 H                     0.156967
     32 H                     0.138652
     33 H                     0.161016
     34 H                     0.134568
     35 C                    -0.284785
     36 C                    -0.355795
     37 H                     0.159049
     38 H                     0.152155
     39 H                     0.141282
     40 H                     0.158373
     41 H                     0.149164
     42 H                     0.139483
     43 H                     0.182881
     44 H                     0.196576
     45 H                     0.184718
     46 H                     0.192097
  ----------------------------------------
  Sum of atomic charges =    -0.000000

                    Cartesian Multipole Moments
 -----------------------------------------------------------------
    Charge (ESU x 10^10)
                -0.0000
    Dipole Moment (Debye)
         X      -2.5471      Y       0.0348      Z       2.3035
       Tot       3.4344
    Quadrupole Moments (Debye-Ang)
        XX    -117.2884     XY       0.1597     YY    -110.3983
        XZ       2.6361     YZ      -0.2223     ZZ    -116.3253

 Total job time:  379.12s(wall), 1501.28s(cpu)
        *  Thank you very much for using Q-Chem.  Have a nice day.  *
