 Q-Chem 5.0, Q-Chem, Inc., Pleasanton, CA (2017)
 Q-Chem 5.0.1 for Intel X86 EM64T Linux

User input:
--------------------------------------------------------------
$molecule
0  1
--
0  1
C        +0.22270000        +1.04488000        +0.58595000
C        +0.62626000        -0.41353000        +0.99871000
C        +1.33008000        +1.39974000        -0.43491000
C        +2.63070000        +1.71700000        +0.32855000
C        +3.04336000        +0.29351000        +0.80300000
C        +1.94423000        -0.59299000        +0.15262000
O        +1.62840000        +0.13663000        -1.04376000
H        +3.37234000        +2.13782000        -0.35195000
H        +2.48236000        +2.42488000        +1.14651000
H        +4.02182000        +0.00994000        +0.41161000
H        +3.07359000        +0.18738000        +1.88928000
C        +0.90028000        +2.39077000        -1.49430000
C        +2.35450000        -2.01267000        -0.16812000
H        +3.26311000        -2.00678000        -0.77366000
H        +2.54990000        -2.57059000        +0.75079000
H        +1.57335000        -2.52896000        -0.72872000
H        +1.71845000        +2.58186000        -2.15686000
H        +0.59919000        +3.30478000        -1.02650000
H        +0.07925000        +1.98653000        -2.04874000
H        +0.81693000        -0.48905000        +2.04887000
H        -0.12524000        -1.15356000        +0.81843000
H        -0.74673000        +1.06811000        +0.13365000
H        +0.15552000        +1.72617000        +1.40828000
--
0  1
C        +4.57602000        +3.37171000        +3.63135000
C        +4.97958000        +1.91330000        +4.04411000
C        +5.68340000        +3.72657000        +2.61049000
C        +6.98402000        +4.04383000        +3.37395000
C        +7.39668000        +2.62034000        +3.84840000
C        +6.29755000        +1.73384000        +3.19802000
O        +5.98172000        +2.46346000        +2.00164000
H        +7.72566000        +4.46465000        +2.69345000
H        +6.83568000        +4.75171000        +4.19191000
H        +8.37514000        +2.33677000        +3.45701000
H        +7.42691000        +2.51421000        +4.93468000
C        +5.25360000        +4.71760000        +1.55110000
C        +6.70782000        +0.31416000        +2.87728000
H        +7.61643000        +0.32005000        +2.27174000
H        +6.90322000        -0.24376000        +3.79619000
H        +5.92667000        -0.20213000        +2.31668000
H        +6.07177000        +4.90869000        +0.88854000
H        +4.95251000        +5.63161000        +2.01890000
H        +4.43257000        +4.31336000        +0.99666000
H        +5.17025000        +1.83778000        +5.09427000
H        +4.22808000        +1.17327000        +3.86383000
H        +3.60659000        +3.39494000        +3.17905000
H        +4.50884000        +4.05300000        +4.45368000
$end

$rem
JOBTYPE                   SP
METHOD                    B3LYP
DFT_D                     d3_op
BASIS                     6-311++G(d,p)
SYMMETRY                  False
THRESH                    12
SCF_CONVERGENCE           8
MAX_SUB_FILE_NUM          128
MEM_STATIC                400
MEM_TOTAL                 4000
$end
--------------------------------------------------------------

             Standard Nuclear Orientation (Angstroms)
    I     Atom           X                Y                Z
 ----------------------------------------------------------------
    1      C       3.4052388789    -0.8062221255     1.3180099532
    2      C       3.4709165981     0.7607096391     1.3425558609
    3      C       2.9510155723    -1.0784014301    -0.1359401276
    4      C       1.4451838841    -0.7726291704    -0.2547328690
    5      C       1.4581634477     0.7818731408    -0.1835362850
    6      C       2.9810997281     1.0877417791    -0.1197192548
    7      O       3.5450938611     0.0002740685    -0.8698816597
    8      H       1.0659625712    -1.1215952800    -1.2163010997
    9      H       0.8520760091    -1.2416994974     0.5328923519
   10      H       1.0326339475     1.2266569594    -1.0846877971
   11      H       0.9174937715     1.1837874574     0.6757208660
   12      C       3.4259497645    -2.4017030145    -0.6949446919
   13      C       3.4045113727     2.4215043283    -0.6928570782
   14      H       3.0263870236     2.5223395607    -1.7122391206
   15      H       3.0060572717     3.2404115550    -0.0891379731
   16      H       4.4920386095     2.5080455229    -0.7214608796
   17      H       3.0715410883    -2.5127973643    -1.6984165780
   18      H       3.0465589866    -3.2002679064    -0.0922316099
   19      H       4.4956174769    -2.4278844057    -0.6895158831
   20      H       2.8151138394     1.1726605018     2.0808739315
   21      H       4.4294487840     1.1643357072     1.5939511174
   22      H       4.3633775756    -1.2399081999     1.5149771452
   23      H       2.7590652772    -1.2255613031     2.0606472644
   24      C      -2.3943782239    -0.8064494037     1.3846090531
   25      C      -2.3287005048     0.7604823609     1.4091549608
   26      C      -2.8486015305    -1.0786287083    -0.0693410277
   27      C      -4.3544332188    -0.7728564486    -0.1881337691
   28      C      -4.3414536551     0.7816458626    -0.1169371851
   29      C      -2.8185173748     1.0875145010    -0.0531201548
   30      O      -2.2545232417     0.0000467903    -0.8032825598
   31      H      -4.7336545316    -1.1218225581    -1.1497019998
   32      H      -4.9475410937    -1.2419267756     0.5994914518
   33      H      -4.7669831553     1.2264296813    -1.0180886971
   34      H      -4.8821233313     1.1835601792     0.7423199659
   35      C      -2.3736673383    -2.4019302927    -0.6283455920
   36      C      -2.3951057301     2.4212770501    -0.6262579783
   37      H      -2.7732300792     2.5221122825    -1.6456400207
   38      H      -2.7935598312     3.2401842769    -0.0225388732
   39      H      -1.3075784933     2.5078182447    -0.6548617797
   40      H      -2.7280760146    -2.5130246424    -1.6318174781
   41      H      -2.7530581163    -3.2004951846    -0.0256325100
   42      H      -1.3039996259    -2.4281116838    -0.6229167832
   43      H      -2.9845032634     1.1724332236     2.1474730314
   44      H      -1.3701683188     1.1641084290     1.6605502173
   45      H      -1.4362395273    -1.2401354781     1.5815762451
   46      H      -3.0405518256    -1.2257885813     2.1272463643
 ----------------------------------------------------------------

   13    -777.2697069506      4.39E-09 Convergence criterion met
 Total energy in the final basis set = -777.26970695

                    Orbital Energies (a.u.)
 --------------------------------------------------------------

 Alpha MOs
 -- Occupied --
-19.117 -19.111 -10.227 -10.223 -10.220 -10.216 -10.168 -10.167
-10.165 -10.164 -10.162 -10.161 -10.160 -10.159 -10.158 -10.157
-10.153 -10.148  -1.051  -1.045  -0.802  -0.795  -0.791  -0.785
 -0.751  -0.744  -0.720  -0.714  -0.654  -0.649  -0.619  -0.612
 -0.565  -0.559  -0.558  -0.551  -0.489  -0.482  -0.476  -0.471
 -0.467  -0.460  -0.446  -0.440  -0.422  -0.416  -0.413  -0.409
 -0.406  -0.405  -0.403  -0.397  -0.386  -0.380  -0.362  -0.357
 -0.349  -0.346  -0.344  -0.342  -0.340  -0.336  -0.335  -0.329
 -0.318  -0.312  -0.302  -0.295  -0.264  -0.257

          Ground-State Mulliken Net Atomic Charges

     Atom                 Charge (a.u.)
  ----------------------------------------
      1 C                    -0.424280
      2 C                    -0.468830
      3 C                     0.016858
      4 C                    -0.289340
      5 C                    -0.236441
      6 C                     0.030757
      7 O                     0.028041
      8 H                     0.180796
      9 H                     0.029061
     10 H                     0.158816
     11 H                     0.037988
     12 C                    -0.316447
     13 C                    -0.327357
     14 H                     0.153981
     15 H                     0.148219
     16 H                     0.154060
     17 H                     0.143800
     18 H                     0.144843
     19 H                     0.152362
     20 H                     0.133979
     21 H                     0.173898
     22 H                     0.163045
     23 H                     0.143566
     24 C                    -0.292508
     25 C                    -0.340871
     26 C                     0.134163
     27 C                    -0.618126
     28 C                    -0.517868
     29 C                     0.129769
     30 O                     0.017691
     31 H                     0.156593
     32 H                     0.138541
     33 H                     0.159119
     34 H                     0.137904
     35 C                    -0.229512
     36 C                    -0.325832
     37 H                     0.156348
     38 H                     0.146634
     39 H                     0.154831
     40 H                     0.152201
     41 H                     0.143371
     42 H                     0.147990
     43 H                     0.156405
     44 H                     0.158242
     45 H                     0.130337
     46 H                     0.173201
  ----------------------------------------
  Sum of atomic charges =     0.000000

                    Cartesian Multipole Moments
 -----------------------------------------------------------------
    Charge (ESU x 10^10)
                 0.0000
    Dipole Moment (Debye)
         X      -2.0714      Y       0.0175      Z       2.3424
       Tot       3.1270
    Quadrupole Moments (Debye-Ang)
        XX    -115.9803     XY       0.2036     YY    -109.7038
        XZ       2.6286     YZ      -0.2226     ZZ    -116.2599

 Total job time:  304.67s(wall), 1205.48s(cpu)
        *  Thank you very much for using Q-Chem.  Have a nice day.  *
