 Q-Chem 5.0, Q-Chem, Inc., Pleasanton, CA (2017)
 Q-Chem 5.0.1 for Intel X86 EM64T Linux

User input:
--------------------------------------------------------------
$molecule
0  1
C        +0.22270000        +1.04488000        +0.58595000
C        +0.62626000        -0.41353000        +0.99871000
C        +1.33008000        +1.39974000        -0.43491000
C        +2.63070000        +1.71700000        +0.32855000
C        +3.04336000        +0.29351000        +0.80300000
C        +1.94423000        -0.59299000        +0.15262000
O        +1.62840000        +0.13663000        -1.04376000
H        +3.37234000        +2.13782000        -0.35195000
H        +2.48236000        +2.42488000        +1.14651000
H        +4.02182000        +0.00994000        +0.41161000
H        +3.07359000        +0.18738000        +1.88928000
C        +0.90028000        +2.39077000        -1.49430000
C        +2.35450000        -2.01267000        -0.16812000
H        +3.26311000        -2.00678000        -0.77366000
H        +2.54990000        -2.57059000        +0.75079000
H        +1.57335000        -2.52896000        -0.72872000
H        +1.71845000        +2.58186000        -2.15686000
H        +0.59919000        +3.30478000        -1.02650000
H        +0.07925000        +1.98653000        -2.04874000
H        +0.81693000        -0.48905000        +2.04887000
H        -0.12524000        -1.15356000        +0.81843000
H        -0.74673000        +1.06811000        +0.13365000
H        +0.15552000        +1.72617000        +1.40828000
@C        +4.57602000        +3.37171000        +3.63135000
@C        +4.97958000        +1.91330000        +4.04411000
@C        +5.68340000        +3.72657000        +2.61049000
@C        +6.98402000        +4.04383000        +3.37395000
@C        +7.39668000        +2.62034000        +3.84840000
@C        +6.29755000        +1.73384000        +3.19802000
@O        +5.98172000        +2.46346000        +2.00164000
@H        +7.72566000        +4.46465000        +2.69345000
@H        +6.83568000        +4.75171000        +4.19191000
@H        +8.37514000        +2.33677000        +3.45701000
@H        +7.42691000        +2.51421000        +4.93468000
@C        +5.25360000        +4.71760000        +1.55110000
@C        +6.70782000        +0.31416000        +2.87728000
@H        +7.61643000        +0.32005000        +2.27174000
@H        +6.90322000        -0.24376000        +3.79619000
@H        +5.92667000        -0.20213000        +2.31668000
@H        +6.07177000        +4.90869000        +0.88854000
@H        +4.95251000        +5.63161000        +2.01890000
@H        +4.43257000        +4.31336000        +0.99666000
@H        +5.17025000        +1.83778000        +5.09427000
@H        +4.22808000        +1.17327000        +3.86383000
@H        +3.60659000        +3.39494000        +3.17905000
@H        +4.50884000        +4.05300000        +4.45368000
$end

$rem
JOBTYPE                   SP
METHOD                    B3LYP
DFT_D                     d3_op
BASIS                     6-311++G(d,p)
SYMMETRY                  False
THRESH                    12
SCF_CONVERGENCE           8
MAX_SUB_FILE_NUM          128
MEM_STATIC                400
MEM_TOTAL                 4000
$end
--------------------------------------------------------------

             Standard Nuclear Orientation (Angstroms)
    I     Atom           X                Y                Z
 ----------------------------------------------------------------
    1      C       0.2227000000     1.0448800000     0.5859500000
    2      C       0.6262600000    -0.4135300000     0.9987100000
    3      C       1.3300800000     1.3997400000    -0.4349100000
    4      C       2.6307000000     1.7170000000     0.3285500000
    5      C       3.0433600000     0.2935100000     0.8030000000
    6      C       1.9442300000    -0.5929900000     0.1526200000
    7      O       1.6284000000     0.1366300000    -1.0437600000
    8      H       3.3723400000     2.1378200000    -0.3519500000
    9      H       2.4823600000     2.4248800000     1.1465100000
   10      H       4.0218200000     0.0099400000     0.4116100000
   11      H       3.0735900000     0.1873800000     1.8892800000
   12      C       0.9002800000     2.3907700000    -1.4943000000
   13      C       2.3545000000    -2.0126700000    -0.1681200000
   14      H       3.2631100000    -2.0067800000    -0.7736600000
   15      H       2.5499000000    -2.5705900000     0.7507900000
   16      H       1.5733500000    -2.5289600000    -0.7287200000
   17      H       1.7184500000     2.5818600000    -2.1568600000
   18      H       0.5991900000     3.3047800000    -1.0265000000
   19      H       0.0792500000     1.9865300000    -2.0487400000
   20      H       0.8169300000    -0.4890500000     2.0488700000
   21      H      -0.1252400000    -1.1535600000     0.8184300000
   22      H      -0.7467300000     1.0681100000     0.1336500000
   23      H       0.1555200000     1.7261700000     1.4082800000
   24      GH      4.5760200000     3.3717100000     3.6313500000
   25      GH      4.9795800000     1.9133000000     4.0441100000
   26      GH      5.6834000000     3.7265700000     2.6104900000
   27      GH      6.9840200000     4.0438300000     3.3739500000
   28      GH      7.3966800000     2.6203400000     3.8484000000
   29      GH      6.2975500000     1.7338400000     3.1980200000
   30      GH      5.9817200000     2.4634600000     2.0016400000
   31      GH      7.7256600000     4.4646500000     2.6934500000
   32      GH      6.8356800000     4.7517100000     4.1919100000
   33      GH      8.3751400000     2.3367700000     3.4570100000
   34      GH      7.4269100000     2.5142100000     4.9346800000
   35      GH      5.2536000000     4.7176000000     1.5511000000
   36      GH      6.7078200000     0.3141600000     2.8772800000
   37      GH      7.6164300000     0.3200500000     2.2717400000
   38      GH      6.9032200000    -0.2437600000     3.7961900000
   39      GH      5.9266700000    -0.2021300000     2.3166800000
   40      GH      6.0717700000     4.9086900000     0.8885400000
   41      GH      4.9525100000     5.6316100000     2.0189000000
   42      GH      4.4325700000     4.3133600000     0.9966600000
   43      GH      5.1702500000     1.8377800000     5.0942700000
   44      GH      4.2280800000     1.1732700000     3.8638300000
   45      GH      3.6065900000     3.3949400000     3.1790500000
   46      GH      4.5088400000     4.0530000000     4.4536800000
 ----------------------------------------------------------------

   12    -388.6331113001      6.95E-09 Convergence criterion met
 Total energy in the final basis set = -388.63311130

                    Orbital Energies (a.u.)
 --------------------------------------------------------------

 Alpha MOs
 -- Occupied --
-19.115 -10.224 -10.221 -10.166 -10.165 -10.162 -10.161 -10.160
-10.151  -1.049  -0.799  -0.789  -0.749  -0.717  -0.652  -0.616
 -0.562  -0.556  -0.486  -0.474  -0.464  -0.444  -0.420  -0.410
 -0.407  -0.402  -0.384  -0.360  -0.346  -0.343  -0.340  -0.333
 -0.316  -0.299  -0.261

          Ground-State Mulliken Net Atomic Charges

     Atom                 Charge (a.u.)
  ----------------------------------------
      1 C                    -0.419738
      2 C                    -0.464001
      3 C                     0.014927
      4 C                    -0.287549
      5 C                    -0.234415
      6 C                     0.038194
      7 O                     0.029919
      8 H                     0.174326
      9 H                     0.057272
     10 H                     0.157882
     11 H                     0.060024
     12 C                    -0.325498
     13 C                    -0.342032
     14 H                     0.151845
     15 H                     0.149973
     16 H                     0.155307
     17 H                     0.141764
     18 H                     0.146399
     19 H                     0.153554
     20 H                     0.135897
     21 H                     0.175252
     22 H                     0.164116
     23 H                     0.144829
     24 GH                    0.003885
     25 GH                    0.003958
     26 GH                   -0.004616
     27 GH                    0.000762
     28 GH                   -0.003733
     29 GH                   -0.007155
     30 GH                    0.000439
     31 GH                   -0.000153
     32 GH                    0.000011
     33 GH                   -0.000145
     34 GH                    0.000033
     35 GH                   -0.008010
     36 GH                   -0.002626
     37 GH                    0.000943
     38 GH                   -0.000740
     39 GH                    0.007077
     40 GH                    0.001179
     41 GH                   -0.000859
     42 GH                    0.007555
     43 GH                   -0.001446
     44 GH                    0.015218
     45 GH                    0.010964
     46 GH                   -0.000791
  ----------------------------------------
  Sum of atomic charges =     0.000000

                    Cartesian Multipole Moments
 -----------------------------------------------------------------
    Charge (ESU x 10^10)
                 0.0000
    Dipole Moment (Debye)
         X      -0.0336      Y       0.4292      Z       1.5056
       Tot       1.5659
    Quadrupole Moments (Debye-Ang)
        XX     -56.4734     XY       0.1419     YY     -54.7969
        XZ       2.3931     YZ      -0.4937     ZZ     -59.1081

 Total job time:  266.98s(wall), 1053.50s(cpu)
        *  Thank you very much for using Q-Chem.  Have a nice day.  *
