 Q-Chem 5.0, Q-Chem, Inc., Pleasanton, CA (2017)
 Q-Chem 5.0.1 for Intel X86 EM64T Linux

User input:
--------------------------------------------------------------
$molecule
0  1
C        +0.21855000        +2.33519000        +4.87759000
C        +0.67127000        +0.91360000        +5.31048000
C        +1.32716000        +2.72532000        +3.86549000
C        +2.62705000        +3.03722000        +4.65075000
C        +3.08089000        +1.61716000        +5.08698000
C        +1.96629000        +0.72805000        +4.47803000
O        +1.64289000        +1.44793000        +3.26597000
H        +3.36187000        +3.50271000        +3.99018000
H        +2.45055000        +3.71658000        +5.48774000
H        +4.04652000        +1.35750000        +4.64827000
H        +3.15922000        +1.49727000        +6.17001000
C        +0.93488000        +3.73136000        +2.80803000
C        +2.35536000        -0.69835000        +4.16437000
H        +3.23001000        -0.72361000        +3.50968000
H        +2.59908000        -1.23543000        +5.08548000
H        +1.53475000        -1.22132000        +3.66724000
H        +1.75169000        +3.88008000        +2.09771000
H        +0.70010000        +4.69478000        +3.26975000
H        +0.05422000        +3.38900000        +2.25936000
H        +0.85312000        +0.82208000        +6.38373000
H        -0.06551000        +0.15803000        +5.02855000
H        -0.75132000        +2.30683000        +4.37616000
H        +0.14957000        +3.04289000        +5.70650000
@C        +0.20186000        +1.01419000        +0.57588000
@C        +0.65458000        -0.40740000        +1.00877000
@C        +1.31047000        +1.40432000        -0.43622000
@C        +2.61036000        +1.71622000        +0.34904000
@C        +3.06420000        +0.29616000        +0.78527000
@C        +1.94960000        -0.59295000        +0.17632000
@O        +1.62620000        +0.12693000        -1.03574000
@H        +3.34518000        +2.18171000        -0.31153000
@H        +2.43386000        +2.39558000        +1.18603000
@H        +4.02983000        +0.03650000        +0.34656000
@H        +3.14253000        +0.17627000        +1.86830000
@C        +0.91819000        +2.41036000        -1.49368000
@C        +2.33867000        -2.01935000        -0.13734000
@H        +3.21332000        -2.04461000        -0.79203000
@H        +2.58239000        -2.55643000        +0.78377000
@H        +1.51806000        -2.54232000        -0.63447000
@H        +1.73500000        +2.55908000        -2.20400000
@H        +0.68341000        +3.37378000        -1.03196000
@H        +0.03753000        +2.06800000        -2.04235000
@H        +0.83643000        -0.49892000        +2.08202000
@H        -0.08220000        -1.16297000        +0.72684000
@H        -0.76801000        +0.98583000        +0.07445000
@H        +0.13288000        +1.72189000        +1.40479000
$end

$rem
JOBTYPE                   SP
METHOD                    B3LYP
DFT_D                     d3_op
BASIS                     6-311++G(d,p)
SYMMETRY                  False
THRESH                    12
SCF_CONVERGENCE           8
MAX_SUB_FILE_NUM          128
MEM_STATIC                400
MEM_TOTAL                 4000
$end
--------------------------------------------------------------

             Standard Nuclear Orientation (Angstroms)
    I     Atom           X                Y                Z
 ----------------------------------------------------------------
    1      C       0.2185500000     2.3351900000     4.8775900000
    2      C       0.6712700000     0.9136000000     5.3104800000
    3      C       1.3271600000     2.7253200000     3.8654900000
    4      C       2.6270500000     3.0372200000     4.6507500000
    5      C       3.0808900000     1.6171600000     5.0869800000
    6      C       1.9662900000     0.7280500000     4.4780300000
    7      O       1.6428900000     1.4479300000     3.2659700000
    8      H       3.3618700000     3.5027100000     3.9901800000
    9      H       2.4505500000     3.7165800000     5.4877400000
   10      H       4.0465200000     1.3575000000     4.6482700000
   11      H       3.1592200000     1.4972700000     6.1700100000
   12      C       0.9348800000     3.7313600000     2.8080300000
   13      C       2.3553600000    -0.6983500000     4.1643700000
   14      H       3.2300100000    -0.7236100000     3.5096800000
   15      H       2.5990800000    -1.2354300000     5.0854800000
   16      H       1.5347500000    -1.2213200000     3.6672400000
   17      H       1.7516900000     3.8800800000     2.0977100000
   18      H       0.7001000000     4.6947800000     3.2697500000
   19      H       0.0542200000     3.3890000000     2.2593600000
   20      H       0.8531200000     0.8220800000     6.3837300000
   21      H      -0.0655100000     0.1580300000     5.0285500000
   22      H      -0.7513200000     2.3068300000     4.3761600000
   23      H       0.1495700000     3.0428900000     5.7065000000
   24      GH      0.2018600000     1.0141900000     0.5758800000
   25      GH      0.6545800000    -0.4074000000     1.0087700000
   26      GH      1.3104700000     1.4043200000    -0.4362200000
   27      GH      2.6103600000     1.7162200000     0.3490400000
   28      GH      3.0642000000     0.2961600000     0.7852700000
   29      GH      1.9496000000    -0.5929500000     0.1763200000
   30      GH      1.6262000000     0.1269300000    -1.0357400000
   31      GH      3.3451800000     2.1817100000    -0.3115300000
   32      GH      2.4338600000     2.3955800000     1.1860300000
   33      GH      4.0298300000     0.0365000000     0.3465600000
   34      GH      3.1425300000     0.1762700000     1.8683000000
   35      GH      0.9181900000     2.4103600000    -1.4936800000
   36      GH      2.3386700000    -2.0193500000    -0.1373400000
   37      GH      3.2133200000    -2.0446100000    -0.7920300000
   38      GH      2.5823900000    -2.5564300000     0.7837700000
   39      GH      1.5180600000    -2.5423200000    -0.6344700000
   40      GH      1.7350000000     2.5590800000    -2.2040000000
   41      GH      0.6834100000     3.3737800000    -1.0319600000
   42      GH      0.0375300000     2.0680000000    -2.0423500000
   43      GH      0.8364300000    -0.4989200000     2.0820200000
   44      GH     -0.0822000000    -1.1629700000     0.7268400000
   45      GH     -0.7680100000     0.9858300000     0.0744500000
   46      GH      0.1328800000     1.7218900000     1.4047900000
 ----------------------------------------------------------------

   12    -388.6389350655      3.22E-09 Convergence criterion met
 Total energy in the final basis set = -388.63893507

                    Orbital Energies (a.u.)
 --------------------------------------------------------------

 Alpha MOs
 -- Occupied --
-19.113 -10.223 -10.223 -10.166 -10.166 -10.166 -10.166 -10.160
-10.160  -1.043  -0.799  -0.788  -0.750  -0.716  -0.650  -0.613
 -0.557  -0.553  -0.484  -0.475  -0.466  -0.440  -0.417  -0.408
 -0.404  -0.402  -0.383  -0.359  -0.344  -0.343  -0.341  -0.335
 -0.317  -0.298  -0.260

          Ground-State Mulliken Net Atomic Charges

     Atom                 Charge (a.u.)
  ----------------------------------------
      1 C                    -0.449992
      2 C                    -0.455904
      3 C                    -0.015331
      4 C                    -0.452540
      5 C                    -0.450282
      6 C                    -0.012205
      7 O                     0.206614
      8 H                     0.155054
      9 H                     0.149596
     10 H                     0.154273
     11 H                     0.149503
     12 C                    -0.242842
     13 C                    -0.242140
     14 H                     0.158944
     15 H                     0.174680
     16 H                     0.159385
     17 H                     0.159239
     18 H                     0.174674
     19 H                     0.159345
     20 H                     0.149568
     21 H                     0.155017
     22 H                     0.154133
     23 H                     0.149567
     24 GH                   -0.020423
     25 GH                   -0.020269
     26 GH                    0.015199
     27 GH                   -0.019419
     28 GH                   -0.019924
     29 GH                    0.014570
     30 GH                   -0.003235
     31 GH                   -0.002592
     32 GH                   -0.012623
     33 GH                   -0.002628
     34 GH                   -0.011221
     35 GH                    0.011836
     36 GH                    0.012174
     37 GH                   -0.000021
     38 GH                   -0.000495
     39 GH                   -0.000029
     40 GH                   -0.000024
     41 GH                   -0.000504
     42 GH                   -0.000032
     43 GH                   -0.012029
     44 GH                   -0.002660
     45 GH                   -0.002536
     46 GH                   -0.011471
  ----------------------------------------
  Sum of atomic charges =     0.000000

                    Cartesian Multipole Moments
 -----------------------------------------------------------------
    Charge (ESU x 10^10)
                 0.0000
    Dipole Moment (Debye)
         X       0.0093      Y       0.4519      Z       1.4657
       Tot       1.5338
    Quadrupole Moments (Debye-Ang)
        XX     -56.6118     XY       0.2046     YY     -53.7258
        XZ       2.6098     YZ       3.2471     ZZ     -46.5229

 Total job time:  340.27s(wall), 1345.62s(cpu)
        *  Thank you very much for using Q-Chem.  Have a nice day.  *
