 Q-Chem 5.0, Q-Chem, Inc., Pleasanton, CA (2017)
 Q-Chem 5.0.1 for Intel X86 EM64T Linux

User input:
--------------------------------------------------------------
$molecule
0  1
--
0  1
C        +0.20186000        +1.01419000        +0.57588000
C        +0.65458000        -0.40740000        +1.00877000
C        +1.31047000        +1.40432000        -0.43622000
C        +2.61036000        +1.71622000        +0.34904000
C        +3.06420000        +0.29616000        +0.78527000
C        +1.94960000        -0.59295000        +0.17632000
O        +1.62620000        +0.12693000        -1.03574000
H        +3.34518000        +2.18171000        -0.31153000
H        +2.43386000        +2.39558000        +1.18603000
H        +4.02983000        +0.03650000        +0.34656000
H        +3.14253000        +0.17627000        +1.86830000
C        +0.91819000        +2.41036000        -1.49368000
C        +2.33867000        -2.01935000        -0.13734000
H        +3.21332000        -2.04461000        -0.79203000
H        +2.58239000        -2.55643000        +0.78377000
H        +1.51806000        -2.54232000        -0.63447000
H        +1.73500000        +2.55908000        -2.20400000
H        +0.68341000        +3.37378000        -1.03196000
H        +0.03753000        +2.06800000        -2.04235000
H        +0.83643000        -0.49892000        +2.08202000
H        -0.08220000        -1.16297000        +0.72684000
H        -0.76801000        +0.98583000        +0.07445000
H        +0.13288000        +1.72189000        +1.40479000
--
0  1
C        +0.21855000        +2.33519000        +4.87759000
C        +0.67127000        +0.91360000        +5.31048000
C        +1.32716000        +2.72532000        +3.86549000
C        +2.62705000        +3.03722000        +4.65075000
C        +3.08089000        +1.61716000        +5.08698000
C        +1.96629000        +0.72805000        +4.47803000
O        +1.64289000        +1.44793000        +3.26597000
H        +3.36187000        +3.50271000        +3.99018000
H        +2.45055000        +3.71658000        +5.48774000
H        +4.04652000        +1.35750000        +4.64827000
H        +3.15922000        +1.49727000        +6.17001000
C        +0.93488000        +3.73136000        +2.80803000
C        +2.35536000        -0.69835000        +4.16437000
H        +3.23001000        -0.72361000        +3.50968000
H        +2.59908000        -1.23543000        +5.08548000
H        +1.53475000        -1.22132000        +3.66724000
H        +1.75169000        +3.88008000        +2.09771000
H        +0.70010000        +4.69478000        +3.26975000
H        +0.05422000        +3.38900000        +2.25936000
H        +0.85312000        +0.82208000        +6.38373000
H        -0.06551000        +0.15803000        +5.02855000
H        -0.75132000        +2.30683000        +4.37616000
H        +0.14957000        +3.04289000        +5.70650000
$end

$rem
JOBTYPE                   SP
METHOD                    B3LYP
DFT_D                     d3_op
BASIS                     6-311++G(d,p)
SYMMETRY                  False
THRESH                    12
SCF_CONVERGENCE           8
MAX_SUB_FILE_NUM          128
MEM_STATIC                400
MEM_TOTAL                 4000
$end
--------------------------------------------------------------

             Standard Nuclear Orientation (Angstroms)
    I     Atom           X                Y                Z
 ----------------------------------------------------------------
    1      C       1.5101314911    -0.7769672606     1.2591275719
    2      C       1.5118368931     0.7764994338     1.2614939341
    3      C       2.3590903026    -1.0919473097    -0.0000866529
    4      C       1.5120983359    -0.7768784608    -1.2598346906
    5      C       1.5101576987     0.7764510709    -1.2586676968
    6      C       2.3573174975     1.0927211152     0.0006826869
    7      O       3.3059243386     0.0009110315     0.0008242782
    8      H       2.0042669011    -1.1719640041    -2.1512782471
    9      H       0.5132450397    -1.2157524998    -1.2058329291
   10      H       2.0021988557     1.1740417639    -2.1486947847
   11      H       0.5097197669     1.2118026447    -1.2033853879
   12      C       3.0761791168    -2.4223627951    -0.0001048532
   13      C       3.0743410705     2.4232276928    -0.0014299747
   14      H       3.7043954940     2.5194629835    -0.8891460771
   15      H       2.3505174461     3.2432133513    -0.0023667054
   16      H       3.7060725032     2.5220811534     0.8846738682
   17      H       3.7085681746    -2.5177012717    -0.8860198443
   18      H       2.3529200214    -3.2429553753    -0.0031382272
   19      H       3.7043977157    -2.5206491360     0.8884289736
   20      H       0.5120417661     1.2134959234     1.2090090088
   21      H       2.0057987548     1.1727502432     2.1515514004
   22      H       2.0013685272    -1.1752842568     2.1495846996
   23      H       0.5102899602    -1.2125221326     1.2016977449
   24      C      -2.9898716538    -0.7773035051     1.2588772958
   25      C      -2.9881662518     0.7761631893     1.2612436579
   26      C      -2.1409128423    -1.0922835542    -0.0003369291
   27      C      -2.9879048091    -0.7772147053    -1.2600849668
   28      C      -2.9898454463     0.7761148264    -1.2589179730
   29      C      -2.1426856474     1.0923848707     0.0004324107
   30      O      -1.1940788063     0.0005747870     0.0005740020
   31      H      -2.4957362438    -1.1723002486    -2.1515285232
   32      H      -3.9867581053    -1.2160887443    -1.2060832052
   33      H      -2.4978042892     1.1737055194    -2.1489450609
   34      H      -3.9902833781     1.2114664002    -1.2036356641
   35      C      -1.4238240281    -2.4226990396    -0.0003551294
   36      C      -1.4256620744     2.4228914482    -0.0016802508
   37      H      -0.7956076510     2.5191267390    -0.8893963532
   38      H      -2.1494856988     3.2428771068    -0.0026169815
   39      H      -0.7939306418     2.5217449089     0.8844235920
   40      H      -0.7914349703    -2.5180375163    -0.8862701204
   41      H      -2.1470831235    -3.2432916198    -0.0033885034
   42      H      -0.7956054293    -2.5209853806     0.8881786974
   43      H      -3.9879613789     1.2131596789     1.2087587327
   44      H      -2.4942043901     1.1724139987     2.1513011243
   45      H      -2.4986346178    -1.1756205013     2.1493344235
   46      H      -3.9897131848    -1.2128583771     1.2014474688
 ----------------------------------------------------------------

   13    -777.2726383711      6.13E-09 Convergence criterion met
 Total energy in the final basis set = -777.27263837

                    Orbital Energies (a.u.)
 --------------------------------------------------------------

 Alpha MOs
 -- Occupied --
-19.122 -19.100 -10.232 -10.232 -10.209 -10.209 -10.174 -10.174
-10.174 -10.174 -10.168 -10.168 -10.151 -10.151 -10.149 -10.149
-10.148 -10.148  -1.054  -1.030  -0.808  -0.799  -0.784  -0.776
 -0.757  -0.733  -0.726  -0.705  -0.660  -0.638  -0.621  -0.599
 -0.567  -0.565  -0.545  -0.538  -0.496  -0.485  -0.476  -0.468
 -0.462  -0.455  -0.451  -0.432  -0.428  -0.419  -0.411  -0.410
 -0.404  -0.395  -0.395  -0.393  -0.387  -0.370  -0.367  -0.354
 -0.352  -0.351  -0.348  -0.344  -0.333  -0.327  -0.326  -0.320
 -0.316  -0.305  -0.301  -0.284  -0.271  -0.245

          Ground-State Mulliken Net Atomic Charges

     Atom                 Charge (a.u.)
  ----------------------------------------
      1 C                    -0.091176
      2 C                    -0.094508
      3 C                    -0.631861
      4 C                    -0.094433
      5 C                    -0.091156
      6 C                    -0.630733
      7 O                     0.035011
      8 H                     0.197482
      9 H                     0.048433
     10 H                     0.197710
     11 H                     0.047541
     12 C                    -0.183941
     13 C                    -0.182327
     14 H                     0.145853
     15 H                     0.144825
     16 H                     0.145682
     17 H                     0.145947
     18 H                     0.144820
     19 H                     0.145636
     20 H                     0.048822
     21 H                     0.197511
     22 H                     0.197527
     23 H                     0.047368
     24 C                    -0.448712
     25 C                    -0.453469
     26 C                    -0.003069
     27 C                    -0.451476
     28 C                    -0.450690
     29 C                     0.000712
     30 O                     0.224376
     31 H                     0.158239
     32 H                     0.153175
     33 H                     0.158023
     34 H                     0.153269
     35 C                    -0.305036
     36 C                    -0.305315
     37 H                     0.178550
     38 H                     0.171749
     39 H                     0.178136
     40 H                     0.178363
     41 H                     0.171917
     42 H                     0.178705
     43 H                     0.153101
     44 H                     0.158266
     45 H                     0.157933
     46 H                     0.153218
  ----------------------------------------
  Sum of atomic charges =     0.000000

                    Cartesian Multipole Moments
 -----------------------------------------------------------------
    Charge (ESU x 10^10)
                 0.0000
    Dipole Moment (Debye)
         X      -4.1131      Y      -0.0019      Z      -0.0053
       Tot       4.1131
    Quadrupole Moments (Debye-Ang)
        XX    -120.2652     XY       0.0041     YY    -109.9674
        XZ      -0.0001     YZ       0.0023     ZZ    -114.3650

 Total job time:  401.30s(wall), 1582.68s(cpu)
        *  Thank you very much for using Q-Chem.  Have a nice day.  *
