 Q-Chem 5.0, Q-Chem, Inc., Pleasanton, CA (2017)
 Q-Chem 5.0.1 for Intel X86 EM64T Linux

User input:
--------------------------------------------------------------
$molecule
0  1
--
0  1
C        -0.54444000        -0.68370000        -0.06689000
C        -0.55709000        +0.71878000        +0.05493000
C        -1.74320000        -1.41616000        -0.12552000
C        -2.93952000        -0.70056000        -0.05285000
C        -2.95313000        +0.68255000        +0.06934000
C        -1.77161000        +1.42404000        +0.12810000
H        -3.90354000        +1.20325000        +0.11710000
H        -3.87892000        -1.24211000        -0.08988000
C        -1.83960000        +2.92746000        +0.24839000
H        -1.24214000        +3.42352000        -0.52065000
H        -1.45503000        +3.26427000        +1.21284000
H        -2.87211000        +3.26623000        +0.14638000
H        -1.73878000        -2.44393000        -0.21875000
H        +0.35825000        -1.18166000        -0.11386000
H        +0.33551000        +1.23549000        +0.09097000
--
0  1
C        -0.50453000        -1.18941000        +5.71088000
C        -0.51718000        +0.21307000        +5.83270000
C        -1.70329000        -1.92187000        +5.65225000
C        -2.89961000        -1.20627000        +5.72492000
C        -2.91322000        +0.17684000        +5.84711000
C        -1.73170000        +0.91833000        +5.90587000
H        -3.86363000        +0.69754000        +5.89487000
H        -3.83901000        -1.74782000        +5.68789000
C        -1.79969000        +2.42175000        +6.02616000
H        -1.20223000        +2.91781000        +5.25712000
H        -1.41512000        +2.75856000        +6.99061000
H        -2.83220000        +2.76052000        +5.92415000
H        -1.69887000        -2.94964000        +5.55902000
H        +0.39816000        -1.68737000        +5.66391000
H        +0.37542000        +0.72978000        +5.86874000
$end

$rem
JOBTYPE                   SP
METHOD                    B3LYP
DFT_D                     d3_op
BASIS                     6-311++G(d,p)
SYMMETRY                  False
THRESH                    12
SCF_CONVERGENCE           8
MAX_SUB_FILE_NUM          128
MEM_STATIC                400
MEM_TOTAL                 4000
$end
--------------------------------------------------------------

             Standard Nuclear Orientation (Angstroms)
    I     Atom           X                Y                Z
 ----------------------------------------------------------------
    1      C       2.8967272877    -1.2306047293     1.1901365640
    2      C       2.8986447057     0.1769254938     1.2185140154
    3      C       2.8991088639    -1.9301506206    -0.0295316451
    4      C       2.8978632883    -1.1763879048    -1.2044299590
    5      C       2.8977175845     0.2119162277    -1.1775875541
    6      C       2.8961190984     0.9209668866     0.0251153502
    7      H       2.9024630113     0.7622626942    -2.1123521894
    8      H       2.8936981384    -1.6915001718    -2.1592922461
    9      C       2.9088094607     2.4304799950     0.0011747850
   10      H       3.7142852754     2.8393300718     0.6164038671
   11      H       1.9750249911     2.8395026289     0.3913618080
   12      H       3.0473331982     2.7888924843    -1.0203924985
   13      H       2.9016794353    -2.9618284853    -0.0551581526
   14      H       2.8935229106    -1.7568494895     2.0778728778
   15      H       2.9019387832     0.6685808692     2.1258656599
   16      C      -2.9032682114    -1.2268952370     1.1899502254
   17      C      -2.9013507935     0.1806349861     1.2183276768
   18      C      -2.9008866352    -1.9264411283    -0.0297179837
   19      C      -2.9021322108    -1.1726784125    -1.2046162976
   20      C      -2.9022779146     0.2156257200    -1.1777738927
   21      C      -2.9038764008     0.9246763789     0.0249290116
   22      H      -2.8975324879     0.7659721865    -2.1125385280
   23      H      -2.9062973607    -1.6877906794    -2.1594785847
   24      C      -2.8911860385     2.4341894873     0.0009884464
   25      H      -2.0857102237     2.8430395641     0.6162175285
   26      H      -3.8249705080     2.8432121212     0.3911754694
   27      H      -2.7526623009     2.7926019766    -1.0205788371
   28      H      -2.8983160639    -2.9581189930    -0.0553444912
   29      H      -2.9064725886    -1.7531399972     2.0776865392
   30      H      -2.8980567160     0.6722903615     2.1256793213
 ----------------------------------------------------------------

   13    -543.2873794683      4.87E-09 Convergence criterion met
 Total energy in the final basis set = -543.28737947

                    Orbital Energies (a.u.)
 --------------------------------------------------------------

 Alpha MOs
 -- Occupied --
-10.183 -10.183 -10.171 -10.171 -10.170 -10.170 -10.168 -10.168
-10.168 -10.168 -10.167 -10.167 -10.167 -10.167  -0.856  -0.856
 -0.774  -0.774  -0.745  -0.745  -0.689  -0.689  -0.609  -0.609
 -0.588  -0.588  -0.519  -0.519  -0.463  -0.463  -0.460  -0.460
 -0.423  -0.422  -0.421  -0.421  -0.416  -0.416  -0.388  -0.388
 -0.355  -0.355  -0.348  -0.348  -0.340  -0.340  -0.252  -0.251
 -0.245  -0.244

          Ground-State Mulliken Net Atomic Charges

     Atom                 Charge (a.u.)
  ----------------------------------------
      1 C                    -0.022277
      2 C                    -0.425174
      3 C                    -0.337459
      4 C                    -0.057520
      5 C                    -0.738812
      6 C                     0.980402
      7 H                     0.135360
      8 H                     0.169399
      9 C                    -0.616722
     10 H                     0.146637
     11 H                     0.154360
     12 H                     0.146891
     13 H                     0.147100
     14 H                     0.158566
     15 H                     0.158764
     16 C                    -0.077684
     17 C                    -0.387423
     18 C                    -0.309447
     19 C                    -0.129861
     20 C                    -0.628188
     21 C                     0.930800
     22 H                     0.136666
     23 H                     0.169566
     24 C                    -0.621582
     25 H                     0.147660
     26 H                     0.158027
     27 H                     0.146834
     28 H                     0.147456
     29 H                     0.159480
     30 H                     0.158180
  ----------------------------------------
  Sum of atomic charges =     0.000000

                    Cartesian Multipole Moments
 -----------------------------------------------------------------
    Charge (ESU x 10^10)
                 0.0000
    Dipole Moment (Debye)
         X      -0.0041      Y       0.6888      Z       0.1353
       Tot       0.7020
    Quadrupole Moments (Debye-Ang)
        XX     -93.8072     XY       0.0378     YY     -77.0409
        XZ      -0.0303     YZ       0.0667     ZZ     -78.3528

 Total job time:  82.29s(wall), 327.85s(cpu)
        *  Thank you very much for using Q-Chem.  Have a nice day.  *
