 Q-Chem 5.0, Q-Chem, Inc., Pleasanton, CA (2017)
 Q-Chem 5.0.1 for Intel X86 EM64T Linux

User input:
--------------------------------------------------------------
$molecule
0  1
--
0  1
C        -0.54444000        -0.68370000        -0.06689000
C        -0.55709000        +0.71878000        +0.05493000
C        -1.74320000        -1.41616000        -0.12552000
C        -2.93952000        -0.70056000        -0.05285000
C        -2.95313000        +0.68255000        +0.06934000
C        -1.77161000        +1.42404000        +0.12810000
H        -3.90354000        +1.20325000        +0.11710000
H        -3.87892000        -1.24211000        -0.08988000
C        -1.83960000        +2.92746000        +0.24839000
H        -1.24214000        +3.42352000        -0.52065000
H        -1.45503000        +3.26427000        +1.21284000
H        -2.87211000        +3.26623000        +0.14638000
H        -1.73878000        -2.44393000        -0.21875000
H        +0.35825000        -1.18166000        -0.11386000
H        +0.33551000        +1.23549000        +0.09097000
--
0  1
C        -0.69824000        -1.00544000        +4.41896000
C        -0.71089000        +0.39704000        +4.54078000
C        -1.89700000        -1.73790000        +4.36033000
C        -3.09332000        -1.02230000        +4.43300000
C        -3.10693000        +0.36081000        +4.55519000
C        -1.92541000        +1.10230000        +4.61395000
H        -4.05734000        +0.88151000        +4.60295000
H        -4.03272000        -1.56385000        +4.39597000
C        -1.99340000        +2.60572000        +4.73424000
H        -1.39594000        +3.10178000        +3.96520000
H        -1.60883000        +2.94253000        +5.69869000
H        -3.02591000        +2.94449000        +4.63223000
H        -1.89258000        -2.76567000        +4.26710000
H        +0.20445000        -1.50340000        +4.37199000
H        +0.18171000        +0.91375000        +4.57682000
$end

$rem
JOBTYPE                   SP
METHOD                    B3LYP
DFT_D                     d3_op
BASIS                     6-311++G(d,p)
SYMMETRY                  False
THRESH                    12
SCF_CONVERGENCE           8
MAX_SUB_FILE_NUM          128
MEM_STATIC                400
MEM_TOTAL                 4000
$end
--------------------------------------------------------------

             Standard Nuclear Orientation (Angstroms)
    I     Atom           X                Y                Z
 ----------------------------------------------------------------
    1      C       2.3453043217    -1.1954937119     1.1655685371
    2      C       2.3050510208     0.2114786559     1.1931132906
    3      C       2.3070266024    -1.8971663451    -0.0522783326
    4      C       2.2223800724    -1.1462475819    -1.2259485619
    5      C       2.1805846790     0.2414409413    -1.1998217971
    6      C       2.2184825091     0.9526027102     0.0010372126
    7      H       2.1204944627     0.7897258186    -2.1338782916
    8      H       2.1853852933    -1.6632269395    -2.1790926820
    9      C       2.1831487794     2.4617333005    -0.0242691029
   10      H       3.0059571662     2.8965740066     0.5487548195
   11      H       1.2582996620     2.8424956197     0.4129642786
   12      H       2.2581093222     2.8221326920    -1.0517618030
   13      H       2.3402532758    -2.9283224074    -0.0774915367
   14      H       2.4037824948    -1.7197386082     2.0525675059
   15      H       2.3394750774     0.7048866504     2.0988651335
   16      C      -2.1540406648    -1.2560782977     1.2129551412
   17      C      -2.1942939657     0.1508940700     1.2404998946
   18      C      -2.1923183841    -1.9577509310    -0.0048917285
   19      C      -2.2769649141    -1.2068321678    -1.1785619579
   20      C      -2.3187603075     0.1808563555    -1.1524351930
   21      C      -2.2808624774     0.8920181244     0.0484238166
   22      H      -2.3788505238     0.7291412328    -2.0864916876
   23      H      -2.3139596933    -1.7238115253    -2.1317060779
   24      C      -2.3161962072     2.4011487147     0.0231175011
   25      H      -1.4933878204     2.8359894208     0.5961414235
   26      H      -3.2410453245     2.7819110339     0.4603508827
   27      H      -2.2412356643     2.7615481062    -1.0043751990
   28      H      -2.1590917107    -2.9889069932    -0.0301049326
   29      H      -2.0955624917    -1.7803231941     2.0999541099
   30      H      -2.1598699092     0.6443020646     2.1462517376
 ----------------------------------------------------------------

   13    -543.2891401412      8.20E-09 Convergence criterion met
 Total energy in the final basis set = -543.28914014

                    Orbital Energies (a.u.)
 --------------------------------------------------------------

 Alpha MOs
 -- Occupied --
-10.182 -10.181 -10.170 -10.170 -10.168 -10.168 -10.168 -10.168
-10.167 -10.167 -10.165 -10.165 -10.165 -10.165  -0.854  -0.854
 -0.773  -0.772  -0.744  -0.743  -0.689  -0.688  -0.607  -0.607
 -0.587  -0.587  -0.518  -0.517  -0.462  -0.461  -0.459  -0.459
 -0.426  -0.419  -0.419  -0.418  -0.415  -0.414  -0.388  -0.387
 -0.357  -0.350  -0.347  -0.347  -0.339  -0.338  -0.254  -0.247
 -0.246  -0.240

          Ground-State Mulliken Net Atomic Charges

     Atom                 Charge (a.u.)
  ----------------------------------------
      1 C                    -0.216137
      2 C                    -0.263609
      3 C                    -0.224936
      4 C                    -0.269016
      5 C                    -0.293952
      6 C                     0.728299
      7 H                     0.149292
      8 H                     0.164529
      9 C                    -0.688068
     10 H                     0.146142
     11 H                     0.153936
     12 H                     0.142958
     13 H                     0.145861
     14 H                     0.156517
     15 H                     0.164873
     16 C                    -0.223791
     17 C                    -0.213026
     18 C                    -0.247228
     19 C                    -0.279253
     20 C                    -0.276833
     21 C                     0.676442
     22 H                     0.148857
     23 H                     0.169722
     24 C                    -0.664254
     25 H                     0.145830
     26 H                     0.156902
     27 H                     0.139842
     28 H                     0.143137
     29 H                     0.159319
     30 H                     0.167642
  ----------------------------------------
  Sum of atomic charges =    -0.000000

                    Cartesian Multipole Moments
 -----------------------------------------------------------------
    Charge (ESU x 10^10)
                -0.0000
    Dipole Moment (Debye)
         X      -0.0222      Y       0.6179      Z       0.1211
       Tot       0.6300
    Quadrupole Moments (Debye-Ang)
        XX     -94.0378     XY      -0.4494     YY     -77.3796
        XZ       0.6800     YZ       0.0539     ZZ     -78.5602

 Total job time:  95.75s(wall), 381.08s(cpu)
        *  Thank you very much for using Q-Chem.  Have a nice day.  *
