 Q-Chem 5.0, Q-Chem, Inc., Pleasanton, CA (2017)
 Q-Chem 5.0.1 for Intel X86 EM64T Linux

User input:
--------------------------------------------------------------
$molecule
0  1
--
0  1
C        -0.55335000        -0.66344000        -0.04955000
C        -0.58369000        +0.72363000        +0.07143000
C        -1.74416000        -1.38805000        -0.12104000
C        -2.96100000        -0.71253000        -0.06974000
C        -2.98560000        +0.67733000        +0.05133000
C        -1.80096000        +1.41593000        +0.12202000
H        -3.93869000        +1.19496000        +0.09042000
H        -3.89285000        -1.26490000        -0.12448000
C        -1.82561000        +2.92062000        +0.24749000
H        -1.30124000        +3.39464000        -0.58804000
H        -1.33421000        +3.24931000        +1.16844000
H        -2.84892000        +3.30103000        +0.25949000
H        -1.72216000        -2.46788000        -0.21620000
H        +0.39889000        -1.18111000        -0.08841000
H        +0.34820000        +1.27792000        +0.12648000
--
0  1
C        -0.58314000        -1.05478000        +4.43330000
C        -0.61348000        +0.33229000        +4.55428000
C        -1.77395000        -1.77939000        +4.36181000
C        -2.99079000        -1.10387000        +4.41311000
C        -3.01539000        +0.28599000        +4.53418000
C        -1.83075000        +1.02459000        +4.60487000
H        -3.96848000        +0.80362000        +4.57327000
H        -3.92264000        -1.65624000        +4.35837000
C        -1.85540000        +2.52928000        +4.73034000
H        -1.33103000        +3.00330000        +3.89481000
H        -1.36400000        +2.85797000        +5.65129000
H        -2.87871000        +2.90969000        +4.74234000
H        -1.75195000        -2.85922000        +4.26665000
H        +0.36910000        -1.57245000        +4.39444000
H        +0.31841000        +0.88658000        +4.60933000
$end

$rem
JOBTYPE                   SP
METHOD                    B3LYP
DFT_D                     d3_op
BASIS                     6-311++G(d,p)
SYMMETRY                  False
THRESH                    12
SCF_CONVERGENCE           8
MAX_SUB_FILE_NUM          128
MEM_STATIC                400
MEM_TOTAL                 4000
$end
--------------------------------------------------------------

             Standard Nuclear Orientation (Angstroms)
    I     Atom           X                Y                Z
 ----------------------------------------------------------------
    1      C       2.2467325980    -1.1982990639     1.2062265600
    2      C       2.2484838586     0.1943539573     1.2003651092
    3      C       2.2461251065    -1.9053361895     0.0027744163
    4      C       2.2466473670    -1.2066294008    -1.2019940663
    5      C       2.2485931097     0.1887093154    -1.2020685473
    6      C       2.2511919043     0.9097177803    -0.0045548708
    7      H       2.2490759024     0.7244506562    -2.1459066562
    8      H       2.2462677660    -1.7452012941    -2.1434788929
    9      C       2.2588922488     2.4198103601    -0.0026988687
   10      H       3.1364446377     2.8090319608     0.5228271425
   11      H       1.3738138298     2.8197159550     0.5016538709
   12      H       2.2737817162     2.8177339713    -1.0192883766
   13      H       2.2457246656    -2.9895702394     0.0057102910
   14      H       2.2460115770    -1.7340450185     2.1492160076
   15      H       2.2487244456     0.7348647024     2.1419249614
   16      C      -2.2532610699    -1.1923367137     1.2061882903
   17      C      -2.2515098093     0.2003163074     1.2003268395
   18      C      -2.2538685614    -1.8993738394     0.0027361466
   19      C      -2.2533463009    -1.2006670507    -1.2020323360
   20      C      -2.2514005582     0.1946716655    -1.2021068170
   21      C      -2.2488017636     0.9156801304    -0.0045931405
   22      H      -2.2509177654     0.7304130063    -2.1459449259
   23      H      -2.2537259019    -1.7392389440    -2.1435171626
   24      C      -2.2411014191     2.4257727102    -0.0027371384
   25      H      -1.3635490302     2.8149943109     0.5227888728
   26      H      -3.1261798381     2.8256783051     0.5016156012
   27      H      -2.2262119517     2.8236963214    -1.0193266463
   28      H      -2.2542690023    -2.9836078892     0.0056720213
   29      H      -2.2539820909    -1.7280826684     2.1491777379
   30      H      -2.2512692223     0.7408270525     2.1418866917
 ----------------------------------------------------------------

   13    -543.3027159755      6.03E-09 Convergence criterion met
 Total energy in the final basis set = -543.30271598

                    Orbital Energies (a.u.)
 --------------------------------------------------------------

 Alpha MOs
 -- Occupied --
-10.182 -10.182 -10.172 -10.172 -10.171 -10.171 -10.169 -10.169
-10.169 -10.169 -10.169 -10.169 -10.168 -10.168  -0.856  -0.856
 -0.772  -0.771  -0.744  -0.744  -0.686  -0.686  -0.605  -0.604
 -0.584  -0.584  -0.512  -0.511  -0.461  -0.461  -0.454  -0.454
 -0.426  -0.420  -0.420  -0.419  -0.409  -0.409  -0.387  -0.386
 -0.359  -0.352  -0.343  -0.343  -0.340  -0.340  -0.256  -0.249
 -0.247  -0.240

          Ground-State Mulliken Net Atomic Charges

     Atom                 Charge (a.u.)
  ----------------------------------------
      1 C                    -0.222127
      2 C                    -0.207914
      3 C                    -0.252748
      4 C                    -0.270297
      5 C                    -0.273362
      6 C                     0.657781
      7 H                     0.153341
      8 H                     0.169799
      9 C                    -0.687832
     10 H                     0.151135
     11 H                     0.150515
     12 H                     0.140970
     13 H                     0.150903
     14 H                     0.165234
     15 H                     0.174505
     16 C                    -0.228362
     17 C                    -0.198434
     18 C                    -0.253410
     19 C                    -0.268743
     20 C                    -0.276115
     21 C                     0.661451
     22 H                     0.153219
     23 H                     0.169915
     24 C                    -0.691809
     25 H                     0.148720
     26 H                     0.151921
     27 H                     0.140620
     28 H                     0.150740
     29 H                     0.165239
     30 H                     0.175143
  ----------------------------------------
  Sum of atomic charges =    -0.000000

                    Cartesian Multipole Moments
 -----------------------------------------------------------------
    Charge (ESU x 10^10)
                -0.0000
    Dipole Moment (Debye)
         X       0.0077      Y       0.6451      Z       0.0591
       Tot       0.6479
    Quadrupole Moments (Debye-Ang)
        XX     -94.2569     XY       0.0253     YY     -78.0101
        XZ      -0.0022     YZ       0.0763     ZZ     -78.4720

 Total job time:  97.22s(wall), 386.56s(cpu)
        *  Thank you very much for using Q-Chem.  Have a nice day.  *
