 Q-Chem 5.0, Q-Chem, Inc., Pleasanton, CA (2017)
 Q-Chem 5.0.1 for Intel X86 EM64T Linux

User input:
--------------------------------------------------------------
$molecule
0  1
C        -0.74267000        -1.09839000        +5.71487000
C        -0.75532000        +0.30409000        +5.83669000
C        -1.94143000        -1.83085000        +5.65624000
C        -3.13775000        -1.11525000        +5.72891000
C        -3.15136000        +0.26786000        +5.85110000
C        -1.96984000        +1.00935000        +5.90986000
H        -4.10177000        +0.78856000        +5.89886000
H        -4.07715000        -1.65680000        +5.69188000
C        -2.03783000        +2.51277000        +6.03015000
H        -1.44037000        +3.00883000        +5.26111000
H        -1.65326000        +2.84958000        +6.99460000
H        -3.07034000        +2.85154000        +5.92814000
H        -1.93701000        -2.85862000        +5.56301000
H        +0.16002000        -1.59635000        +5.66790000
H        +0.13728000        +0.82080000        +5.87273000
@C        -0.54444000        -0.68370000        -0.06689000
@C        -0.55709000        +0.71878000        +0.05493000
@C        -1.74320000        -1.41616000        -0.12552000
@C        -2.93952000        -0.70056000        -0.05285000
@C        -2.95313000        +0.68255000        +0.06934000
@C        -1.77161000        +1.42404000        +0.12810000
@H        -3.90354000        +1.20325000        +0.11710000
@H        -3.87892000        -1.24211000        -0.08988000
@C        -1.83960000        +2.92746000        +0.24839000
@H        -1.24214000        +3.42352000        -0.52065000
@H        -1.45503000        +3.26427000        +1.21284000
@H        -2.87211000        +3.26623000        +0.14638000
@H        -1.73878000        -2.44393000        -0.21875000
@H        +0.35825000        -1.18166000        -0.11386000
@H        +0.33551000        +1.23549000        +0.09097000
$end

$rem
JOBTYPE                   SP
METHOD                    B3LYP
DFT_D                     d3_op
BASIS                     6-311++G(d,p)
SYMMETRY                  False
THRESH                    12
SCF_CONVERGENCE           8
MAX_SUB_FILE_NUM          128
MEM_STATIC                400
MEM_TOTAL                 4000
$end
--------------------------------------------------------------

             Standard Nuclear Orientation (Angstroms)
    I     Atom           X                Y                Z
 ----------------------------------------------------------------
    1      C      -0.7426700000    -1.0983900000     5.7148700000
    2      C      -0.7553200000     0.3040900000     5.8366900000
    3      C      -1.9414300000    -1.8308500000     5.6562400000
    4      C      -3.1377500000    -1.1152500000     5.7289100000
    5      C      -3.1513600000     0.2678600000     5.8511000000
    6      C      -1.9698400000     1.0093500000     5.9098600000
    7      H      -4.1017700000     0.7885600000     5.8988600000
    8      H      -4.0771500000    -1.6568000000     5.6918800000
    9      C      -2.0378300000     2.5127700000     6.0301500000
   10      H      -1.4403700000     3.0088300000     5.2611100000
   11      H      -1.6532600000     2.8495800000     6.9946000000
   12      H      -3.0703400000     2.8515400000     5.9281400000
   13      H      -1.9370100000    -2.8586200000     5.5630100000
   14      H       0.1600200000    -1.5963500000     5.6679000000
   15      H       0.1372800000     0.8208000000     5.8727300000
   16      GH     -0.5444400000    -0.6837000000    -0.0668900000
   17      GH     -0.5570900000     0.7187800000     0.0549300000
   18      GH     -1.7432000000    -1.4161600000    -0.1255200000
   19      GH     -2.9395200000    -0.7005600000    -0.0528500000
   20      GH     -2.9531300000     0.6825500000     0.0693400000
   21      GH     -1.7716100000     1.4240400000     0.1281000000
   22      GH     -3.9035400000     1.2032500000     0.1171000000
   23      GH     -3.8789200000    -1.2421100000    -0.0898800000
   24      GH     -1.8396000000     2.9274600000     0.2483900000
   25      GH     -1.2421400000     3.4235200000    -0.5206500000
   26      GH     -1.4550300000     3.2642700000     1.2128400000
   27      GH     -2.8721100000     3.2662300000     0.1463800000
   28      GH     -1.7387800000    -2.4439300000    -0.2187500000
   29      GH      0.3582500000    -1.1816600000    -0.1138600000
   30      GH      0.3355100000     1.2354900000     0.0909700000
 ----------------------------------------------------------------

   12    -271.6435954474      9.57E-09 Convergence criterion met
 Total energy in the final basis set = -271.64359545

                    Orbital Energies (a.u.)
 --------------------------------------------------------------

 Alpha MOs
 -- Occupied --
-10.185 -10.174 -10.172 -10.171 -10.170 -10.169 -10.169  -0.858
 -0.776  -0.747  -0.691  -0.611  -0.591  -0.521  -0.465  -0.462
 -0.424  -0.423  -0.418  -0.390  -0.358  -0.350  -0.342  -0.255
 -0.247

          Ground-State Mulliken Net Atomic Charges

     Atom                 Charge (a.u.)
  ----------------------------------------
      1 C                    -0.082803
      2 C                    -0.374009
      3 C                    -0.316159
      4 C                    -0.126956
      5 C                    -0.630246
      6 C                     0.915974
      7 H                     0.138711
      8 H                     0.172270
      9 C                    -0.619541
     10 H                     0.149652
     11 H                     0.158703
     12 H                     0.147906
     13 H                     0.148682
     14 H                     0.161245
     15 H                     0.160607
     16 GH                   -0.002850
     17 GH                    0.005661
     18 GH                    0.004693
     19 GH                   -0.002761
     20 GH                   -0.008057
     21 GH                   -0.000506
     22 GH                   -0.000978
     23 GH                   -0.000190
     24 GH                    0.001963
     25 GH                   -0.000064
     26 GH                   -0.000601
     27 GH                    0.000268
     28 GH                    0.000383
     29 GH                   -0.000591
     30 GH                   -0.000405
  ----------------------------------------
  Sum of atomic charges =     0.000000

                    Cartesian Multipole Moments
 -----------------------------------------------------------------
    Charge (ESU x 10^10)
                 0.0000
    Dipole Moment (Debye)
         X       0.0622      Y       0.3873      Z       0.0287
       Tot       0.3934
    Quadrupole Moments (Debye-Ang)
        XX     -39.3763     XY      -0.7333     YY     -38.3919
        XZ       0.2750     YZ       2.9566     ZZ     -46.0799

 Total job time:  72.10s(wall), 286.73s(cpu)
        *  Thank you very much for using Q-Chem.  Have a nice day.  *
