 Q-Chem 5.0, Q-Chem, Inc., Pleasanton, CA (2017)
 Q-Chem 5.0.1 for Intel X86 EM64T Linux

User input:
--------------------------------------------------------------
$molecule
0  1
C        -0.51347000        -1.07606000        +4.41587000
C        -0.52612000        +0.32642000        +4.53769000
C        -1.71223000        -1.80852000        +4.35724000
C        -2.90855000        -1.09292000        +4.42991000
C        -2.92216000        +0.29019000        +4.55210000
C        -1.74064000        +1.03168000        +4.61086000
H        -3.87257000        +0.81089000        +4.59986000
H        -3.84795000        -1.63447000        +4.39288000
C        -1.80863000        +2.53510000        +4.73115000
H        -1.21117000        +3.03116000        +3.96211000
H        -1.42406000        +2.87191000        +5.69560000
H        -2.84114000        +2.87387000        +4.62914000
H        -1.70781000        -2.83629000        +4.26401000
H        +0.38922000        -1.57402000        +4.36890000
H        +0.36648000        +0.84313000        +4.57373000
@C        -0.54444000        -0.68370000        -0.06689000
@C        -0.55709000        +0.71878000        +0.05493000
@C        -1.74320000        -1.41616000        -0.12552000
@C        -2.93952000        -0.70056000        -0.05285000
@C        -2.95313000        +0.68255000        +0.06934000
@C        -1.77161000        +1.42404000        +0.12810000
@H        -3.90354000        +1.20325000        +0.11710000
@H        -3.87892000        -1.24211000        -0.08988000
@C        -1.83960000        +2.92746000        +0.24839000
@H        -1.24214000        +3.42352000        -0.52065000
@H        -1.45503000        +3.26427000        +1.21284000
@H        -2.87211000        +3.26623000        +0.14638000
@H        -1.73878000        -2.44393000        -0.21875000
@H        +0.35825000        -1.18166000        -0.11386000
@H        +0.33551000        +1.23549000        +0.09097000
$end

$rem
JOBTYPE                   SP
METHOD                    B3LYP
DFT_D                     d3_op
BASIS                     6-311++G(d,p)
SYMMETRY                  False
THRESH                    12
SCF_CONVERGENCE           8
MAX_SUB_FILE_NUM          128
MEM_STATIC                400
MEM_TOTAL                 4000
$end
--------------------------------------------------------------

             Standard Nuclear Orientation (Angstroms)
    I     Atom           X                Y                Z
 ----------------------------------------------------------------
    1      C      -0.5134700000    -1.0760600000     4.4158700000
    2      C      -0.5261200000     0.3264200000     4.5376900000
    3      C      -1.7122300000    -1.8085200000     4.3572400000
    4      C      -2.9085500000    -1.0929200000     4.4299100000
    5      C      -2.9221600000     0.2901900000     4.5521000000
    6      C      -1.7406400000     1.0316800000     4.6108600000
    7      H      -3.8725700000     0.8108900000     4.5998600000
    8      H      -3.8479500000    -1.6344700000     4.3928800000
    9      C      -1.8086300000     2.5351000000     4.7311500000
   10      H      -1.2111700000     3.0311600000     3.9621100000
   11      H      -1.4240600000     2.8719100000     5.6956000000
   12      H      -2.8411400000     2.8738700000     4.6291400000
   13      H      -1.7078100000    -2.8362900000     4.2640100000
   14      H       0.3892200000    -1.5740200000     4.3689000000
   15      H       0.3664800000     0.8431300000     4.5737300000
   16      GH     -0.5444400000    -0.6837000000    -0.0668900000
   17      GH     -0.5570900000     0.7187800000     0.0549300000
   18      GH     -1.7432000000    -1.4161600000    -0.1255200000
   19      GH     -2.9395200000    -0.7005600000    -0.0528500000
   20      GH     -2.9531300000     0.6825500000     0.0693400000
   21      GH     -1.7716100000     1.4240400000     0.1281000000
   22      GH     -3.9035400000     1.2032500000     0.1171000000
   23      GH     -3.8789200000    -1.2421100000    -0.0898800000
   24      GH     -1.8396000000     2.9274600000     0.2483900000
   25      GH     -1.2421400000     3.4235200000    -0.5206500000
   26      GH     -1.4550300000     3.2642700000     1.2128400000
   27      GH     -2.8721100000     3.2662300000     0.1463800000
   28      GH     -1.7387800000    -2.4439300000    -0.2187500000
   29      GH      0.3582500000    -1.1816600000    -0.1138600000
   30      GH      0.3355100000     1.2354900000     0.0909700000
 ----------------------------------------------------------------

   12    -271.6438752696      9.84E-09 Convergence criterion met
 Total energy in the final basis set = -271.64387527

                    Orbital Energies (a.u.)
 --------------------------------------------------------------

 Alpha MOs
 -- Occupied --
-10.185 -10.174 -10.172 -10.171 -10.170 -10.169 -10.169  -0.858
 -0.776  -0.747  -0.691  -0.611  -0.591  -0.521  -0.465  -0.462
 -0.424  -0.423  -0.418  -0.390  -0.358  -0.350  -0.342  -0.255
 -0.247

          Ground-State Mulliken Net Atomic Charges

     Atom                 Charge (a.u.)
  ----------------------------------------
      1 C                    -0.229146
      2 C                    -0.220986
      3 C                    -0.270778
      4 C                    -0.261529
      5 C                    -0.238301
      6 C                     0.658224
      7 H                     0.154387
      8 H                     0.171748
      9 C                    -0.682170
     10 H                     0.154367
     11 H                     0.158000
     12 H                     0.139580
     13 H                     0.145931
     14 H                     0.162120
     15 H                     0.171043
     16 GH                   -0.009546
     17 GH                   -0.014498
     18 GH                    0.014806
     19 GH                   -0.018117
     20 GH                   -0.002225
     21 GH                   -0.004417
     22 GH                    0.000551
     23 GH                    0.000516
     24 GH                    0.018388
     25 GH                   -0.000341
     26 GH                   -0.002053
     27 GH                    0.001520
     28 GH                    0.002403
     29 GH                    0.001260
     30 GH                   -0.000738
  ----------------------------------------
  Sum of atomic charges =     0.000000

                    Cartesian Multipole Moments
 -----------------------------------------------------------------
    Charge (ESU x 10^10)
                -0.0000
    Dipole Moment (Debye)
         X       0.0618      Y       0.3881      Z       0.0357
       Tot       0.3946
    Quadrupole Moments (Debye-Ang)
        XX     -39.3689     XY      -0.6425     YY     -38.3962
        XZ       0.1896     YZ       2.4479     ZZ     -46.0826

 Total job time:  83.82s(wall), 334.14s(cpu)
        *  Thank you very much for using Q-Chem.  Have a nice day.  *
