 Q-Chem 5.0, Q-Chem, Inc., Pleasanton, CA (2017)
 Q-Chem 5.0.1 for Intel X86 EM64T Linux

User input:
--------------------------------------------------------------
$molecule
0  1
C        -0.69824000        -1.00544000        +4.41896000
C        -0.71089000        +0.39704000        +4.54078000
C        -1.89700000        -1.73790000        +4.36033000
C        -3.09332000        -1.02230000        +4.43300000
C        -3.10693000        +0.36081000        +4.55519000
C        -1.92541000        +1.10230000        +4.61395000
H        -4.05734000        +0.88151000        +4.60295000
H        -4.03272000        -1.56385000        +4.39597000
C        -1.99340000        +2.60572000        +4.73424000
H        -1.39594000        +3.10178000        +3.96520000
H        -1.60883000        +2.94253000        +5.69869000
H        -3.02591000        +2.94449000        +4.63223000
H        -1.89258000        -2.76567000        +4.26710000
H        +0.20445000        -1.50340000        +4.37199000
H        +0.18171000        +0.91375000        +4.57682000
@C        -0.54444000        -0.68370000        -0.06689000
@C        -0.55709000        +0.71878000        +0.05493000
@C        -1.74320000        -1.41616000        -0.12552000
@C        -2.93952000        -0.70056000        -0.05285000
@C        -2.95313000        +0.68255000        +0.06934000
@C        -1.77161000        +1.42404000        +0.12810000
@H        -3.90354000        +1.20325000        +0.11710000
@H        -3.87892000        -1.24211000        -0.08988000
@C        -1.83960000        +2.92746000        +0.24839000
@H        -1.24214000        +3.42352000        -0.52065000
@H        -1.45503000        +3.26427000        +1.21284000
@H        -2.87211000        +3.26623000        +0.14638000
@H        -1.73878000        -2.44393000        -0.21875000
@H        +0.35825000        -1.18166000        -0.11386000
@H        +0.33551000        +1.23549000        +0.09097000
$end

$rem
JOBTYPE                   SP
METHOD                    B3LYP
DFT_D                     d3_op
BASIS                     6-311++G(d,p)
SYMMETRY                  False
THRESH                    12
SCF_CONVERGENCE           8
MAX_SUB_FILE_NUM          128
MEM_STATIC                400
MEM_TOTAL                 4000
$end
--------------------------------------------------------------

             Standard Nuclear Orientation (Angstroms)
    I     Atom           X                Y                Z
 ----------------------------------------------------------------
    1      C      -0.6982400000    -1.0054400000     4.4189600000
    2      C      -0.7108900000     0.3970400000     4.5407800000
    3      C      -1.8970000000    -1.7379000000     4.3603300000
    4      C      -3.0933200000    -1.0223000000     4.4330000000
    5      C      -3.1069300000     0.3608100000     4.5551900000
    6      C      -1.9254100000     1.1023000000     4.6139500000
    7      H      -4.0573400000     0.8815100000     4.6029500000
    8      H      -4.0327200000    -1.5638500000     4.3959700000
    9      C      -1.9934000000     2.6057200000     4.7342400000
   10      H      -1.3959400000     3.1017800000     3.9652000000
   11      H      -1.6088300000     2.9425300000     5.6986900000
   12      H      -3.0259100000     2.9444900000     4.6322300000
   13      H      -1.8925800000    -2.7656700000     4.2671000000
   14      H       0.2044500000    -1.5034000000     4.3719900000
   15      H       0.1817100000     0.9137500000     4.5768200000
   16      GH     -0.5444400000    -0.6837000000    -0.0668900000
   17      GH     -0.5570900000     0.7187800000     0.0549300000
   18      GH     -1.7432000000    -1.4161600000    -0.1255200000
   19      GH     -2.9395200000    -0.7005600000    -0.0528500000
   20      GH     -2.9531300000     0.6825500000     0.0693400000
   21      GH     -1.7716100000     1.4240400000     0.1281000000
   22      GH     -3.9035400000     1.2032500000     0.1171000000
   23      GH     -3.8789200000    -1.2421100000    -0.0898800000
   24      GH     -1.8396000000     2.9274600000     0.2483900000
   25      GH     -1.2421400000     3.4235200000    -0.5206500000
   26      GH     -1.4550300000     3.2642700000     1.2128400000
   27      GH     -2.8721100000     3.2662300000     0.1463800000
   28      GH     -1.7387800000    -2.4439300000    -0.2187500000
   29      GH      0.3582500000    -1.1816600000    -0.1138600000
   30      GH      0.3355100000     1.2354900000     0.0909700000
 ----------------------------------------------------------------

   12    -271.6438680194      9.85E-09 Convergence criterion met
 Total energy in the final basis set = -271.64386802

                    Orbital Energies (a.u.)
 --------------------------------------------------------------

 Alpha MOs
 -- Occupied --
-10.185 -10.174 -10.172 -10.171 -10.170 -10.169 -10.169  -0.858
 -0.776  -0.747  -0.691  -0.611  -0.591  -0.521  -0.465  -0.462
 -0.424  -0.423  -0.418  -0.390  -0.358  -0.350  -0.342  -0.255
 -0.247

          Ground-State Mulliken Net Atomic Charges

     Atom                 Charge (a.u.)
  ----------------------------------------
      1 C                    -0.225152
      2 C                    -0.219361
      3 C                    -0.269387
      4 C                    -0.263848
      5 C                    -0.252419
      6 C                     0.665046
      7 H                     0.154131
      8 H                     0.172468
      9 C                    -0.681818
     10 H                     0.156603
     11 H                     0.158233
     12 H                     0.140710
     13 H                     0.145670
     14 H                     0.161531
     15 H                     0.170633
     16 GH                   -0.020025
     17 GH                   -0.008920
     18 GH                    0.013924
     19 GH                   -0.010133
     20 GH                   -0.004529
     21 GH                   -0.001892
     22 GH                    0.000547
     23 GH                    0.001026
     24 GH                    0.017274
     25 GH                   -0.000350
     26 GH                   -0.003470
     27 GH                    0.001799
     28 GH                    0.002464
     29 GH                    0.000259
     30 GH                   -0.001013
  ----------------------------------------
  Sum of atomic charges =     0.000000

                    Cartesian Multipole Moments
 -----------------------------------------------------------------
    Charge (ESU x 10^10)
                -0.0000
    Dipole Moment (Debye)
         X       0.0626      Y       0.3876      Z       0.0354
       Tot       0.3942
    Quadrupole Moments (Debye-Ang)
        XX     -39.3963     XY      -0.7108     YY     -38.3402
        XZ       0.1877     YZ       2.4501     ZZ     -46.0846

 Total job time:  84.73s(wall), 337.03s(cpu)
        *  Thank you very much for using Q-Chem.  Have a nice day.  *
