 Q-Chem 5.0, Q-Chem, Inc., Pleasanton, CA (2017)
 Q-Chem 5.0.1 for Intel X86 EM64T Linux

User input:
--------------------------------------------------------------
$molecule
0  1
--
0  1
C        -0.54444000        -0.68370000        -0.06689000
C        -0.55709000        +0.71878000        +0.05493000
C        -1.74320000        -1.41616000        -0.12552000
C        -2.93952000        -0.70056000        -0.05285000
C        -2.95313000        +0.68255000        +0.06934000
C        -1.77161000        +1.42404000        +0.12810000
H        -3.90354000        +1.20325000        +0.11710000
H        -3.87892000        -1.24211000        -0.08988000
C        -1.83960000        +2.92746000        +0.24839000
H        -1.24214000        +3.42352000        -0.52065000
H        -1.45503000        +3.26427000        +1.21284000
H        -2.87211000        +3.26623000        +0.14638000
H        -1.73878000        -2.44393000        -0.21875000
H        +0.35825000        -1.18166000        -0.11386000
H        +0.33551000        +1.23549000        +0.09097000
--
0  1
C        -0.74267000        -1.09839000        +5.71487000
C        -0.75532000        +0.30409000        +5.83669000
C        -1.94143000        -1.83085000        +5.65624000
C        -3.13775000        -1.11525000        +5.72891000
C        -3.15136000        +0.26786000        +5.85110000
C        -1.96984000        +1.00935000        +5.90986000
H        -4.10177000        +0.78856000        +5.89886000
H        -4.07715000        -1.65680000        +5.69188000
C        -2.03783000        +2.51277000        +6.03015000
H        -1.44037000        +3.00883000        +5.26111000
H        -1.65326000        +2.84958000        +6.99460000
H        -3.07034000        +2.85154000        +5.92814000
H        -1.93701000        -2.85862000        +5.56301000
H        +0.16002000        -1.59635000        +5.66790000
H        +0.13728000        +0.82080000        +5.87273000
$end

$rem
JOBTYPE                   SP
METHOD                    B3LYP
DFT_D                     d3_op
BASIS                     6-311++G(d,p)
SYMMETRY                  False
THRESH                    12
SCF_CONVERGENCE           8
MAX_SUB_FILE_NUM          128
MEM_STATIC                400
MEM_TOTAL                 4000
$end
--------------------------------------------------------------

             Standard Nuclear Orientation (Angstroms)
    I     Atom           X                Y                Z
 ----------------------------------------------------------------
    1      C       2.9806857066    -1.2092568468     1.1728084623
    2      C       2.9508065082     0.1979724609     1.2004344344
    3      C       2.9429988710    -1.9104303419    -0.0453442779
    4      C       2.8695785636    -1.1587137560    -1.2192597195
    5      C       2.8380201476     0.2292439850    -1.1930628543
    6      C       2.8754792494     0.9399118904     0.0081022517
    7      H       2.7864956695     0.7781108579    -2.1272893043
    8      H       2.8332867868    -1.6752508198    -2.1726706236
    9      C       2.8515350521     2.4492682469    -0.0170788001
   10      H       3.6748153625     2.8778619444     0.5599597339
   11      H       1.9274726594     2.8368560108     0.4157991078
   12      H       2.9341004249     2.8092613478    -1.0441308823
   13      H       2.9686463729    -2.9418017302    -0.0705991256
   14      H       3.0310028791    -1.7340648856     2.0599748971
   15      H       2.9845784774     0.6909655541     2.1064367136
   16      C      -2.8191152224    -1.2440533312     1.2061253624
   17      C      -2.8489944207     0.1631759765     1.2337513346
   18      C      -2.8568020580    -1.9452268263    -0.0120273777
   19      C      -2.9302223653    -1.1935102404    -1.1859428194
   20      C      -2.9617807813     0.1944475006    -1.1597459542
   21      C      -2.9243216795     0.9051154060     0.0414191519
   22      H      -3.0133052594     0.7433143735    -2.0939724041
   23      H      -2.9665141421    -1.7100473042    -2.1393537235
   24      C      -2.9482658768     2.4144717624     0.0162381000
   25      H      -2.1249855665     2.8430654599     0.5932766341
   26      H      -3.8723282695     2.8020595264     0.4491160079
   27      H      -2.8657005041     2.7744648634    -1.0108139822
   28      H      -2.8311545561    -2.9765982146    -0.0372822254
   29      H      -2.7687980499    -1.7688613700     2.0932917973
   30      H      -2.8152224515     0.6561690697     2.1397536138
 ----------------------------------------------------------------

   13    -543.2873703686      5.17E-09 Convergence criterion met
 Total energy in the final basis set = -543.28737037

                    Orbital Energies (a.u.)
 --------------------------------------------------------------

 Alpha MOs
 -- Occupied --
-10.183 -10.183 -10.171 -10.171 -10.170 -10.170 -10.168 -10.168
-10.168 -10.168 -10.167 -10.167 -10.167 -10.167  -0.856  -0.856
 -0.774  -0.774  -0.745  -0.745  -0.689  -0.689  -0.609  -0.609
 -0.588  -0.588  -0.519  -0.519  -0.463  -0.463  -0.460  -0.460
 -0.423  -0.422  -0.421  -0.421  -0.416  -0.416  -0.388  -0.388
 -0.355  -0.355  -0.348  -0.348  -0.340  -0.340  -0.252  -0.251
 -0.245  -0.244

          Ground-State Mulliken Net Atomic Charges

     Atom                 Charge (a.u.)
  ----------------------------------------
      1 C                    -0.020631
      2 C                    -0.428322
      3 C                    -0.340018
      4 C                    -0.055506
      5 C                    -0.740246
      6 C                     0.988742
      7 H                     0.134827
      8 H                     0.169461
      9 C                    -0.621333
     10 H                     0.146373
     11 H                     0.154041
     12 H                     0.146968
     13 H                     0.147128
     14 H                     0.158743
     15 H                     0.159114
     16 C                    -0.080002
     17 C                    -0.373207
     18 C                    -0.309042
     19 C                    -0.129305
     20 C                    -0.638628
     21 C                     0.928639
     22 H                     0.136418
     23 H                     0.170099
     24 C                    -0.622265
     25 H                     0.147545
     26 H                     0.158149
     27 H                     0.147435
     28 H                     0.147480
     29 H                     0.159096
     30 H                     0.158247
  ----------------------------------------
  Sum of atomic charges =     0.000000

                    Cartesian Multipole Moments
 -----------------------------------------------------------------
    Charge (ESU x 10^10)
                 0.0000
    Dipole Moment (Debye)
         X      -0.0157      Y       0.6889      Z       0.1347
       Tot       0.7021
    Quadrupole Moments (Debye-Ang)
        XX     -93.7725     XY      -0.3323     YY     -77.0473
        XZ       0.6232     YZ       0.0792     ZZ     -78.3826

 Total job time:  82.62s(wall), 328.58s(cpu)
        *  Thank you very much for using Q-Chem.  Have a nice day.  *
