 Q-Chem 5.0, Q-Chem, Inc., Pleasanton, CA (2017)
 Q-Chem 5.0.1 for Intel X86 EM64T Linux

User input:
--------------------------------------------------------------
$molecule
0  1
C        -0.50453000        -1.18941000        +5.71088000
C        -0.51718000        +0.21307000        +5.83270000
C        -1.70329000        -1.92187000        +5.65225000
C        -2.89961000        -1.20627000        +5.72492000
C        -2.91322000        +0.17684000        +5.84711000
C        -1.73170000        +0.91833000        +5.90587000
H        -3.86363000        +0.69754000        +5.89487000
H        -3.83901000        -1.74782000        +5.68789000
C        -1.79969000        +2.42175000        +6.02616000
H        -1.20223000        +2.91781000        +5.25712000
H        -1.41512000        +2.75856000        +6.99061000
H        -2.83220000        +2.76052000        +5.92415000
H        -1.69887000        -2.94964000        +5.55902000
H        +0.39816000        -1.68737000        +5.66391000
H        +0.37542000        +0.72978000        +5.86874000
@C        -0.54444000        -0.68370000        -0.06689000
@C        -0.55709000        +0.71878000        +0.05493000
@C        -1.74320000        -1.41616000        -0.12552000
@C        -2.93952000        -0.70056000        -0.05285000
@C        -2.95313000        +0.68255000        +0.06934000
@C        -1.77161000        +1.42404000        +0.12810000
@H        -3.90354000        +1.20325000        +0.11710000
@H        -3.87892000        -1.24211000        -0.08988000
@C        -1.83960000        +2.92746000        +0.24839000
@H        -1.24214000        +3.42352000        -0.52065000
@H        -1.45503000        +3.26427000        +1.21284000
@H        -2.87211000        +3.26623000        +0.14638000
@H        -1.73878000        -2.44393000        -0.21875000
@H        +0.35825000        -1.18166000        -0.11386000
@H        +0.33551000        +1.23549000        +0.09097000
$end

$rem
JOBTYPE                   SP
METHOD                    B3LYP
DFT_D                     d3_op
BASIS                     6-311++G(d,p)
SYMMETRY                  False
THRESH                    12
SCF_CONVERGENCE           8
MAX_SUB_FILE_NUM          128
MEM_STATIC                400
MEM_TOTAL                 4000
$end
--------------------------------------------------------------

             Standard Nuclear Orientation (Angstroms)
    I     Atom           X                Y                Z
 ----------------------------------------------------------------
    1      C      -0.5045300000    -1.1894100000     5.7108800000
    2      C      -0.5171800000     0.2130700000     5.8327000000
    3      C      -1.7032900000    -1.9218700000     5.6522500000
    4      C      -2.8996100000    -1.2062700000     5.7249200000
    5      C      -2.9132200000     0.1768400000     5.8471100000
    6      C      -1.7317000000     0.9183300000     5.9058700000
    7      H      -3.8636300000     0.6975400000     5.8948700000
    8      H      -3.8390100000    -1.7478200000     5.6878900000
    9      C      -1.7996900000     2.4217500000     6.0261600000
   10      H      -1.2022300000     2.9178100000     5.2571200000
   11      H      -1.4151200000     2.7585600000     6.9906100000
   12      H      -2.8322000000     2.7605200000     5.9241500000
   13      H      -1.6988700000    -2.9496400000     5.5590200000
   14      H       0.3981600000    -1.6873700000     5.6639100000
   15      H       0.3754200000     0.7297800000     5.8687400000
   16      GH     -0.5444400000    -0.6837000000    -0.0668900000
   17      GH     -0.5570900000     0.7187800000     0.0549300000
   18      GH     -1.7432000000    -1.4161600000    -0.1255200000
   19      GH     -2.9395200000    -0.7005600000    -0.0528500000
   20      GH     -2.9531300000     0.6825500000     0.0693400000
   21      GH     -1.7716100000     1.4240400000     0.1281000000
   22      GH     -3.9035400000     1.2032500000     0.1171000000
   23      GH     -3.8789200000    -1.2421100000    -0.0898800000
   24      GH     -1.8396000000     2.9274600000     0.2483900000
   25      GH     -1.2421400000     3.4235200000    -0.5206500000
   26      GH     -1.4550300000     3.2642700000     1.2128400000
   27      GH     -2.8721100000     3.2662300000     0.1463800000
   28      GH     -1.7387800000    -2.4439300000    -0.2187500000
   29      GH      0.3582500000    -1.1816600000    -0.1138600000
   30      GH      0.3355100000     1.2354900000     0.0909700000
 ----------------------------------------------------------------

   12    -271.6435943377      9.56E-09 Convergence criterion met
 Total energy in the final basis set = -271.64359434

                    Orbital Energies (a.u.)
 --------------------------------------------------------------

 Alpha MOs
 -- Occupied --
-10.185 -10.174 -10.172 -10.171 -10.170 -10.169 -10.169  -0.858
 -0.776  -0.747  -0.691  -0.611  -0.591  -0.521  -0.465  -0.462
 -0.424  -0.423  -0.418  -0.390  -0.358  -0.350  -0.342  -0.255
 -0.247

          Ground-State Mulliken Net Atomic Charges

     Atom                 Charge (a.u.)
  ----------------------------------------
      1 C                    -0.079660
      2 C                    -0.388920
      3 C                    -0.315734
      4 C                    -0.128819
      5 C                    -0.620199
      6 C                     0.917932
      7 H                     0.139000
      8 H                     0.171771
      9 C                    -0.617923
     10 H                     0.149817
     11 H                     0.158624
     12 H                     0.147163
     13 H                     0.148690
     14 H                     0.161663
     15 H                     0.160566
     16 GH                   -0.002307
     17 GH                    0.005474
     18 GH                    0.004376
     19 GH                   -0.002805
     20 GH                   -0.007970
     21 GH                   -0.000724
     22 GH                   -0.000902
     23 GH                   -0.000228
     24 GH                    0.002186
     25 GH                   -0.000059
     26 GH                   -0.000711
     27 GH                    0.000271
     28 GH                    0.000396
     29 GH                   -0.000529
     30 GH                   -0.000441
  ----------------------------------------
  Sum of atomic charges =     0.000000

                    Cartesian Multipole Moments
 -----------------------------------------------------------------
    Charge (ESU x 10^10)
                -0.0000
    Dipole Moment (Debye)
         X       0.0620      Y       0.3876      Z       0.0288
       Tot       0.3935
    Quadrupole Moments (Debye-Ang)
        XX     -39.3456     XY      -0.6468     YY     -38.4623
        XZ       0.2802     YZ       2.9533     ZZ     -46.0801

 Total job time:  71.88s(wall), 286.35s(cpu)
        *  Thank you very much for using Q-Chem.  Have a nice day.  *
