 Q-Chem 5.0, Q-Chem, Inc., Pleasanton, CA (2017)
 Q-Chem 5.0.1 for Intel X86 EM64T Linux

User input:
--------------------------------------------------------------
$molecule
0  1
--
0  1
C        -0.54444000        -0.68370000        -0.06689000
C        -0.55709000        +0.71878000        +0.05493000
C        -1.74320000        -1.41616000        -0.12552000
C        -2.93952000        -0.70056000        -0.05285000
C        -2.95313000        +0.68255000        +0.06934000
C        -1.77161000        +1.42404000        +0.12810000
H        -3.90354000        +1.20325000        +0.11710000
H        -3.87892000        -1.24211000        -0.08988000
C        -1.83960000        +2.92746000        +0.24839000
H        -1.24214000        +3.42352000        -0.52065000
H        -1.45503000        +3.26427000        +1.21284000
H        -2.87211000        +3.26623000        +0.14638000
H        -1.73878000        -2.44393000        -0.21875000
H        +0.35825000        -1.18166000        -0.11386000
H        +0.33551000        +1.23549000        +0.09097000
--
0  1
C        -0.51347000        -1.07606000        +4.41587000
C        -0.52612000        +0.32642000        +4.53769000
C        -1.71223000        -1.80852000        +4.35724000
C        -2.90855000        -1.09292000        +4.42991000
C        -2.92216000        +0.29019000        +4.55210000
C        -1.74064000        +1.03168000        +4.61086000
H        -3.87257000        +0.81089000        +4.59986000
H        -3.84795000        -1.63447000        +4.39288000
C        -1.80863000        +2.53510000        +4.73115000
H        -1.21117000        +3.03116000        +3.96211000
H        -1.42406000        +2.87191000        +5.69560000
H        -2.84114000        +2.87387000        +4.62914000
H        -1.70781000        -2.83629000        +4.26401000
H        +0.38922000        -1.57402000        +4.36890000
H        +0.36648000        +0.84313000        +4.57373000
$end

$rem
JOBTYPE                   SP
METHOD                    B3LYP
DFT_D                     d3_op
BASIS                     6-311++G(d,p)
SYMMETRY                  False
THRESH                    12
SCF_CONVERGENCE           8
MAX_SUB_FILE_NUM          128
MEM_STATIC                400
MEM_TOTAL                 4000
$end
--------------------------------------------------------------

             Standard Nuclear Orientation (Angstroms)
    I     Atom           X                Y                Z
 ----------------------------------------------------------------
    1      C       2.2457172674    -1.2319787562     1.1901766975
    2      C       2.2487549241     0.1755494969     1.2185540621
    3      C       2.2475761899    -1.9315264721    -0.0294913736
    4      C       2.2469641981    -1.1777631475    -1.2043897979
    5      C       2.2479234643     0.2105406640    -1.1775475362
    6      C       2.2468556818     0.9195925187     0.0251552514
    7      H       2.2531336659     0.7608830617    -2.1123120920
    8      H       2.2424157986    -1.6928720509    -2.1592521508
    9      C       2.2607489849     2.4290950381     0.0012148939
   10      H       3.0665327703     2.8373035310     0.6164667240
   11      H       1.3272795428     2.8388613126     0.3913754563
   12      H       2.3995870429     2.7873969596    -1.0203485059
   13      H       2.2493257948    -2.9632060601    -0.0551177050
   14      H       2.2420686415    -1.7582206883     2.0779129730
   15      H       2.2524149131     0.6672022041     2.1259057501
   16      C      -2.2542828300    -1.2255149290     1.1899101521
   17      C      -2.2512451732     0.1820133241     1.2182875168
   18      C      -2.2524239074    -1.9250626449    -0.0297579189
   19      C      -2.2530358992    -1.1712993204    -1.2046563432
   20      C      -2.2520766330     0.2170044912    -1.1778140815
   21      C      -2.2531444156     0.9260563459     0.0248887061
   22      H      -2.2468664315     0.7673468888    -2.1125786374
   23      H      -2.2575842987    -1.6864082238    -2.1595186962
   24      C      -2.2392511124     2.4355588653     0.0009483486
   25      H      -1.4334673271     2.8437673582     0.6162001787
   26      H      -3.1727205545     2.8453251397     0.3911089110
   27      H      -2.1004130545     2.7938607868    -1.0206150512
   28      H      -2.2506743025    -2.9567422329    -0.0553842503
   29      H      -2.2579314558    -1.7517568611     2.0776464277
   30      H      -2.2475851842     0.6736660313     2.1256392048
 ----------------------------------------------------------------

   13    -543.2891356737      5.66E-09 Convergence criterion met
 Total energy in the final basis set = -543.28913567

                    Orbital Energies (a.u.)
 --------------------------------------------------------------

 Alpha MOs
 -- Occupied --
-10.182 -10.181 -10.170 -10.170 -10.168 -10.168 -10.168 -10.168
-10.167 -10.167 -10.166 -10.165 -10.165 -10.165  -0.854  -0.854
 -0.773  -0.772  -0.744  -0.743  -0.689  -0.688  -0.607  -0.607
 -0.587  -0.587  -0.518  -0.517  -0.462  -0.461  -0.459  -0.459
 -0.426  -0.419  -0.419  -0.418  -0.415  -0.414  -0.388  -0.387
 -0.357  -0.350  -0.347  -0.347  -0.339  -0.338  -0.254  -0.247
 -0.246  -0.240

          Ground-State Mulliken Net Atomic Charges

     Atom                 Charge (a.u.)
  ----------------------------------------
      1 C                    -0.199936
      2 C                    -0.285573
      3 C                    -0.214479
      4 C                    -0.288761
      5 C                    -0.292772
      6 C                     0.728292
      7 H                     0.150817
      8 H                     0.163618
      9 C                    -0.675431
     10 H                     0.146575
     11 H                     0.156077
     12 H                     0.142416
     13 H                     0.145805
     14 H                     0.156671
     15 H                     0.164789
     16 C                    -0.242754
     17 C                    -0.199464
     18 C                    -0.253895
     19 C                    -0.261192
     20 C                    -0.265283
     21 C                     0.665845
     22 H                     0.149102
     23 H                     0.169745
     24 C                    -0.669126
     25 H                     0.142804
     26 H                     0.156642
     27 H                     0.139022
     28 H                     0.143295
     29 H                     0.159254
     30 H                     0.167899
  ----------------------------------------
  Sum of atomic charges =    -0.000000

                    Cartesian Multipole Moments
 -----------------------------------------------------------------
    Charge (ESU x 10^10)
                -0.0000
    Dipole Moment (Debye)
         X      -0.0085      Y       0.6173      Z       0.1222
       Tot       0.6293
    Quadrupole Moments (Debye-Ang)
        XX     -94.0888     XY       0.0477     YY     -77.3679
        XZ      -0.0312     YZ       0.0361     ZZ     -78.5225

 Total job time:  95.25s(wall), 379.65s(cpu)
        *  Thank you very much for using Q-Chem.  Have a nice day.  *
