 Q-Chem 5.0, Q-Chem, Inc., Pleasanton, CA (2017)
 Q-Chem 5.0.1 for Intel X86 EM64T Linux

User input:
--------------------------------------------------------------
$molecule
0  1
C        -0.55335000        -0.66344000        -0.04955000
C        -0.58369000        +0.72363000        +0.07143000
C        -1.74416000        -1.38805000        -0.12104000
C        -2.96100000        -0.71253000        -0.06974000
C        -2.98560000        +0.67733000        +0.05133000
C        -1.80096000        +1.41593000        +0.12202000
H        -3.93869000        +1.19496000        +0.09042000
H        -3.89285000        -1.26490000        -0.12448000
C        -1.82561000        +2.92062000        +0.24749000
H        -1.30124000        +3.39464000        -0.58804000
H        -1.33421000        +3.24931000        +1.16844000
H        -2.84892000        +3.30103000        +0.25949000
H        -1.72216000        -2.46788000        -0.21620000
H        +0.39889000        -1.18111000        -0.08841000
H        +0.34820000        +1.27792000        +0.12648000
@C        -0.58314000        -1.05478000        +4.43330000
@C        -0.61348000        +0.33229000        +4.55428000
@C        -1.77395000        -1.77939000        +4.36181000
@C        -2.99079000        -1.10387000        +4.41311000
@C        -3.01539000        +0.28599000        +4.53418000
@C        -1.83075000        +1.02459000        +4.60487000
@H        -3.96848000        +0.80362000        +4.57327000
@H        -3.92264000        -1.65624000        +4.35837000
@C        -1.85540000        +2.52928000        +4.73034000
@H        -1.33103000        +3.00330000        +3.89481000
@H        -1.36400000        +2.85797000        +5.65129000
@H        -2.87871000        +2.90969000        +4.74234000
@H        -1.75195000        -2.85922000        +4.26665000
@H        +0.36910000        -1.57245000        +4.39444000
@H        +0.31841000        +0.88658000        +4.60933000
$end

$rem
JOBTYPE                   SP
METHOD                    B3LYP
DFT_D                     d3_op
BASIS                     6-311++G(d,p)
SYMMETRY                  False
THRESH                    12
SCF_CONVERGENCE           8
MAX_SUB_FILE_NUM          128
MEM_STATIC                400
MEM_TOTAL                 4000
$end
--------------------------------------------------------------

             Standard Nuclear Orientation (Angstroms)
    I     Atom           X                Y                Z
 ----------------------------------------------------------------
    1      C      -0.5533500000    -0.6634400000    -0.0495500000
    2      C      -0.5836900000     0.7236300000     0.0714300000
    3      C      -1.7441600000    -1.3880500000    -0.1210400000
    4      C      -2.9610000000    -0.7125300000    -0.0697400000
    5      C      -2.9856000000     0.6773300000     0.0513300000
    6      C      -1.8009600000     1.4159300000     0.1220200000
    7      H      -3.9386900000     1.1949600000     0.0904200000
    8      H      -3.8928500000    -1.2649000000    -0.1244800000
    9      C      -1.8256100000     2.9206200000     0.2474900000
   10      H      -1.3012400000     3.3946400000    -0.5880400000
   11      H      -1.3342100000     3.2493100000     1.1684400000
   12      H      -2.8489200000     3.3010300000     0.2594900000
   13      H      -1.7221600000    -2.4678800000    -0.2162000000
   14      H       0.3988900000    -1.1811100000    -0.0884100000
   15      H       0.3482000000     1.2779200000     0.1264800000
   16      GH     -0.5831400000    -1.0547800000     4.4333000000
   17      GH     -0.6134800000     0.3322900000     4.5542800000
   18      GH     -1.7739500000    -1.7793900000     4.3618100000
   19      GH     -2.9907900000    -1.1038700000     4.4131100000
   20      GH     -3.0153900000     0.2859900000     4.5341800000
   21      GH     -1.8307500000     1.0245900000     4.6048700000
   22      GH     -3.9684800000     0.8036200000     4.5732700000
   23      GH     -3.9226400000    -1.6562400000     4.3583700000
   24      GH     -1.8554000000     2.5292800000     4.7303400000
   25      GH     -1.3310300000     3.0033000000     3.8948100000
   26      GH     -1.3640000000     2.8579700000     5.6512900000
   27      GH     -2.8787100000     2.9096900000     4.7423400000
   28      GH     -1.7519500000    -2.8592200000     4.2666500000
   29      GH      0.3691000000    -1.5724500000     4.3944400000
   30      GH      0.3184100000     0.8865800000     4.6093300000
 ----------------------------------------------------------------

   13    -271.6506543900      9.28E-10 Convergence criterion met
 Total energy in the final basis set = -271.65065439

                    Orbital Energies (a.u.)
 --------------------------------------------------------------

 Alpha MOs
 -- Occupied --
-10.185 -10.176 -10.175 -10.173 -10.173 -10.173 -10.170  -0.860
 -0.775  -0.748  -0.689  -0.608  -0.587  -0.515  -0.464  -0.457
 -0.424  -0.424  -0.412  -0.389  -0.359  -0.346  -0.343  -0.257
 -0.248

          Ground-State Mulliken Net Atomic Charges

     Atom                 Charge (a.u.)
  ----------------------------------------
      1 C                    -0.212946
      2 C                    -0.198499
      3 C                    -0.270752
      4 C                    -0.262238
      5 C                    -0.263030
      6 C                     0.638056
      7 H                     0.157662
      8 H                     0.173138
      9 C                    -0.705895
     10 H                     0.152300
     11 H                     0.163777
     12 H                     0.140943
     13 H                     0.152960
     14 H                     0.168321
     15 H                     0.179227
     16 GH                   -0.017158
     17 GH                    0.012024
     18 GH                    0.013287
     19 GH                   -0.010608
     20 GH                   -0.018066
     21 GH                   -0.006258
     22 GH                   -0.000299
     23 GH                    0.001109
     24 GH                    0.012900
     25 GH                   -0.005423
     26 GH                   -0.000549
     27 GH                    0.001946
     28 GH                    0.002176
     29 GH                    0.001192
     30 GH                    0.000706
  ----------------------------------------
  Sum of atomic charges =    -0.000000

                    Cartesian Multipole Moments
 -----------------------------------------------------------------
    Charge (ESU x 10^10)
                -0.0000
    Dipole Moment (Debye)
         X       0.0352      Y       0.4010      Z       0.0313
       Tot       0.4037
    Quadrupole Moments (Debye-Ang)
        XX     -39.2492     XY      -0.6419     YY     -38.3998
        XZ      -0.0019     YZ       0.7108     ZZ     -46.4934

 Total job time:  95.73s(wall), 381.10s(cpu)
        *  Thank you very much for using Q-Chem.  Have a nice day.  *
