 Q-Chem 5.0, Q-Chem, Inc., Pleasanton, CA (2017)
 Q-Chem 5.0.1 for Intel X86 EM64T Linux

User input:
--------------------------------------------------------------
$molecule
0  1
--
0  1
C        -0.54444000        -0.68370000        -0.06689000
C        -0.55709000        +0.71878000        +0.05493000
C        -1.74320000        -1.41616000        -0.12552000
C        -2.93952000        -0.70056000        -0.05285000
C        -2.95313000        +0.68255000        +0.06934000
C        -1.77161000        +1.42404000        +0.12810000
H        -3.90354000        +1.20325000        +0.11710000
H        -3.87892000        -1.24211000        -0.08988000
C        -1.83960000        +2.92746000        +0.24839000
C        -1.78103000        -2.92226000        -0.24590000
H        -1.39752000        -3.25223000        -1.21323000
H        -2.80572000        -3.28175000        -0.13627000
H        -1.16958000        -3.40777000        +0.51926000
H        -1.24214000        +3.42352000        -0.52065000
H        -1.45503000        +3.26427000        +1.21284000
H        -2.87211000        +3.26623000        +0.14638000
H        +0.35825000        -1.18166000        -0.11386000
H        +0.33551000        +1.23549000        +0.09097000
--
0  1
C        -2.31204000        +0.27441000        +5.37348000
C        -2.32469000        +1.67689000        +5.49530000
C        -3.51080000        -0.45805000        +5.31485000
C        -4.70712000        +0.25755000        +5.38752000
C        -4.72073000        +1.64066000        +5.50971000
C        -3.53921000        +2.38215000        +5.56847000
H        -5.67114000        +2.16136000        +5.55747000
H        -5.64652000        -0.28400000        +5.35049000
C        -3.60720000        +3.88557000        +5.68876000
C        -3.54863000        -1.96415000        +5.19447000
H        -3.16512000        -2.29412000        +4.22714000
H        -4.57332000        -2.32364000        +5.30410000
H        -2.93718000        -2.44966000        +5.95963000
H        -3.00974000        +4.38163000        +4.91972000
H        -3.22263000        +4.22238000        +6.65321000
H        -4.63971000        +4.22434000        +5.58675000
H        -1.40935000        -0.22355000        +5.32651000
H        -1.43209000        +2.19360000        +5.53134000
$end

$rem
JOBTYPE                   SP
METHOD                    B3LYP
DFT_D                     d3_op
BASIS                     6-311++G(d,p)
SYMMETRY                  False
THRESH                    12
SCF_CONVERGENCE           8
MAX_SUB_FILE_NUM          128
MEM_STATIC                400
MEM_TOTAL                 4000
$end
--------------------------------------------------------------

             Standard Nuclear Orientation (Angstroms)
    I     Atom           X                Y                Z
 ----------------------------------------------------------------
    1      C       3.5348622822    -0.0090108145     1.0487014946
    2      C       2.9828290660     1.2855227725     1.0113865406
    3      C       3.4323104419    -0.8719443508    -0.0566443780
    4      C       2.7598179437    -0.3974165371    -1.1840852967
    5      C       2.2132103358     0.8784948430    -1.2212225200
    6      C       2.3072924691     1.7473044457    -0.1323845639
    7      H       1.7028335500     1.2129014084    -2.1180928903
    8      H       2.6613288782    -1.0453516874    -2.0487239082
    9      C       1.7072861027     3.1294860996    -0.2268845973
   10      C       3.9993144489    -2.2729252870    -0.0609496792
   11      H       5.0903451450    -2.2589591352    -0.0271204517
   12      H       3.6853740876    -2.8019250135    -0.9625272588
   13      H       3.6632696370    -2.8512678587     0.8037205714
   14      H       2.4310270195     3.9049220830     0.0364680518
   15      H       0.8629057751     3.2409879945     0.4558218208
   16      H       1.3614414150     3.3201860036    -1.2443682835
   17      H       4.0221164410    -0.3294103773     1.9001397387
   18      H       3.0749775067     1.9029709283     1.8331464237
   19      C      -2.1953845453    -0.8790839653     1.2660819837
   20      C      -2.7474177615     0.4154496216     1.2287670298
   21      C      -2.2979363856    -1.7420175016     0.1607361112
   22      C      -2.9704288838    -1.2674896880    -0.9667048076
   23      C      -3.5170364917     0.0084216922    -1.0038420308
   24      C      -3.4229543584     0.8772312948     0.0849959253
   25      H      -4.0274132775     0.3428282575    -1.9007124012
   26      H      -3.0689179493    -1.9154248382    -1.8313434190
   27      C      -4.0229607248     2.2594129488    -0.0095041081
   28      C      -1.7309323786    -3.1429984378     0.1564308099
   29      H      -0.6399016825    -3.1290322861     0.1902600374
   30      H      -2.0448727399    -3.6719981643    -0.7451467697
   31      H      -2.0669771905    -3.7213410095     1.0211010605
   32      H      -3.2992198080     3.0348489322     0.2538485410
   33      H      -4.8673410524     2.3709148437     0.6732023099
   34      H      -4.3688054125     2.4501128527    -1.0269877943
   35      H      -1.7081303865    -1.1994835282     2.1175202278
   36      H      -2.6552693208     1.0328977775     2.0505269128
 ----------------------------------------------------------------

   13    -621.9526042683      6.24E-09 Convergence criterion met
 Total energy in the final basis set = -621.95260427

                    Orbital Energies (a.u.)
 --------------------------------------------------------------

 Alpha MOs
 -- Occupied --
-10.178 -10.178 -10.178 -10.178 -10.166 -10.166 -10.166 -10.166
-10.166 -10.165 -10.165 -10.165 -10.165 -10.165 -10.165 -10.164
 -0.857  -0.856  -0.786  -0.785  -0.743  -0.743  -0.719  -0.719
 -0.656  -0.656  -0.610  -0.610  -0.575  -0.575  -0.494  -0.494
 -0.470  -0.470  -0.458  -0.458  -0.423  -0.422  -0.419  -0.419
 -0.415  -0.415  -0.403  -0.402  -0.396  -0.395  -0.374  -0.374
 -0.344  -0.343  -0.341  -0.340  -0.337  -0.337  -0.250  -0.250
 -0.234  -0.234

          Ground-State Mulliken Net Atomic Charges

     Atom                 Charge (a.u.)
  ----------------------------------------
      1 C                    -0.152472
      2 C                    -0.307789
      3 C                     0.592511
      4 C                    -0.510804
      5 C                    -0.469202
      6 C                     0.615422
      7 H                     0.149864
      8 H                     0.139050
      9 C                    -0.657270
     10 C                    -0.622499
     11 H                     0.155764
     12 H                     0.146946
     13 H                     0.148712
     14 H                     0.142657
     15 H                     0.162337
     16 H                     0.141239
     17 H                     0.159606
     18 H                     0.166484
     19 C                    -0.216307
     20 C                    -0.166994
     21 C                     0.651038
     22 C                    -0.602891
     23 C                    -0.559011
     24 C                     0.648894
     25 H                     0.142593
     26 H                     0.149011
     27 C                    -0.620880
     28 C                    -0.646709
     29 H                     0.157109
     30 H                     0.143363
     31 H                     0.145952
     32 H                     0.147949
     33 H                     0.158367
     34 H                     0.146829
     35 H                     0.161742
     36 H                     0.159390
  ----------------------------------------
  Sum of atomic charges =    -0.000000

                    Cartesian Multipole Moments
 -----------------------------------------------------------------
    Charge (ESU x 10^10)
                -0.0000
    Dipole Moment (Debye)
         X       0.0687      Y       0.0338      Z       0.1557
       Tot       0.1735
    Quadrupole Moments (Debye-Ang)
        XX    -102.6672     XY      -5.0377     YY     -91.7664
        XZ       4.1367     YZ       1.6424     ZZ     -93.7495

 Total job time:  138.78s(wall), 552.49s(cpu)
        *  Thank you very much for using Q-Chem.  Have a nice day.  *
