 Q-Chem 5.0, Q-Chem, Inc., Pleasanton, CA (2017)
 Q-Chem 5.0.1 for Intel X86 EM64T Linux

User input:
--------------------------------------------------------------
$molecule
0  1
--
0  1
C        -0.58454000        -0.67556000        -0.07544000
C        -0.59851000        +0.70920000        +0.05808000
C        -1.77633000        -1.40990000        -0.13252000
C        -2.97828000        -0.70388000        -0.05611000
C        -2.99244000        +0.68477000        +0.07719000
C        -1.80513000        +1.41687000        +0.13452000
H        -3.94378000        +1.20441000        +0.13594000
H        -3.91864000        -1.24474000        -0.10022000
C        -1.81546000        +2.92210000        +0.24949000
C        -1.75732000        -2.91589000        -0.24640000
H        -1.03160000        -3.25185000        -0.99235000
H        -2.73712000        -3.30600000        -0.53105000
H        -1.48213000        -3.37940000        +0.70725000
H        -1.54006000        +3.39064000        -0.70147000
H        -1.10219000        +3.26991000        +1.00208000
H        -2.80465000        +3.29345000        +0.52612000
H        +0.36601000        -1.19708000        -0.13515000
H        +0.34176000        +1.25035000        +0.10232000
--
0  1
C        -0.54383000        -1.10607000        +4.40373000
C        -0.55780000        +0.27869000        +4.53725000
C        -1.73562000        -1.84041000        +4.34665000
C        -2.93757000        -1.13439000        +4.42306000
C        -2.95173000        +0.25426000        +4.55636000
C        -1.76442000        +0.98636000        +4.61369000
H        -3.90307000        +0.77390000        +4.61511000
H        -3.87793000        -1.67525000        +4.37895000
C        -1.77475000        +2.49159000        +4.72866000
C        -1.71661000        -3.34640000        +4.23277000
H        -0.99089000        -3.68236000        +3.48682000
H        -2.69641000        -3.73651000        +3.94812000
H        -1.44142000        -3.80991000        +5.18642000
H        -1.49935000        +2.96013000        +3.77770000
H        -1.06148000        +2.83940000        +5.48125000
H        -2.76394000        +2.86294000        +5.00529000
H        +0.40672000        -1.62759000        +4.34402000
H        +0.38247000        +0.81984000        +4.58149000
$end

$rem
JOBTYPE                   SP
METHOD                    B3LYP
DFT_D                     d3_op
BASIS                     6-311++G(d,p)
SYMMETRY                  False
THRESH                    12
SCF_CONVERGENCE           8
MAX_SUB_FILE_NUM          128
MEM_STATIC                400
MEM_TOTAL                 4000
$end
--------------------------------------------------------------

             Standard Nuclear Orientation (Angstroms)
    I     Atom           X                Y                Z
 ----------------------------------------------------------------
    1      C       2.2334306971    -0.7475434407     1.1967449894
    2      C       2.2658316824     0.6433314681     1.1963287013
    3      C       2.2137450661    -1.4720643559    -0.0022373647
    4      C       2.2330732633    -0.7505486853    -1.1972386571
    5      C       2.2661574874     0.6441639499    -1.1978020517
    6      C       2.2853698246     1.3665333869    -0.0033249872
    7      H       2.2785086595     1.1761435715    -2.1440420945
    8      H       2.2212091186    -1.2838268928    -2.1428737647
    9      C       2.3504946134     2.8747705496     0.0013210386
   10      C       2.1473670876    -2.9810089365     0.0017790096
   11      H       2.8412575834    -3.4103366511     0.7299093110
   12      H       2.3926328031    -3.3928956092    -0.9797573231
   13      H       1.1428117685    -3.3302173917     0.2643460378
   14      H       3.3478704100     3.2240470122     0.2893267439
   15      H       1.6380734853     3.3029426681     0.7121250694
   16      H       2.1292236341     3.2858381401    -0.9860919577
   17      H       2.2218161985    -1.2814964205     2.1421829914
   18      H       2.2776021124     1.1769139410     2.1418758311
   19      C      -2.2653218582    -0.6417819229     1.1967303372
   20      C      -2.2329208730     0.7490929859     1.1963140492
   21      C      -2.2850074893    -1.3663028381    -0.0022520169
   22      C      -2.2656792920    -0.6447871675    -1.1972533093
   23      C      -2.2325950680     0.7499254677    -1.1978167039
   24      C      -2.2133827307     1.4722949047    -0.0033396394
   25      H      -2.2202438959     1.2819050893    -2.1440567466
   26      H      -2.2775434367    -1.1780653750    -2.1428884169
   27      C      -2.1482579419     2.9805320674     0.0013063864
   28      C      -2.3513854677    -2.8752474187     0.0017643574
   29      H      -1.6574949719    -3.3045751333     0.7298946588
   30      H      -2.1061197522    -3.2871340914    -0.9797719752
   31      H      -3.3559407869    -3.2244558739     0.2643313856
   32      H      -1.1508821453     3.3298085300     0.2893120917
   33      H      -2.8606790700     3.4087041859     0.7121104173
   34      H      -2.3695289212     3.3915996579    -0.9861066099
   35      H      -2.2769363569    -1.1757349028     2.1421683392
   36      H      -2.2211504430     1.2826754588     2.1418611789
 ----------------------------------------------------------------

   13    -621.9648049055      8.54E-09 Convergence criterion met
 Total energy in the final basis set = -621.96480491

                    Orbital Energies (a.u.)
 --------------------------------------------------------------

 Alpha MOs
 -- Occupied --
-10.177 -10.177 -10.177 -10.177 -10.167 -10.167 -10.167 -10.167
-10.167 -10.167 -10.166 -10.166 -10.166 -10.166 -10.165 -10.165
 -0.857  -0.856  -0.785  -0.784  -0.741  -0.741  -0.719  -0.718
 -0.655  -0.654  -0.605  -0.605  -0.572  -0.572  -0.491  -0.491
 -0.470  -0.469  -0.450  -0.449  -0.426  -0.419  -0.418  -0.415
 -0.415  -0.411  -0.400  -0.399  -0.396  -0.395  -0.373  -0.372
 -0.346  -0.340  -0.340  -0.339  -0.334  -0.334  -0.253  -0.246
 -0.236  -0.230

          Ground-State Mulliken Net Atomic Charges

     Atom                 Charge (a.u.)
  ----------------------------------------
      1 C                    -0.386360
      2 C                    -0.314377
      3 C                     0.626737
      4 C                    -0.469780
      5 C                    -0.369719
      6 C                     0.632758
      7 H                     0.155306
      8 H                     0.163339
      9 C                    -0.588537
     10 C                    -0.675475
     11 H                     0.139406
     12 H                     0.137736
     13 H                     0.173591
     14 H                     0.161775
     15 H                     0.134066
     16 H                     0.137015
     17 H                     0.172084
     18 H                     0.170444
     19 C                    -0.317231
     20 C                    -0.383096
     21 C                     0.643551
     22 C                    -0.367287
     23 C                    -0.471664
     24 C                     0.613050
     25 H                     0.162763
     26 H                     0.155936
     27 C                    -0.671397
     28 C                    -0.589690
     29 H                     0.133479
     30 H                     0.136949
     31 H                     0.162254
     32 H                     0.172312
     33 H                     0.139930
     34 H                     0.137471
     35 H                     0.169848
     36 H                     0.172815
  ----------------------------------------
  Sum of atomic charges =    -0.000000

                    Cartesian Multipole Moments
 -----------------------------------------------------------------
    Charge (ESU x 10^10)
                -0.0000
    Dipole Moment (Debye)
         X      -0.0045      Y       0.0005      Z       0.0840
       Tot       0.0841
    Quadrupole Moments (Debye-Ang)
        XX    -106.7043     XY       0.6880     YY     -90.5145
        XZ      -0.0004     YZ       0.0089     ZZ     -92.3648

 Total job time:  176.84s(wall), 702.73s(cpu)
        *  Thank you very much for using Q-Chem.  Have a nice day.  *
