 Q-Chem 5.0, Q-Chem, Inc., Pleasanton, CA (2017)
 Q-Chem 5.0.1 for Intel X86 EM64T Linux

User input:
--------------------------------------------------------------
$molecule
0  1
C        -1.91586000        +0.05966000        +4.15409000
C        -1.92851000        +1.46214000        +4.27591000
C        -3.11462000        -0.67280000        +4.09546000
C        -4.31094000        +0.04280000        +4.16813000
C        -4.32455000        +1.42591000        +4.29032000
C        -3.14303000        +2.16740000        +4.34908000
H        -5.27496000        +1.94661000        +4.33808000
H        -5.25034000        -0.49875000        +4.13110000
C        -3.21102000        +3.67082000        +4.46937000
C        -3.15245000        -2.17890000        +3.97508000
H        -2.76894000        -2.50887000        +3.00775000
H        -4.17714000        -2.53839000        +4.08471000
H        -2.54100000        -2.66441000        +4.74024000
H        -2.61356000        +4.16688000        +3.70033000
H        -2.82645000        +4.00763000        +5.43382000
H        -4.24353000        +4.00959000        +4.36736000
H        -1.01317000        -0.43830000        +4.10712000
H        -1.03591000        +1.97885000        +4.31195000
@C        -0.54444000        -0.68370000        -0.06689000
@C        -0.55709000        +0.71878000        +0.05493000
@C        -1.74320000        -1.41616000        -0.12552000
@C        -2.93952000        -0.70056000        -0.05285000
@C        -2.95313000        +0.68255000        +0.06934000
@C        -1.77161000        +1.42404000        +0.12810000
@H        -3.90354000        +1.20325000        +0.11710000
@H        -3.87892000        -1.24211000        -0.08988000
@C        -1.83960000        +2.92746000        +0.24839000
@C        -1.78103000        -2.92226000        -0.24590000
@H        -1.39752000        -3.25223000        -1.21323000
@H        -2.80572000        -3.28175000        -0.13627000
@H        -1.16958000        -3.40777000        +0.51926000
@H        -1.24214000        +3.42352000        -0.52065000
@H        -1.45503000        +3.26427000        +1.21284000
@H        -2.87211000        +3.26623000        +0.14638000
@H        +0.35825000        -1.18166000        -0.11386000
@H        +0.33551000        +1.23549000        +0.09097000
$end

$rem
JOBTYPE                   SP
METHOD                    B3LYP
DFT_D                     d3_op
BASIS                     6-311++G(d,p)
SYMMETRY                  False
THRESH                    12
SCF_CONVERGENCE           8
MAX_SUB_FILE_NUM          128
MEM_STATIC                400
MEM_TOTAL                 4000
$end
--------------------------------------------------------------

             Standard Nuclear Orientation (Angstroms)
    I     Atom           X                Y                Z
 ----------------------------------------------------------------
    1      C      -1.9158600000     0.0596600000     4.1540900000
    2      C      -1.9285100000     1.4621400000     4.2759100000
    3      C      -3.1146200000    -0.6728000000     4.0954600000
    4      C      -4.3109400000     0.0428000000     4.1681300000
    5      C      -4.3245500000     1.4259100000     4.2903200000
    6      C      -3.1430300000     2.1674000000     4.3490800000
    7      H      -5.2749600000     1.9466100000     4.3380800000
    8      H      -5.2503400000    -0.4987500000     4.1311000000
    9      C      -3.2110200000     3.6708200000     4.4693700000
   10      C      -3.1524500000    -2.1789000000     3.9750800000
   11      H      -2.7689400000    -2.5088700000     3.0077500000
   12      H      -4.1771400000    -2.5383900000     4.0847100000
   13      H      -2.5410000000    -2.6644100000     4.7402400000
   14      H      -2.6135600000     4.1668800000     3.7003300000
   15      H      -2.8264500000     4.0076300000     5.4338200000
   16      H      -4.2435300000     4.0095900000     4.3673600000
   17      H      -1.0131700000    -0.4383000000     4.1071200000
   18      H      -1.0359100000     1.9788500000     4.3119500000
   19      GH     -0.5444400000    -0.6837000000    -0.0668900000
   20      GH     -0.5570900000     0.7187800000     0.0549300000
   21      GH     -1.7432000000    -1.4161600000    -0.1255200000
   22      GH     -2.9395200000    -0.7005600000    -0.0528500000
   23      GH     -2.9531300000     0.6825500000     0.0693400000
   24      GH     -1.7716100000     1.4240400000     0.1281000000
   25      GH     -3.9035400000     1.2032500000     0.1171000000
   26      GH     -3.8789200000    -1.2421100000    -0.0898800000
   27      GH     -1.8396000000     2.9274600000     0.2483900000
   28      GH     -1.7810300000    -2.9222600000    -0.2459000000
   29      GH     -1.3975200000    -3.2522300000    -1.2132300000
   30      GH     -2.8057200000    -3.2817500000    -0.1362700000
   31      GH     -1.1695800000    -3.4077700000     0.5192600000
   32      GH     -1.2421400000     3.4235200000    -0.5206500000
   33      GH     -1.4550300000     3.2642700000     1.2128400000
   34      GH     -2.8721100000     3.2662300000     0.1463800000
   35      GH      0.3582500000    -1.1816600000    -0.1138600000
   36      GH      0.3355100000     1.2354900000     0.0909700000
 ----------------------------------------------------------------

   12    -310.9762729405      7.09E-09 Convergence criterion met
 Total energy in the final basis set = -310.97627294

                    Orbital Energies (a.u.)
 --------------------------------------------------------------

 Alpha MOs
 -- Occupied --
-10.180 -10.180 -10.168 -10.168 -10.168 -10.167 -10.167 -10.167
 -0.859  -0.787  -0.745  -0.721  -0.658  -0.612  -0.577  -0.496
 -0.472  -0.460  -0.425  -0.421  -0.417  -0.404  -0.397  -0.376
 -0.345  -0.342  -0.339  -0.252  -0.236

          Ground-State Mulliken Net Atomic Charges

     Atom                 Charge (a.u.)
  ----------------------------------------
      1 C                    -0.370037
      2 C                    -0.197913
      3 C                     0.607429
      4 C                    -0.418230
      5 C                    -0.472744
      6 C                     0.565909
      7 H                     0.153848
      8 H                     0.160754
      9 C                    -0.638237
     10 C                    -0.638041
     11 H                     0.193200
     12 H                     0.136704
     13 H                     0.149444
     14 H                     0.157448
     15 H                     0.162050
     16 H                     0.139421
     17 H                     0.162897
     18 H                     0.164345
     19 GH                   -0.042656
     20 GH                   -0.026988
     21 GH                   -0.032694
     22 GH                    0.011255
     23 GH                    0.009378
     24 GH                    0.085684
     25 GH                   -0.008871
     26 GH                    0.002265
     27 GH                   -0.015319
     28 GH                    0.002651
     29 GH                   -0.000075
     30 GH                   -0.002887
     31 GH                    0.003961
     32 GH                   -0.001771
     33 GH                   -0.004322
     34 GH                    0.005177
     35 GH                   -0.003270
     36 GH                    0.000234
  ----------------------------------------
  Sum of atomic charges =     0.000000

                    Cartesian Multipole Moments
 -----------------------------------------------------------------
    Charge (ESU x 10^10)
                 0.0000
    Dipole Moment (Debye)
         X       0.0925      Y       0.0035      Z      -0.0026
       Tot       0.0926
    Quadrupole Moments (Debye-Ang)
        XX     -46.5741     XY       0.0580     YY     -44.7346
        XZ       0.3583     YZ       0.6844     ZZ     -52.7097

 Total job time:  143.40s(wall), 570.78s(cpu)
        *  Thank you very much for using Q-Chem.  Have a nice day.  *
