 Q-Chem 5.0, Q-Chem, Inc., Pleasanton, CA (2017)
 Q-Chem 5.0.1 for Intel X86 EM64T Linux

User input:
--------------------------------------------------------------
$molecule
0  1
C        -0.58454000        -0.67556000        -0.07544000
C        -0.59851000        +0.70920000        +0.05808000
C        -1.77633000        -1.40990000        -0.13252000
C        -2.97828000        -0.70388000        -0.05611000
C        -2.99244000        +0.68477000        +0.07719000
C        -1.80513000        +1.41687000        +0.13452000
H        -3.94378000        +1.20441000        +0.13594000
H        -3.91864000        -1.24474000        -0.10022000
C        -1.81546000        +2.92210000        +0.24949000
C        -1.75732000        -2.91589000        -0.24640000
H        -1.03160000        -3.25185000        -0.99235000
H        -2.73712000        -3.30600000        -0.53105000
H        -1.48213000        -3.37940000        +0.70725000
H        -1.54006000        +3.39064000        -0.70147000
H        -1.10219000        +3.26991000        +1.00208000
H        -2.80465000        +3.29345000        +0.52612000
H        +0.36601000        -1.19708000        -0.13515000
H        +0.34176000        +1.25035000        +0.10232000
@C        -0.54383000        -1.10607000        +4.40373000
@C        -0.55780000        +0.27869000        +4.53725000
@C        -1.73562000        -1.84041000        +4.34665000
@C        -2.93757000        -1.13439000        +4.42306000
@C        -2.95173000        +0.25426000        +4.55636000
@C        -1.76442000        +0.98636000        +4.61369000
@H        -3.90307000        +0.77390000        +4.61511000
@H        -3.87793000        -1.67525000        +4.37895000
@C        -1.77475000        +2.49159000        +4.72866000
@C        -1.71661000        -3.34640000        +4.23277000
@H        -0.99089000        -3.68236000        +3.48682000
@H        -2.69641000        -3.73651000        +3.94812000
@H        -1.44142000        -3.80991000        +5.18642000
@H        -1.49935000        +2.96013000        +3.77770000
@H        -1.06148000        +2.83940000        +5.48125000
@H        -2.76394000        +2.86294000        +5.00529000
@H        +0.40672000        -1.62759000        +4.34402000
@H        +0.38247000        +0.81984000        +4.58149000
$end

$rem
JOBTYPE                   SP
METHOD                    B3LYP
DFT_D                     d3_op
BASIS                     6-311++G(d,p)
SYMMETRY                  False
THRESH                    12
SCF_CONVERGENCE           8
MAX_SUB_FILE_NUM          128
MEM_STATIC                400
MEM_TOTAL                 4000
$end
--------------------------------------------------------------

             Standard Nuclear Orientation (Angstroms)
    I     Atom           X                Y                Z
 ----------------------------------------------------------------
    1      C      -0.5845400000    -0.6755600000    -0.0754400000
    2      C      -0.5985100000     0.7092000000     0.0580800000
    3      C      -1.7763300000    -1.4099000000    -0.1325200000
    4      C      -2.9782800000    -0.7038800000    -0.0561100000
    5      C      -2.9924400000     0.6847700000     0.0771900000
    6      C      -1.8051300000     1.4168700000     0.1345200000
    7      H      -3.9437800000     1.2044100000     0.1359400000
    8      H      -3.9186400000    -1.2447400000    -0.1002200000
    9      C      -1.8154600000     2.9221000000     0.2494900000
   10      C      -1.7573200000    -2.9158900000    -0.2464000000
   11      H      -1.0316000000    -3.2518500000    -0.9923500000
   12      H      -2.7371200000    -3.3060000000    -0.5310500000
   13      H      -1.4821300000    -3.3794000000     0.7072500000
   14      H      -1.5400600000     3.3906400000    -0.7014700000
   15      H      -1.1021900000     3.2699100000     1.0020800000
   16      H      -2.8046500000     3.2934500000     0.5261200000
   17      H       0.3660100000    -1.1970800000    -0.1351500000
   18      H       0.3417600000     1.2503500000     0.1023200000
   19      GH     -0.5438300000    -1.1060700000     4.4037300000
   20      GH     -0.5578000000     0.2786900000     4.5372500000
   21      GH     -1.7356200000    -1.8404100000     4.3466500000
   22      GH     -2.9375700000    -1.1343900000     4.4230600000
   23      GH     -2.9517300000     0.2542600000     4.5563600000
   24      GH     -1.7644200000     0.9863600000     4.6136900000
   25      GH     -3.9030700000     0.7739000000     4.6151100000
   26      GH     -3.8779300000    -1.6752500000     4.3789500000
   27      GH     -1.7747500000     2.4915900000     4.7286600000
   28      GH     -1.7166100000    -3.3464000000     4.2327700000
   29      GH     -0.9908900000    -3.6823600000     3.4868200000
   30      GH     -2.6964100000    -3.7365100000     3.9481200000
   31      GH     -1.4414200000    -3.8099100000     5.1864200000
   32      GH     -1.4993500000     2.9601300000     3.7777000000
   33      GH     -1.0614800000     2.8394000000     5.4812500000
   34      GH     -2.7639400000     2.8629400000     5.0052900000
   35      GH      0.4067200000    -1.6275900000     4.3440200000
   36      GH      0.3824700000     0.8198400000     4.5814900000
 ----------------------------------------------------------------

   13    -310.9812289392      9.45E-10 Convergence criterion met
 Total energy in the final basis set = -310.98122894

                    Orbital Energies (a.u.)
 --------------------------------------------------------------

 Alpha MOs
 -- Occupied --
-10.180 -10.180 -10.171 -10.170 -10.170 -10.170 -10.167 -10.167
 -0.860  -0.787  -0.744  -0.721  -0.657  -0.609  -0.575  -0.494
 -0.473  -0.453  -0.425  -0.419  -0.417  -0.402  -0.398  -0.375
 -0.347  -0.342  -0.337  -0.254  -0.237

          Ground-State Mulliken Net Atomic Charges

     Atom                 Charge (a.u.)
  ----------------------------------------
      1 C                    -0.369151
      2 C                    -0.324543
      3 C                     0.637942
      4 C                    -0.486112
      5 C                    -0.365327
      6 C                     0.647824
      7 H                     0.158549
      8 H                     0.166769
      9 C                    -0.605344
     10 C                    -0.686378
     11 H                     0.140905
     12 H                     0.138847
     13 H                     0.175145
     14 H                     0.162624
     15 H                     0.142542
     16 H                     0.138632
     17 H                     0.176926
     18 H                     0.173733
     19 GH                    0.009391
     20 GH                   -0.010420
     21 GH                   -0.021338
     22 GH                   -0.012668
     23 GH                    0.016320
     24 GH                   -0.030174
     25 GH                    0.000994
     26 GH                    0.000336
     27 GH                    0.018269
     28 GH                    0.004669
     29 GH                   -0.001242
     30 GH                    0.000758
     31 GH                   -0.000637
     32 GH                    0.001348
     33 GH                   -0.000389
     34 GH                    0.000209
     35 GH                    0.001017
     36 GH                   -0.000028
  ----------------------------------------
  Sum of atomic charges =     0.000000

                    Cartesian Multipole Moments
 -----------------------------------------------------------------
    Charge (ESU x 10^10)
                -0.0000
    Dipole Moment (Debye)
         X       0.0597      Y       0.0008      Z       0.0048
       Tot       0.0599
    Quadrupole Moments (Debye-Ang)
        XX     -46.2997     XY      -0.0006     YY     -44.8048
        XZ      -0.0723     YZ       0.6188     ZZ     -52.7552

 Total job time:  155.15s(wall), 617.40s(cpu)
        *  Thank you very much for using Q-Chem.  Have a nice day.  *
