 Q-Chem 5.0, Q-Chem, Inc., Pleasanton, CA (2017)
 Q-Chem 5.0.1 for Intel X86 EM64T Linux

User input:
--------------------------------------------------------------
$molecule
0  1
C        -0.54444000        -0.68370000        -0.06689000
C        -0.55709000        +0.71878000        +0.05493000
C        -1.74320000        -1.41616000        -0.12552000
C        -2.93952000        -0.70056000        -0.05285000
C        -2.95313000        +0.68255000        +0.06934000
C        -1.77161000        +1.42404000        +0.12810000
H        -3.90354000        +1.20325000        +0.11710000
H        -3.87892000        -1.24211000        -0.08988000
C        -1.83960000        +2.92746000        +0.24839000
C        -1.78103000        -2.92226000        -0.24590000
H        -1.39752000        -3.25223000        -1.21323000
H        -2.80572000        -3.28175000        -0.13627000
H        -1.16958000        -3.40777000        +0.51926000
H        -1.24214000        +3.42352000        -0.52065000
H        -1.45503000        +3.26427000        +1.21284000
H        -2.87211000        +3.26623000        +0.14638000
H        +0.35825000        -1.18166000        -0.11386000
H        +0.33551000        +1.23549000        +0.09097000
@C        -2.31204000        +0.27441000        +5.37348000
@C        -2.32469000        +1.67689000        +5.49530000
@C        -3.51080000        -0.45805000        +5.31485000
@C        -4.70712000        +0.25755000        +5.38752000
@C        -4.72073000        +1.64066000        +5.50971000
@C        -3.53921000        +2.38215000        +5.56847000
@H        -5.67114000        +2.16136000        +5.55747000
@H        -5.64652000        -0.28400000        +5.35049000
@C        -3.60720000        +3.88557000        +5.68876000
@C        -3.54863000        -1.96415000        +5.19447000
@H        -3.16512000        -2.29412000        +4.22714000
@H        -4.57332000        -2.32364000        +5.30410000
@H        -2.93718000        -2.44966000        +5.95963000
@H        -3.00974000        +4.38163000        +4.91972000
@H        -3.22263000        +4.22238000        +6.65321000
@H        -4.63971000        +4.22434000        +5.58675000
@H        -1.40935000        -0.22355000        +5.32651000
@H        -1.43209000        +2.19360000        +5.53134000
$end

$rem
JOBTYPE                   SP
METHOD                    B3LYP
DFT_D                     d3_op
BASIS                     6-311++G(d,p)
SYMMETRY                  False
THRESH                    12
SCF_CONVERGENCE           8
MAX_SUB_FILE_NUM          128
MEM_STATIC                400
MEM_TOTAL                 4000
$end
--------------------------------------------------------------

             Standard Nuclear Orientation (Angstroms)
    I     Atom           X                Y                Z
 ----------------------------------------------------------------
    1      C      -0.5444400000    -0.6837000000    -0.0668900000
    2      C      -0.5570900000     0.7187800000     0.0549300000
    3      C      -1.7432000000    -1.4161600000    -0.1255200000
    4      C      -2.9395200000    -0.7005600000    -0.0528500000
    5      C      -2.9531300000     0.6825500000     0.0693400000
    6      C      -1.7716100000     1.4240400000     0.1281000000
    7      H      -3.9035400000     1.2032500000     0.1171000000
    8      H      -3.8789200000    -1.2421100000    -0.0898800000
    9      C      -1.8396000000     2.9274600000     0.2483900000
   10      C      -1.7810300000    -2.9222600000    -0.2459000000
   11      H      -1.3975200000    -3.2522300000    -1.2132300000
   12      H      -2.8057200000    -3.2817500000    -0.1362700000
   13      H      -1.1695800000    -3.4077700000     0.5192600000
   14      H      -1.2421400000     3.4235200000    -0.5206500000
   15      H      -1.4550300000     3.2642700000     1.2128400000
   16      H      -2.8721100000     3.2662300000     0.1463800000
   17      H       0.3582500000    -1.1816600000    -0.1138600000
   18      H       0.3355100000     1.2354900000     0.0909700000
   19      GH     -2.3120400000     0.2744100000     5.3734800000
   20      GH     -2.3246900000     1.6768900000     5.4953000000
   21      GH     -3.5108000000    -0.4580500000     5.3148500000
   22      GH     -4.7071200000     0.2575500000     5.3875200000
   23      GH     -4.7207300000     1.6406600000     5.5097100000
   24      GH     -3.5392100000     2.3821500000     5.5684700000
   25      GH     -5.6711400000     2.1613600000     5.5574700000
   26      GH     -5.6465200000    -0.2840000000     5.3504900000
   27      GH     -3.6072000000     3.8855700000     5.6887600000
   28      GH     -3.5486300000    -1.9641500000     5.1944700000
   29      GH     -3.1651200000    -2.2941200000     4.2271400000
   30      GH     -4.5733200000    -2.3236400000     5.3041000000
   31      GH     -2.9371800000    -2.4496600000     5.9596300000
   32      GH     -3.0097400000     4.3816300000     4.9197200000
   33      GH     -3.2226300000     4.2223800000     6.6532100000
   34      GH     -4.6397100000     4.2243400000     5.5867500000
   35      GH     -1.4093500000    -0.2235500000     5.3265100000
   36      GH     -1.4320900000     2.1936000000     5.5313400000
 ----------------------------------------------------------------

   12    -310.9759485521      8.02E-09 Convergence criterion met
 Total energy in the final basis set = -310.97594855

                    Orbital Energies (a.u.)
 --------------------------------------------------------------

 Alpha MOs
 -- Occupied --
-10.180 -10.180 -10.168 -10.168 -10.168 -10.167 -10.167 -10.167
 -0.859  -0.787  -0.745  -0.721  -0.658  -0.612  -0.577  -0.496
 -0.472  -0.460  -0.425  -0.421  -0.417  -0.404  -0.397  -0.376
 -0.345  -0.343  -0.339  -0.252  -0.236

          Ground-State Mulliken Net Atomic Charges

     Atom                 Charge (a.u.)
  ----------------------------------------
      1 C                    -0.150817
      2 C                    -0.298649
      3 C                     0.599442
      4 C                    -0.512921
      5 C                    -0.476689
      6 C                     0.593337
      7 H                     0.151490
      8 H                     0.141763
      9 C                    -0.644219
     10 C                    -0.623547
     11 H                     0.155693
     12 H                     0.147779
     13 H                     0.149743
     14 H                     0.144089
     15 H                     0.164700
     16 H                     0.140658
     17 H                     0.160968
     18 H                     0.168112
     19 GH                   -0.011509
     20 GH                   -0.005761
     21 GH                    0.004464
     22 GH                   -0.003330
     23 GH                   -0.002072
     24 GH                    0.006732
     25 GH                   -0.000292
     26 GH                   -0.000917
     27 GH                    0.002548
     28 GH                    0.005253
     29 GH                   -0.007288
     30 GH                    0.000557
     31 GH                   -0.000205
     32 GH                    0.000180
     33 GH                   -0.000032
     34 GH                    0.000135
     35 GH                    0.000279
     36 GH                    0.000327
  ----------------------------------------
  Sum of atomic charges =    -0.000000

                    Cartesian Multipole Moments
 -----------------------------------------------------------------
    Charge (ESU x 10^10)
                -0.0000
    Dipole Moment (Debye)
         X       0.0921      Y       0.0012      Z       0.0038
       Tot       0.0922
    Quadrupole Moments (Debye-Ang)
        XX     -46.2716     XY       0.0022     YY     -44.6897
        XZ      -0.0550     YZ       0.6783     ZZ     -52.7209

 Total job time:  121.05s(wall), 481.31s(cpu)
        *  Thank you very much for using Q-Chem.  Have a nice day.  *
