 Q-Chem 5.0, Q-Chem, Inc., Pleasanton, CA (2017)
 Q-Chem 5.0.1 for Intel X86 EM64T Linux

User input:
--------------------------------------------------------------
$molecule
0  1
--
0  1
C        -0.54444000        -0.68370000        -0.06689000
C        -0.55709000        +0.71878000        +0.05493000
C        -1.74320000        -1.41616000        -0.12552000
C        -2.93952000        -0.70056000        -0.05285000
C        -2.95313000        +0.68255000        +0.06934000
C        -1.77161000        +1.42404000        +0.12810000
H        -3.90354000        +1.20325000        +0.11710000
H        -3.87892000        -1.24211000        -0.08988000
C        -1.83960000        +2.92746000        +0.24839000
C        -1.78103000        -2.92226000        -0.24590000
H        -1.39752000        -3.25223000        -1.21323000
H        -2.80572000        -3.28175000        -0.13627000
H        -1.16958000        -3.40777000        +0.51926000
H        -1.24214000        +3.42352000        -0.52065000
H        -1.45503000        +3.26427000        +1.21284000
H        -2.87211000        +3.26623000        +0.14638000
H        +0.35825000        -1.18166000        -0.11386000
H        +0.33551000        +1.23549000        +0.09097000
--
0  1
C        -1.91586000        +0.05966000        +4.15409000
C        -1.92851000        +1.46214000        +4.27591000
C        -3.11462000        -0.67280000        +4.09546000
C        -4.31094000        +0.04280000        +4.16813000
C        -4.32455000        +1.42591000        +4.29032000
C        -3.14303000        +2.16740000        +4.34908000
H        -5.27496000        +1.94661000        +4.33808000
H        -5.25034000        -0.49875000        +4.13110000
C        -3.21102000        +3.67082000        +4.46937000
C        -3.15245000        -2.17890000        +3.97508000
H        -2.76894000        -2.50887000        +3.00775000
H        -4.17714000        -2.53839000        +4.08471000
H        -2.54100000        -2.66441000        +4.74024000
H        -2.61356000        +4.16688000        +3.70033000
H        -2.82645000        +4.00763000        +5.43382000
H        -4.24353000        +4.00959000        +4.36736000
H        -1.01317000        -0.43830000        +4.10712000
H        -1.03591000        +1.97885000        +4.31195000
$end

$rem
JOBTYPE                   SP
METHOD                    B3LYP
DFT_D                     d3_op
BASIS                     6-311++G(d,p)
SYMMETRY                  False
THRESH                    12
SCF_CONVERGENCE           8
MAX_SUB_FILE_NUM          128
MEM_STATIC                400
MEM_TOTAL                 4000
$end
--------------------------------------------------------------

             Standard Nuclear Orientation (Angstroms)
    I     Atom           X                Y                Z
 ----------------------------------------------------------------
    1      C       2.8832116260     0.4765655898     0.9951878238
    2      C       2.0893119537     1.6385012778     0.9554505284
    3      C       2.9237589388    -0.4102107148    -0.0951994318
    4      C       2.1448676534    -0.0961382217    -1.2102028695
    5      C       1.3599129844     1.0485880736    -1.2496588788
    6      C       1.3095197930     1.9391787185    -0.1756204727
    7      H       0.7727947162     1.2609488757    -2.1367235351
    8      H       2.1534049754    -0.7667872415    -2.0630082341
    9      C       0.4501588055     3.1767157179    -0.2723928276
   10      C       3.7520298340    -1.6744204646    -0.0960336006
   11      H       4.8200225698    -1.4484474962    -0.0921369803
   12      H       3.5252781976    -2.2708941177    -0.9814963438
   13      H       3.5557715551    -2.2908336961     0.7852032031
   14      H       1.0154780423     4.0825653361    -0.0393539327
   15      H      -0.3830810356     3.1349369236     0.4314997517
   16      H       0.0494145178     3.2778061405    -1.2825575644
   17      H       3.4438370595     0.2726154453     1.8372822606
   18      H       2.0794500130     2.2772228240     1.7659814620
   19      C      -1.3412366548    -1.0448762327     1.2940198336
   20      C      -2.1351363271     0.1170594553     1.2542825383
   21      C      -1.3006893420    -1.9316525373     0.2036325780
   22      C      -2.0795806274    -1.6175800442    -0.9113708596
   23      C      -2.8645352963    -0.4728537489    -0.9508268690
   24      C      -2.9149284878     0.4177368960     0.1232115371
   25      H      -3.4516535646    -0.2604929468    -1.8378915253
   26      H      -2.0710433054    -2.2882290640    -1.7641762242
   27      C      -3.7742894753     1.6552738954     0.0264391823
   28      C      -0.4724184468    -3.1958622871     0.2027984093
   29      H       0.5955742890    -2.9698893187     0.2066950296
   30      H      -0.6991700831    -3.7923359402    -0.6826643340
   31      H      -0.6686767257    -3.8122755186     1.0840352130
   32      H      -3.2089702385     2.5611235136     0.2594780771
   33      H      -4.6075293164     1.6134951011     0.7303317615
   34      H      -4.1750337630     1.7563643180    -0.9837255545
   35      H      -0.7806112213    -1.2488263772     2.1361142705
   36      H      -2.1449982678     0.7557810015     2.0648134718
 ----------------------------------------------------------------

   13    -621.9564176166      9.48E-09 Convergence criterion met
 Total energy in the final basis set = -621.95641762

                    Orbital Energies (a.u.)
 --------------------------------------------------------------

 Alpha MOs
 -- Occupied --
-10.178 -10.177 -10.177 -10.176 -10.166 -10.165 -10.165 -10.165
-10.165 -10.164 -10.164 -10.164 -10.164 -10.164 -10.163 -10.163
 -0.856  -0.855  -0.785  -0.784  -0.742  -0.742  -0.719  -0.718
 -0.656  -0.655  -0.609  -0.609  -0.574  -0.574  -0.493  -0.493
 -0.469  -0.469  -0.457  -0.457  -0.426  -0.420  -0.418  -0.417
 -0.416  -0.411  -0.402  -0.401  -0.395  -0.394  -0.374  -0.373
 -0.345  -0.340  -0.339  -0.339  -0.336  -0.335  -0.250  -0.247
 -0.234  -0.232

          Ground-State Mulliken Net Atomic Charges

     Atom                 Charge (a.u.)
  ----------------------------------------
      1 C                    -0.255382
      2 C                    -0.395198
      3 C                     0.452339
      4 C                    -0.380322
      5 C                    -0.329316
      6 C                     0.709673
      7 H                     0.145276
      8 H                     0.149733
      9 C                    -0.674847
     10 C                    -0.654326
     11 H                     0.156492
     12 H                     0.136002
     13 H                     0.153445
     14 H                     0.145542
     15 H                     0.165018
     16 H                     0.136844
     17 H                     0.162956
     18 H                     0.166330
     19 C                    -0.437797
     20 C                    -0.247674
     21 C                     0.674547
     22 C                    -0.368892
     23 C                    -0.501596
     24 C                     0.607889
     25 H                     0.147081
     26 H                     0.160188
     27 C                    -0.614827
     28 C                    -0.672431
     29 H                     0.210956
     30 H                     0.131768
     31 H                     0.147830
     32 H                     0.152697
     33 H                     0.161029
     34 H                     0.139356
     35 H                     0.151232
     36 H                     0.168384
  ----------------------------------------
  Sum of atomic charges =     0.000000

                    Cartesian Multipole Moments
 -----------------------------------------------------------------
    Charge (ESU x 10^10)
                 0.0000
    Dipole Moment (Debye)
         X       0.0783      Y       0.0515      Z       0.1345
       Tot       0.1639
    Quadrupole Moments (Debye-Ang)
        XX    -100.4870     XY      -6.4476     YY     -94.5343
        XZ       3.9284     YZ       2.5055     ZZ     -94.2156

 Total job time:  163.55s(wall), 650.76s(cpu)
        *  Thank you very much for using Q-Chem.  Have a nice day.  *
