 Q-Chem 5.0, Q-Chem, Inc., Pleasanton, CA (2017)
 Q-Chem 5.0.1 for Intel X86 EM64T Linux

User input:
--------------------------------------------------------------
$molecule
0  1
C        +0.24826000        +2.49278000        +5.26708000
C        +0.65182000        +1.03437000        +5.67984000
C        -1.15644000        +2.68013000        +4.72490000
C        -0.34901000        -0.06853000        +5.40446000
O        -2.06616000        +2.23622000        +5.62079000
O        -1.44780000        +3.20729000        +3.68231000
O        -0.88808000        +0.01998000        +4.17493000
O        -0.59652000        -0.96087000        +6.18024000
C        -1.83578000        -0.99951000        +3.81553000
C        -3.44512000        +2.32282000        +5.22033000
C        +1.35564000        +2.84764000        +4.24622000
C        +2.65626000        +3.16490000        +5.00968000
C        +3.06892000        +1.74141000        +5.48413000
C        +1.96979000        +0.85491000        +4.83375000
O        +1.65396000        +1.58453000        +3.63737000
H        +0.30367000        +3.13576000        +6.15013000
H        +0.86479000        +0.96748000        +6.74521000
H        -2.66193000        -1.01887000        +4.52817000
H        -3.73520000        +3.36312000        +5.06519000
H        +3.39790000        +3.58572000        +4.32918000
H        +2.50792000        +3.87278000        +5.82764000
H        +4.04738000        +1.45784000        +5.09274000
H        +3.09915000        +1.63528000        +6.57041000
H        -2.18592000        -0.72975000        +2.82176000
H        -1.35506000        -1.97907000        +3.80017000
H        -4.01299000        +1.88413000        +6.03784000
H        -3.60564000        +1.76490000        +4.29618000
H        +1.05826000        +3.64733000        +3.60049000
H        +2.26895000        -0.16706000        +4.72899000
@C        +0.22270000        +1.04488000        +0.58595000
@C        +0.62626000        -0.41353000        +0.99871000
@C        -1.18200000        +1.23223000        +0.04377000
@C        -0.37457000        -1.51643000        +0.72333000
@O        -2.09172000        +0.78832000        +0.93966000
@O        -1.47336000        +1.75939000        -0.99882000
@O        -0.91364000        -1.42792000        -0.50620000
@O        -0.62208000        -2.40877000        +1.49911000
@C        -1.86134000        -2.44741000        -0.86560000
@C        -3.47068000        +0.87492000        +0.53920000
@C        +1.33008000        +1.39974000        -0.43491000
@C        +2.63070000        +1.71700000        +0.32855000
@C        +3.04336000        +0.29351000        +0.80300000
@C        +1.94423000        -0.59299000        +0.15262000
@O        +1.62840000        +0.13663000        -1.04376000
@H        +0.27811000        +1.68786000        +1.46900000
@H        +0.83923000        -0.48042000        +2.06408000
@H        -2.68749000        -2.46677000        -0.15296000
@H        -3.76076000        +1.91522000        +0.38406000
@H        +3.37234000        +2.13782000        -0.35195000
@H        +2.48236000        +2.42488000        +1.14651000
@H        +4.02182000        +0.00994000        +0.41161000
@H        +3.07359000        +0.18738000        +1.88928000
@H        -2.21148000        -2.17765000        -1.85937000
@H        -1.38062000        -3.42697000        -0.88096000
@H        -4.03855000        +0.43623000        +1.35671000
@H        -3.63120000        +0.31700000        -0.38495000
@H        +1.03270000        +2.19943000        -1.08064000
@H        +2.24339000        -1.61496000        +0.04786000
$end

$rem
JOBTYPE                   SP
METHOD                    B3LYP
DFT_D                     d3_op
BASIS                     6-311++G(d,p)
SYMMETRY                  False
THRESH                    12
SCF_CONVERGENCE           8
MAX_SUB_FILE_NUM          128
MEM_STATIC                400
MEM_TOTAL                 4000
$end
--------------------------------------------------------------

             Standard Nuclear Orientation (Angstroms)
    I     Atom           X                Y                Z
 ----------------------------------------------------------------
    1      C       0.2482600000     2.4927800000     5.2670800000
    2      C       0.6518200000     1.0343700000     5.6798400000
    3      C      -1.1564400000     2.6801300000     4.7249000000
    4      C      -0.3490100000    -0.0685300000     5.4044600000
    5      O      -2.0661600000     2.2362200000     5.6207900000
    6      O      -1.4478000000     3.2072900000     3.6823100000
    7      O      -0.8880800000     0.0199800000     4.1749300000
    8      O      -0.5965200000    -0.9608700000     6.1802400000
    9      C      -1.8357800000    -0.9995100000     3.8155300000
   10      C      -3.4451200000     2.3228200000     5.2203300000
   11      C       1.3556400000     2.8476400000     4.2462200000
   12      C       2.6562600000     3.1649000000     5.0096800000
   13      C       3.0689200000     1.7414100000     5.4841300000
   14      C       1.9697900000     0.8549100000     4.8337500000
   15      O       1.6539600000     1.5845300000     3.6373700000
   16      H       0.3036700000     3.1357600000     6.1501300000
   17      H       0.8647900000     0.9674800000     6.7452100000
   18      H      -2.6619300000    -1.0188700000     4.5281700000
   19      H      -3.7352000000     3.3631200000     5.0651900000
   20      H       3.3979000000     3.5857200000     4.3291800000
   21      H       2.5079200000     3.8727800000     5.8276400000
   22      H       4.0473800000     1.4578400000     5.0927400000
   23      H       3.0991500000     1.6352800000     6.5704100000
   24      H      -2.1859200000    -0.7297500000     2.8217600000
   25      H      -1.3550600000    -1.9790700000     3.8001700000
   26      H      -4.0129900000     1.8841300000     6.0378400000
   27      H      -3.6056400000     1.7649000000     4.2961800000
   28      H       1.0582600000     3.6473300000     3.6004900000
   29      H       2.2689500000    -0.1670600000     4.7289900000
   30      GH      0.2227000000     1.0448800000     0.5859500000
   31      GH      0.6262600000    -0.4135300000     0.9987100000
   32      GH     -1.1820000000     1.2322300000     0.0437700000
   33      GH     -0.3745700000    -1.5164300000     0.7233300000
   34      GH     -2.0917200000     0.7883200000     0.9396600000
   35      GH     -1.4733600000     1.7593900000    -0.9988200000
   36      GH     -0.9136400000    -1.4279200000    -0.5062000000
   37      GH     -0.6220800000    -2.4087700000     1.4991100000
   38      GH     -1.8613400000    -2.4474100000    -0.8656000000
   39      GH     -3.4706800000     0.8749200000     0.5392000000
   40      GH      1.3300800000     1.3997400000    -0.4349100000
   41      GH      2.6307000000     1.7170000000     0.3285500000
   42      GH      3.0433600000     0.2935100000     0.8030000000
   43      GH      1.9442300000    -0.5929900000     0.1526200000
   44      GH      1.6284000000     0.1366300000    -1.0437600000
   45      GH      0.2781100000     1.6878600000     1.4690000000
   46      GH      0.8392300000    -0.4804200000     2.0640800000
   47      GH     -2.6874900000    -2.4667700000    -0.1529600000
   48      GH     -3.7607600000     1.9152200000     0.3840600000
   49      GH      3.3723400000     2.1378200000    -0.3519500000
   50      GH      2.4823600000     2.4248800000     1.1465100000
   51      GH      4.0218200000     0.0099400000     0.4116100000
   52      GH      3.0735900000     0.1873800000     1.8892800000
   53      GH     -2.2114800000    -2.1776500000    -1.8593700000
   54      GH     -1.3806200000    -3.4269700000    -0.8809600000
   55      GH     -4.0385500000     0.4362300000     1.3567100000
   56      GH     -3.6312000000     0.3170000000    -0.3849500000
   57      GH      1.0327000000     2.1994300000    -1.0806400000
   58      GH      2.2433900000    -1.6149600000     0.0478600000
 ----------------------------------------------------------------

   14    -765.8595086548      6.73E-09 Convergence criterion met
 Total energy in the final basis set = -765.85950865

                    Orbital Energies (a.u.)
 --------------------------------------------------------------

 Alpha MOs
 -- Occupied --
-19.176 -19.174 -19.136 -19.120 -19.116 -10.310 -10.306 -10.242
-10.232 -10.232 -10.230 -10.207 -10.206 -10.182 -10.180  -1.120
 -1.113  -1.065  -1.031  -1.027  -0.833  -0.785  -0.778  -0.740
 -0.729  -0.659  -0.610  -0.596  -0.580  -0.567  -0.551  -0.520
 -0.506  -0.496  -0.489  -0.484  -0.475  -0.473  -0.462  -0.439
 -0.427  -0.425  -0.418  -0.399  -0.385  -0.376  -0.371  -0.368
 -0.362  -0.356  -0.337  -0.334  -0.320  -0.313  -0.290  -0.282
 -0.276

          Ground-State Mulliken Net Atomic Charges

     Atom                 Charge (a.u.)
  ----------------------------------------
      1 C                    -0.098180
      2 C                     0.221950
      3 C                    -0.523616
      4 C                    -0.522343
      5 O                     0.038485
      6 O                    -0.104243
      7 O                    -0.001719
      8 O                    -0.142755
      9 C                    -0.395804
     10 C                    -0.161181
     11 C                    -0.072022
     12 C                    -0.680888
     13 C                    -0.506124
     14 C                    -0.046457
     15 O                     0.215070
     16 H                     0.241994
     17 H                     0.289354
     18 H                     0.238703
     19 H                     0.168540
     20 H                     0.179801
     21 H                     0.136053
     22 H                     0.177635
     23 H                     0.128070
     24 H                     0.087159
     25 H                     0.213175
     26 H                     0.167911
     27 H                     0.188221
     28 H                     0.268580
     29 H                     0.252388
     30 GH                   -0.024941
     31 GH                    0.035771
     32 GH                    0.015464
     33 GH                    0.058518
     34 GH                   -0.015064
     35 GH                    0.000214
     36 GH                   -0.000536
     37 GH                   -0.003250
     38 GH                    0.004440
     39 GH                    0.007287
     40 GH                   -0.062189
     41 GH                    0.018546
     42 GH                   -0.027520
     43 GH                    0.010805
     44 GH                   -0.000482
     45 GH                   -0.000319
     46 GH                    0.025194
     47 GH                    0.001553
     48 GH                    0.001558
     49 GH                   -0.004017
     50 GH                    0.001348
     51 GH                   -0.003783
     52 GH                   -0.000083
     53 GH                    0.000231
     54 GH                   -0.000382
     55 GH                    0.003064
     56 GH                    0.000411
     57 GH                    0.000203
     58 GH                    0.000205
  ----------------------------------------
  Sum of atomic charges =     0.000000

                    Cartesian Multipole Moments
 -----------------------------------------------------------------
    Charge (ESU x 10^10)
                 0.0000
    Dipole Moment (Debye)
         X      -0.0069      Y       0.7318      Z       1.2018
       Tot       1.4071
    Quadrupole Moments (Debye-Ang)
        XX     -75.1995     XY       2.9459     YY     -87.6069
        XZ       3.3283     YZ      15.8456     ZZ     -84.5771

 Total job time:  7244.26s(wall), 7226.98s(cpu)
        *  Thank you very much for using Q-Chem.  Have a nice day.  *
