 Q-Chem 5.0, Q-Chem, Inc., Pleasanton, CA (2017)
 Q-Chem 5.0.1 for Intel X86 EM64T Linux

User input:
--------------------------------------------------------------
$molecule
0  1
--
0  1
C        +0.22270000        +1.04488000        +0.58595000
C        +0.62626000        -0.41353000        +0.99871000
C        -1.18200000        +1.23223000        +0.04377000
C        -0.37457000        -1.51643000        +0.72333000
O        -2.09172000        +0.78832000        +0.93966000
O        -1.47336000        +1.75939000        -0.99882000
O        -0.91364000        -1.42792000        -0.50620000
O        -0.62208000        -2.40877000        +1.49911000
C        -1.86134000        -2.44741000        -0.86560000
C        -3.47068000        +0.87492000        +0.53920000
C        +1.33008000        +1.39974000        -0.43491000
C        +2.63070000        +1.71700000        +0.32855000
C        +3.04336000        +0.29351000        +0.80300000
C        +1.94423000        -0.59299000        +0.15262000
O        +1.62840000        +0.13663000        -1.04376000
H        +0.27811000        +1.68786000        +1.46900000
H        +0.83923000        -0.48042000        +2.06408000
H        -2.68749000        -2.46677000        -0.15296000
H        -3.76076000        +1.91522000        +0.38406000
H        +3.37234000        +2.13782000        -0.35195000
H        +2.48236000        +2.42488000        +1.14651000
H        +4.02182000        +0.00994000        +0.41161000
H        +3.07359000        +0.18738000        +1.88928000
H        -2.21148000        -2.17765000        -1.85937000
H        -1.38062000        -3.42697000        -0.88096000
H        -4.03855000        +0.43623000        +1.35671000
H        -3.63120000        +0.31700000        -0.38495000
H        +1.03270000        +2.19943000        -1.08064000
H        +2.24339000        -1.61496000        +0.04786000
--
0  1
C        +0.24826000        +2.49278000        +5.26708000
C        +0.65182000        +1.03437000        +5.67984000
C        -1.15644000        +2.68013000        +4.72490000
C        -0.34901000        -0.06853000        +5.40446000
O        -2.06616000        +2.23622000        +5.62079000
O        -1.44780000        +3.20729000        +3.68231000
O        -0.88808000        +0.01998000        +4.17493000
O        -0.59652000        -0.96087000        +6.18024000
C        -1.83578000        -0.99951000        +3.81553000
C        -3.44512000        +2.32282000        +5.22033000
C        +1.35564000        +2.84764000        +4.24622000
C        +2.65626000        +3.16490000        +5.00968000
C        +3.06892000        +1.74141000        +5.48413000
C        +1.96979000        +0.85491000        +4.83375000
O        +1.65396000        +1.58453000        +3.63737000
H        +0.30367000        +3.13576000        +6.15013000
H        +0.86479000        +0.96748000        +6.74521000
H        -2.66193000        -1.01887000        +4.52817000
H        -3.73520000        +3.36312000        +5.06519000
H        +3.39790000        +3.58572000        +4.32918000
H        +2.50792000        +3.87278000        +5.82764000
H        +4.04738000        +1.45784000        +5.09274000
H        +3.09915000        +1.63528000        +6.57041000
H        -2.18592000        -0.72975000        +2.82176000
H        -1.35506000        -1.97907000        +3.80017000
H        -4.01299000        +1.88413000        +6.03784000
H        -3.60564000        +1.76490000        +4.29618000
H        +1.05826000        +3.64733000        +3.60049000
H        +2.26895000        -0.16706000        +4.72899000
$end

$rem
JOBTYPE                   SP
METHOD                    B3LYP
DFT_D                     d3_op
BASIS                     6-311++G(d,p)
SYMMETRY                  False
THRESH                    12
SCF_CONVERGENCE           8
MAX_SUB_FILE_NUM          128
MEM_STATIC                400
MEM_TOTAL                 4000
$end
--------------------------------------------------------------

             Standard Nuclear Orientation (Angstroms)
    I     Atom           X                Y                Z
 ----------------------------------------------------------------
    1      C      -1.6555392435     0.6466464086     0.8761563280
    2      C      -1.7667047000     0.7389035345    -0.6856765963
    3      C      -2.2134835475    -0.6073686220     1.5229837558
    4      C      -2.5101473648    -0.3725529903    -1.3969013434
    5      O      -1.6231877473    -1.7051856483     0.9999024011
    6      O      -3.0148103112    -0.6435577444     2.4209525685
    7      O      -3.6658106876    -0.6922615283    -0.7866528359
    8      O      -2.1360731224    -0.8792417014    -2.4277754847
    9      C      -4.4522661567    -1.7253404922    -1.4038231200
   10      C      -2.0839817639    -2.9725148440     1.5008455488
   11      C      -2.3767842968     1.9420382906     1.3190295253
   12      C      -1.4395052996     3.1421573763     1.0816274930
   13      C      -1.4799702927     3.2393584074    -0.4709926801
   14      C      -2.5013413374     2.1255654578    -0.8359989893
   15      O      -3.3739833682     2.1223185722     0.3050112567
   16      H      -0.5981101450     0.6677185278     1.1548506378
   17      H      -0.7840311089     0.7698967379    -1.1528337053
   18      H      -3.8705363660    -2.6443012182    -1.4924574041
   19      H      -1.8756690715    -3.0621413179     2.5680905222
   20      H      -1.8530891958     4.0389549381     1.5452028439
   21      H      -0.4367388737     2.9853538197     1.4841564377
   22      H      -1.8603152632     4.2075920493    -0.8009068609
   23      H      -0.5081433636     3.0826668970    -0.9434139526
   24      H      -5.3068870758    -1.8681880763    -0.7464305870
   25      H      -4.7800055850    -1.4135795591    -2.3969280638
   26      H      -1.5345704720    -3.7241970224     0.9383786716
   27      H      -3.1578641850    -3.0758048977     1.3359142607
   28      H      -2.7115560531     1.8825197511     2.3335696221
   29      H      -2.9433056888     2.2674299731    -1.8000716087
   30      C       3.2148131839     0.1787191918     0.6101541598
   31      C       3.1036477274     0.2709763176    -0.9516787645
   32      C       2.6568688799    -1.0752958389     1.2569815876
   33      C       2.3602050625    -0.8404802071    -1.6629035117
   34      O       3.2471646800    -2.1731128652     0.7339002328
   35      O       1.8555421162    -1.1114849613     2.1549504003
   36      O       1.2045417398    -1.1601887452    -1.0526550041
   37      O       2.7342793050    -1.3471689183    -2.6937776530
   38      C       0.4180862706    -2.1932677090    -1.6698252882
   39      C       2.7863706634    -3.4404420608     1.2348433806
   40      C       2.4935681305     1.4741110737     1.0530273571
   41      C       3.4308471278     2.6742301595     0.8156253248
   42      C       3.3903821346     2.7714311905    -0.7369948484
   43      C       2.3690110899     1.6576382410    -1.1020011576
   44      O       1.4963690591     1.6543913554     0.0390090885
   45      H       4.2722422824     0.1997913110     0.8888484696
   46      H       4.0863213185     0.3019695211    -1.4188358736
   47      H       0.9998160614    -3.1122284350    -1.7584595723
   48      H       2.9946833559    -3.5300685347     2.3020883540
   49      H       3.0172632315     3.5710277213     1.2792006757
   50      H       4.4336135537     2.5174266028     1.2181542694
   51      H       3.0100371642     3.7396648325    -1.0669090291
   52      H       4.3622090637     2.6147396802    -1.2094161208
   53      H      -0.4365346485    -2.3361152931    -1.0124327552
   54      H       0.0903468423    -1.8815067759    -2.6629302320
   55      H       3.3357819554    -4.1921242393     0.6723765033
   56      H       1.7124882423    -3.5437321145     1.0699120925
   57      H       2.1587963743     1.4145925342     2.0675674539
   58      H       1.9270467386     1.7995027562    -2.0660737770
 ----------------------------------------------------------------

   15   -1531.7315627290      5.00E-09 Convergence criterion met
 Total energy in the final basis set = -1531.73156273

                    Orbital Energies (a.u.)
 --------------------------------------------------------------

 Alpha MOs
 -- Occupied --
-19.180 -19.171 -19.170 -19.169 -19.150 -19.126 -19.125 -19.115
-19.113 -19.110 -10.315 -10.306 -10.302 -10.300 -10.251 -10.242
-10.235 -10.232 -10.229 -10.228 -10.219 -10.214 -10.213 -10.211
-10.194 -10.190 -10.190 -10.189 -10.170 -10.167  -1.123  -1.115
 -1.112  -1.108  -1.078  -1.054  -1.037  -1.026  -1.025  -1.023
 -0.840  -0.821  -0.792  -0.785  -0.774  -0.767  -0.743  -0.734
 -0.726  -0.723  -0.663  -0.649  -0.617  -0.605  -0.601  -0.584
 -0.584  -0.573  -0.568  -0.561  -0.555  -0.543  -0.525  -0.513
 -0.510  -0.501  -0.500  -0.492  -0.488  -0.486  -0.481  -0.479
 -0.476  -0.474  -0.470  -0.466  -0.465  -0.452  -0.446  -0.432
 -0.430  -0.426  -0.422  -0.417  -0.417  -0.410  -0.400  -0.392
 -0.391  -0.378  -0.377  -0.376  -0.373  -0.370  -0.366  -0.364
 -0.359  -0.356  -0.353  -0.346  -0.343  -0.342  -0.326  -0.324
 -0.321  -0.316  -0.309  -0.307  -0.296  -0.291  -0.283  -0.281
 -0.276  -0.265

          Ground-State Mulliken Net Atomic Charges

     Atom                 Charge (a.u.)
  ----------------------------------------
      1 C                     0.140970
      2 C                     0.964716
      3 C                    -0.610733
      4 C                    -0.978296
      5 O                     0.013852
      6 O                    -0.166216
      7 O                     0.034689
      8 O                    -0.101129
      9 C                    -0.191370
     10 C                    -0.283099
     11 C                    -0.573838
     12 C                    -0.218375
     13 C                    -0.419957
     14 C                    -0.289159
     15 O                    -0.094105
     16 H                     0.253275
     17 H                     0.419777
     18 H                     0.184813
     19 H                     0.197009
     20 H                     0.202314
     21 H                     0.110610
     22 H                     0.195289
     23 H                     0.082777
     24 H                     0.177170
     25 H                     0.173640
     26 H                     0.120038
     27 H                     0.191686
     28 H                     0.274311
     29 H                     0.259247
     30 C                    -0.066284
     31 C                     0.238680
     32 C                    -0.481102
     33 C                    -0.512705
     34 O                     0.041603
     35 O                    -0.116910
     36 O                     0.005618
     37 O                    -0.139516
     38 C                    -0.440702
     39 C                    -0.166217
     40 C                    -0.160641
     41 C                    -0.686439
     42 C                    -0.504176
     43 C                    -0.111009
     44 O                     0.220944
     45 H                     0.247297
     46 H                     0.295021
     47 H                     0.219481
     48 H                     0.168686
     49 H                     0.178853
     50 H                     0.142266
     51 H                     0.179103
     52 H                     0.132864
     53 H                     0.125068
     54 H                     0.242990
     55 H                     0.169363
     56 H                     0.185085
     57 H                     0.271068
     58 H                     0.251804
  ----------------------------------------
  Sum of atomic charges =     0.000000

                    Cartesian Multipole Moments
 -----------------------------------------------------------------
    Charge (ESU x 10^10)
                 0.0000
    Dipole Moment (Debye)
         X       3.4274      Y      -0.1193      Z       0.5588
       Tot       3.4747
    Quadrupole Moments (Debye-Ang)
        XX    -175.5859     XY      15.4508     YY    -155.4537
        XZ      17.1068     YZ      -7.6183     ZZ    -194.0437

 Total job time:  7052.61s(wall), 7035.75s(cpu)
        *  Thank you very much for using Q-Chem.  Have a nice day.  *
