 Q-Chem 5.0, Q-Chem, Inc., Pleasanton, CA (2017)
 Q-Chem 5.0.1 for Intel X86 EM64T Linux

User input:
--------------------------------------------------------------
$molecule
0  1
--
0  1
C        -0.54444000        -0.68370000        -0.06689000
C        -0.55709000        +0.71878000        +0.05493000
C        +0.74969000        -1.43776000        -0.09374000
C        +0.72843000        +1.48436000        +0.06598000
O        +1.53645000        -1.09176000        +0.94813000
O        +1.04702000        -2.28405000        -0.90088000
O        +1.53784000        +1.08301000        -0.93877000
O        +1.01035000        +2.37097000        +0.83478000
C        +2.83449000        +1.70121000        -0.99358000
C        +2.82316000        -1.73208000        +1.00475000
C        -1.74320000        -1.41616000        -0.12552000
C        -2.93952000        -0.70056000        -0.05285000
C        -2.95313000        +0.68255000        +0.06934000
C        -1.77161000        +1.42404000        +0.12810000
H        +2.73835000        +2.77989000        -1.12464000
H        +2.70778000        -2.81319000        +1.09555000
H        -3.90354000        +1.20325000        +0.11710000
H        +3.38998000        +1.50093000        -0.07544000
H        +3.33184000        +1.25269000        -1.85067000
H        +3.31095000        -1.32281000        +1.88650000
H        +3.39889000        -1.50934000        +0.10459000
H        -3.87892000        -1.24211000        -0.08988000
H        -1.78886000        +2.45164000        +0.22176000
H        -1.73878000        -2.44393000        -0.21875000
--
0  1
C        -0.51072000        -1.11094000        +4.81433000
C        -0.52337000        +0.29154000        +4.93615000
C        +0.78341000        -1.86500000        +4.78748000
C        +0.76215000        +1.05712000        +4.94720000
O        +1.57017000        -1.51900000        +5.82935000
O        +1.08074000        -2.71129000        +3.98034000
O        +1.57156000        +0.65577000        +3.94245000
O        +1.04407000        +1.94373000        +5.71600000
C        +2.86821000        +1.27397000        +3.88764000
C        +2.85688000        -2.15932000        +5.88597000
C        -1.70948000        -1.84340000        +4.75570000
C        -2.90580000        -1.12780000        +4.82837000
C        -2.91941000        +0.25531000        +4.95056000
C        -1.73789000        +0.99680000        +5.00932000
H        +2.77207000        +2.35265000        +3.75658000
H        +2.74150000        -3.24043000        +5.97677000
H        -3.86982000        +0.77601000        +4.99832000
H        +3.42370000        +1.07369000        +4.80578000
H        +3.36556000        +0.82545000        +3.03055000
H        +3.34467000        -1.75005000        +6.76772000
H        +3.43261000        -1.93658000        +4.98581000
H        -3.84520000        -1.66935000        +4.79134000
H        -1.75514000        +2.02440000        +5.10298000
H        -1.70506000        -2.87117000        +4.66247000
$end

$rem
JOBTYPE                   SP
METHOD                    B3LYP
DFT_D                     d3_op
BASIS                     6-311++G(d,p)
SYMMETRY                  False
THRESH                    12
SCF_CONVERGENCE           8
MAX_SUB_FILE_NUM          128
MEM_STATIC                400
MEM_TOTAL                 4000
$end
--------------------------------------------------------------

             Standard Nuclear Orientation (Angstroms)
    I     Atom           X                Y                Z
 ----------------------------------------------------------------
    1      C      -2.4143588084     0.8038142515     0.8503144046
    2      C      -2.5031113394     0.8246104707    -0.5545488595
    3      C      -2.3123157253    -0.4940506792     1.5914174296
    4      C      -2.5902091683    -0.4570740707    -1.3216832767
    5      O      -1.3238926698    -1.2652070364     1.0888857086
    6      O      -2.9805123010    -0.8060665013     2.5465333051
    7      O      -3.5137035066    -1.2816895822    -0.7804657618
    8      O      -1.9586817068    -0.7245749706    -2.3147723726
    9      C      -3.6438136989    -2.5760678983    -1.3921296493
   10      C      -1.1563647642    -2.5540090000     1.7051340760
   11      C      -2.3781565275     1.9982659196     1.5912160671
   12      C      -2.4279384068     3.1987638490     0.8806723900
   13      C      -2.5134499597     3.2204348605    -0.5050862621
   14      C      -2.5510854114     2.0432651863    -1.2548227484
   15      H      -3.9353828846    -2.4766731614    -2.4385895204
   16      H      -0.9068876509    -2.4424539465     2.7613881442
   17      H      -2.5557335976     4.1738085433    -1.0208181602
   18      H      -2.6991984215    -3.1201697907    -1.3345328916
   19      H      -4.4181838472    -3.0869016135    -0.8242121644
   20      H      -0.3394325814    -3.0280698457     1.1658640113
   21      H      -2.0723927063    -3.1406693849     1.6151976087
   22      H      -2.3955889009     4.1350575380     1.4278721898
   23      H      -2.6118617530     2.0665419407    -2.2847722361
   24      H      -2.3170902532     1.9878228351     2.6213541134
   25      C       2.4760509354     0.8333102176     0.5453516682
   26      C       2.3872984043     0.8541064368    -0.8595115959
   27      C       2.5780940184    -0.4645547131     1.2864546932
   28      C       2.3002005754    -0.4275781045    -1.6266460131
   29      O       3.5665170739    -1.2357110702     0.7839229722
   30      O       1.9098974427    -0.7765705352     2.2415705687
   31      O       1.3767062371    -1.2521936161    -1.0854284982
   32      O       2.9317280370    -0.6950790045    -2.6197351090
   33      C       1.2465960449    -2.5465719321    -1.6970923857
   34      C       3.7340449795    -2.5245130338     1.4001713396
   35      C       2.5122532162     2.0277618857     1.2862533307
   36      C       2.4624713370     3.2282598152     0.5757096536
   37      C       2.3769597840     3.2499308267    -0.8100489985
   38      C       2.3393243323     2.0727611524    -1.5597854848
   39      H       0.9550268591    -2.4471771953    -2.7435522568
   40      H       3.9835220928    -2.4129579804     2.4564254078
   41      H       2.3346761461     4.2033045094    -1.3257808966
   42      H       2.1912113223    -3.0906738245    -1.6394956280
   43      H       0.4722258965    -3.0574056474    -1.1291749008
   44      H       4.5509771624    -2.9985738796     0.8609012749
   45      H       2.8180170374    -3.1111734188     1.3102348723
   46      H       2.4948208428     4.1645535042     1.1229094534
   47      H       2.2785479907     2.0960379068    -2.5897349725
   48      H       2.5733194905     2.0173188013     2.3163913770
 ----------------------------------------------------------------

   15   -1376.4274920504      6.41E-09 Convergence criterion met
 Total energy in the final basis set = -1376.42749205

                    Orbital Energies (a.u.)
 --------------------------------------------------------------

 Alpha MOs
 -- Occupied --
-19.178 -19.177 -19.171 -19.170 -19.121 -19.121 -19.116 -19.115
-10.313 -10.313 -10.308 -10.307 -10.234 -10.233 -10.228 -10.226
-10.212 -10.211 -10.211 -10.210 -10.195 -10.195 -10.195 -10.195
-10.194 -10.194 -10.194 -10.193  -1.121  -1.120  -1.111  -1.110
 -1.032  -1.032  -1.026  -1.025  -0.884  -0.884  -0.797  -0.796
 -0.784  -0.783  -0.741  -0.740  -0.730  -0.728  -0.653  -0.653
 -0.643  -0.642  -0.593  -0.592  -0.576  -0.575  -0.552  -0.550
 -0.521  -0.520  -0.513  -0.511  -0.491  -0.491  -0.487  -0.487
 -0.483  -0.479  -0.477  -0.473  -0.469  -0.468  -0.465  -0.464
 -0.439  -0.436  -0.430  -0.425  -0.413  -0.413  -0.405  -0.403
 -0.386  -0.386  -0.385  -0.382  -0.381  -0.379  -0.367  -0.366
 -0.363  -0.359  -0.321  -0.320  -0.311  -0.309  -0.299  -0.298
 -0.293  -0.291  -0.273  -0.271  -0.269  -0.267

          Ground-State Mulliken Net Atomic Charges

     Atom                 Charge (a.u.)
  ----------------------------------------
      1 C                     0.928886
      2 C                     0.808374
      3 C                    -0.665722
      4 C                    -0.788375
      5 O                     0.095885
      6 O                    -0.171408
      7 O                     0.084174
      8 O                    -0.132908
      9 C                    -0.168586
     10 C                    -0.351749
     11 C                    -0.326299
     12 C                    -0.305422
     13 C                    -0.263192
     14 C                    -0.513119
     15 H                     0.169532
     16 H                     0.209914
     17 H                     0.180059
     18 H                     0.178411
     19 H                     0.172597
     20 H                     0.092391
     21 H                     0.188686
     22 H                     0.177785
     23 H                     0.196703
     24 H                     0.205718
     25 C                     0.797302
     26 C                     0.958706
     27 C                    -0.850480
     28 C                    -0.629694
     29 O                     0.092365
     30 O                    -0.121709
     31 O                     0.076311
     32 O                    -0.173646
     33 C                    -0.358297
     34 C                    -0.163580
     35 C                    -0.499884
     36 C                    -0.259155
     37 C                    -0.310958
     38 C                    -0.333193
     39 H                     0.212342
     40 H                     0.168531
     41 H                     0.177650
     42 H                     0.193455
     43 H                     0.089901
     44 H                     0.172068
     45 H                     0.177661
     46 H                     0.180414
     47 H                     0.206283
     48 H                     0.195275
  ----------------------------------------
  Sum of atomic charges =     0.000000

                    Cartesian Multipole Moments
 -----------------------------------------------------------------
    Charge (ESU x 10^10)
                 0.0000
    Dipole Moment (Debye)
         X       0.1963      Y       0.1997      Z       0.2031
       Tot       0.3459
    Quadrupole Moments (Debye-Ang)
        XX    -169.7451     XY      -0.8581     YY    -125.0763
        XZ      18.8275     YZ       0.5545     ZZ    -174.3155

 Total job time:  1302.16s(wall), 2591.90s(cpu)
        *  Thank you very much for using Q-Chem.  Have a nice day.  *
