 Q-Chem 5.0, Q-Chem, Inc., Pleasanton, CA (2017)
 Q-Chem 5.0.1 for Intel X86 EM64T Linux

User input:
--------------------------------------------------------------
$molecule
0  1
--
0  1
C        +0.22270000        +1.04488000        +0.58595000
C        +0.62626000        -0.41353000        +0.99871000
C        -1.18200000        +1.23223000        +0.04377000
C        -0.37457000        -1.51643000        +0.72333000
O        -2.09172000        +0.78832000        +0.93966000
O        -1.47336000        +1.75939000        -0.99882000
O        -0.91364000        -1.42792000        -0.50620000
O        -0.62208000        -2.40877000        +1.49911000
C        -1.86134000        -2.44741000        -0.86560000
C        -3.47068000        +0.87492000        +0.53920000
C        +1.33008000        +1.39974000        -0.43491000
C        +2.63070000        +1.71700000        +0.32855000
C        +3.04336000        +0.29351000        +0.80300000
C        +1.94423000        -0.59299000        +0.15262000
O        +1.62840000        +0.13663000        -1.04376000
H        +0.27811000        +1.68786000        +1.46900000
H        +0.83923000        -0.48042000        +2.06408000
H        -2.68749000        -2.46677000        -0.15296000
H        -3.76076000        +1.91522000        +0.38406000
H        +3.37234000        +2.13782000        -0.35195000
H        +2.48236000        +2.42488000        +1.14651000
H        +4.02182000        +0.00994000        +0.41161000
H        +3.07359000        +0.18738000        +1.88928000
H        -2.21148000        -2.17765000        -1.85937000
H        -1.38062000        -3.42697000        -0.88096000
H        -4.03855000        +0.43623000        +1.35671000
H        -3.63120000        +0.31700000        -0.38495000
C        +2.35450000        -2.01267000        -0.16812000
H        +3.26311000        -2.00678000        -0.77366000
H        +2.54990000        -2.57059000        +0.75079000
H        +1.57335000        -2.52896000        -0.72872000
H        +1.03270000        +2.19943000        -1.08064000
--
0  1
C        +0.24826000        +2.49278000        +5.26708000
C        +0.65182000        +1.03437000        +5.67984000
C        -1.15644000        +2.68013000        +4.72490000
C        -0.34901000        -0.06853000        +5.40446000
O        -2.06616000        +2.23622000        +5.62079000
O        -1.44780000        +3.20729000        +3.68231000
O        -0.88808000        +0.01998000        +4.17493000
O        -0.59652000        -0.96087000        +6.18024000
C        -1.83578000        -0.99951000        +3.81553000
C        -3.44512000        +2.32282000        +5.22033000
C        +1.35564000        +2.84764000        +4.24622000
C        +2.65626000        +3.16490000        +5.00968000
C        +3.06892000        +1.74141000        +5.48413000
C        +1.96979000        +0.85491000        +4.83375000
O        +1.65396000        +1.58453000        +3.63737000
H        +0.30367000        +3.13576000        +6.15013000
H        +0.86479000        +0.96748000        +6.74521000
H        -2.66193000        -1.01887000        +4.52817000
H        -3.73520000        +3.36312000        +5.06519000
H        +3.39790000        +3.58572000        +4.32918000
H        +2.50792000        +3.87278000        +5.82764000
H        +4.04738000        +1.45784000        +5.09274000
H        +3.09915000        +1.63528000        +6.57041000
H        -2.18592000        -0.72975000        +2.82176000
H        -1.35506000        -1.97907000        +3.80017000
H        -4.01299000        +1.88413000        +6.03784000
H        -3.60564000        +1.76490000        +4.29618000
C        +2.38006000        -0.56477000        +4.51301000
H        +3.28867000        -0.55888000        +3.90747000
H        +2.57546000        -1.12269000        +5.43192000
H        +1.59891000        -1.08106000        +3.95241000
H        +1.05826000        +3.64733000        +3.60049000
$end

$rem
JOBTYPE                   SP
METHOD                    B3LYP
DFT_D                     d3_op
BASIS                     6-311++G(d,p)
SYMMETRY                  False
THRESH                    12
SCF_CONVERGENCE           8
MAX_SUB_FILE_NUM          128
MEM_STATIC                400
MEM_TOTAL                 4000
$end
--------------------------------------------------------------

             Standard Nuclear Orientation (Angstroms)
    I     Atom           X                Y                Z
 ----------------------------------------------------------------
    1      C      -1.5888896028     0.2163363170     1.1360536477
    2      C      -1.7491433706     0.5784416927    -0.3816385629
    3      C      -2.0566341232    -1.1643277684     1.5570322837
    4      C      -2.4484131628    -0.4315230860    -1.2675709231
    5      O      -1.4202847563    -2.1135640846     0.8350382685
    6      O      -2.8289630930    -1.4084159488     2.4479369620
    7      O      -3.5664834224    -0.9242887125    -0.7042988416
    8      O      -2.0755768864    -0.7228371693    -2.3790994652
    9      C      -4.3104509873    -1.8766390116    -1.4828903137
   10      C      -1.7944400791    -3.4754265546     1.1084187004
   11      C      -2.3693500564     1.3659686238     1.8169341535
   12      C      -1.5084234200     2.6437567368     1.7822883984
   13      C      -1.5981368880     3.0133622579     0.2732959827
   14      C      -2.5648727304     1.9225774673    -0.2676046577
   15      O      -3.4033726401     1.6632229659     0.8695286598
   16      H      -0.5268914367     0.2514837188     1.3952744153
   17      H      -0.7833716360     0.7516722015    -0.8529345181
   18      H      -3.6804847566    -2.7281288045    -1.7453061716
   19      H      -1.5513466310    -3.7409501808     2.1383903968
   20      H      -1.9587407799     3.4168776681     2.4065462882
   21      H      -0.4874364292     2.4788319088     2.1323495036
   22      H      -2.0417210138     4.0000153935     0.1293141717
   23      H      -0.6327389879     3.0025413204    -0.2366760459
   24      H      -5.1367369314    -2.1858529977    -0.8468199250
   25      H      -4.6831848843    -1.4133966636    -2.3979539239
   26      H      -1.2195542939    -4.0801737001     0.4105397159
   27      H      -2.8650031338    -3.6125869394     0.9466274954
   28      C      -3.3887653374     2.3184970008    -1.4722355630
   29      H      -3.9225826465     3.2482808619    -1.2652897535
   30      H      -2.7450435585     2.4706025352    -2.3419123146
   31      H      -4.1237112696     1.5488687093    -1.7142062560
   32      H      -2.6714459349     1.1064830754     2.8100663319
   33      C       3.2906605490     0.0993912913     0.7043593370
   34      C       3.1304067812     0.4614966670    -0.8133328736
   35      C       2.8229160286    -1.2812727941     1.1253379729
   36      C       2.4311369890    -0.5484681117    -1.6992652338
   37      O       3.4592653954    -2.2305091103     0.4033439578
   38      O       2.0505870588    -1.5253609745     2.0162426513
   39      O       1.3130667293    -1.0412337382    -1.1359931523
   40      O       2.8039732653    -0.8397821950    -2.8107937759
   41      C       0.5690991645    -1.9935840373    -1.9145846244
   42      C       3.0851100727    -3.5923715803     0.6767243897
   43      C       2.5102000954     1.2490235981     1.3852398428
   44      C       3.3711267318     2.5268117112     1.3505940877
   45      C       3.2814132638     2.8964172322    -0.1583983280
   46      C       2.3146774213     1.8056324416    -0.6992989684
   47      O       1.4761775117     1.5462779402     0.4378343491
   48      H       4.3526587150     0.1345386931     0.9635801046
   49      H       4.0961785158     0.6347271758    -1.2846288288
   50      H       1.1990653952    -2.8450738302    -2.1770004823
   51      H       3.3282035207    -3.8578952065     1.7066960861
   52      H       2.9208093719     3.2999326424     1.9748519775
   53      H       4.3921137225     2.3618868831     1.7006551929
   54      H       2.8378291379     3.8830703678    -0.3023801390
   55      H       4.2468111639     2.8855962947    -0.6683703566
   56      H      -0.2571867796    -2.3027980234    -1.2785142357
   57      H       0.1963652675    -1.5303416893    -2.8296482346
   58      H       3.6599958579    -4.1971187258    -0.0211545948
   59      H       2.0145470180    -3.7295319651     0.5149331847
   60      C       1.4907848144     2.2015519751    -1.9039298737
   61      H       0.9569675053     3.1313358362    -1.6969840642
   62      H       2.1345065933     2.3536575095    -2.7736066253
   63      H       0.7558388822     1.4319236836    -2.1459005667
   64      H       2.2081042169     0.9895380497     2.3783720212
 ----------------------------------------------------------------

   15   -1610.4081968699      5.13E-09 Convergence criterion met
 Total energy in the final basis set = -1610.40819687

                    Orbital Energies (a.u.)
 --------------------------------------------------------------

 Alpha MOs
 -- Occupied --
-19.179 -19.171 -19.170 -19.168 -19.143 -19.124 -19.120 -19.115
-19.114 -19.110 -10.314 -10.305 -10.302 -10.299 -10.254 -10.238
-10.236 -10.234 -10.229 -10.229 -10.217 -10.214 -10.211 -10.209
-10.192 -10.189 -10.187 -10.186 -10.178 -10.167 -10.165 -10.165
 -1.122  -1.116  -1.112  -1.107  -1.075  -1.053  -1.035  -1.026
 -1.025  -1.022  -0.839  -0.821  -0.804  -0.791  -0.786  -0.773
 -0.747  -0.741  -0.727  -0.723  -0.703  -0.689  -0.660  -0.646
 -0.612  -0.598  -0.597  -0.581  -0.568  -0.566  -0.564  -0.554
 -0.539  -0.525  -0.523  -0.515  -0.510  -0.503  -0.498  -0.493
 -0.487  -0.484  -0.483  -0.479  -0.476  -0.473  -0.470  -0.466
 -0.465  -0.453  -0.448  -0.438  -0.435  -0.428  -0.427  -0.418
 -0.417  -0.410  -0.409  -0.399  -0.397  -0.396  -0.391  -0.386
 -0.382  -0.375  -0.374  -0.371  -0.369  -0.366  -0.364  -0.359
 -0.356  -0.351  -0.344  -0.341  -0.338  -0.338  -0.323  -0.323
 -0.320  -0.316  -0.309  -0.307  -0.294  -0.288  -0.283  -0.280
 -0.275  -0.263

          Ground-State Mulliken Net Atomic Charges

     Atom                 Charge (a.u.)
  ----------------------------------------
      1 C                     0.245178
      2 C                     0.257222
      3 C                    -0.484710
      4 C                    -0.258579
      5 O                     0.018254
      6 O                    -0.163157
      7 O                     0.091402
      8 O                    -0.091814
      9 C                    -0.168689
     10 C                    -0.294627
     11 C                    -0.605117
     12 C                    -0.355819
     13 C                    -0.010718
     14 C                    -0.500593
     15 O                     0.027276
     16 H                     0.292284
     17 H                    -0.124373
     18 H                     0.191872
     19 H                     0.199038
     20 H                     0.195988
     21 H                     0.118599
     22 H                     0.195956
     23 H                     0.066104
     24 H                     0.178328
     25 H                     0.173688
     26 H                     0.117043
     27 H                     0.192194
     28 C                    -0.360269
     29 H                     0.186298
     30 H                     0.162354
     31 H                     0.187844
     32 H                     0.277024
     33 C                    -0.031776
     34 C                     0.385234
     35 C                    -0.659904
     36 C                    -0.778562
     37 O                     0.041221
     38 O                    -0.099766
     39 O                     0.057676
     40 O                    -0.090412
     41 C                    -0.386580
     42 C                    -0.164065
     43 C                    -0.118437
     44 C                    -0.693941
     45 C                    -0.297419
     46 C                    -0.312028
     47 O                     0.254480
     48 H                     0.248915
     49 H                     0.289370
     50 H                     0.216380
     51 H                     0.169465
     52 H                     0.176551
     53 H                     0.142870
     54 H                     0.169473
     55 H                     0.147837
     56 H                     0.134913
     57 H                     0.245014
     58 H                     0.168005
     59 H                     0.182771
     60 C                    -0.284643
     61 H                     0.207504
     62 H                     0.199734
     63 H                     0.249671
     64 H                     0.274972
  ----------------------------------------
  Sum of atomic charges =     0.000000

                    Cartesian Multipole Moments
 -----------------------------------------------------------------
    Charge (ESU x 10^10)
                 0.0000
    Dipole Moment (Debye)
         X       3.1185      Y       0.0749      Z       0.0907
       Tot       3.1207
    Quadrupole Moments (Debye-Ang)
        XX    -188.5534     XY       9.6214     YY    -165.7906
        XZ      19.5316     YZ       0.0534     ZZ    -209.1966

 Total job time:  7877.37s(wall), 7859.10s(cpu)
        *  Thank you very much for using Q-Chem.  Have a nice day.  *
