 Q-Chem 5.0, Q-Chem, Inc., Pleasanton, CA (2017)
 Q-Chem 5.0.1 for Intel X86 EM64T Linux

User input:
--------------------------------------------------------------
$molecule
0  1
--
0  1
C        +0.22270000        +1.04488000        +0.58595000
C        +0.62626000        -0.41353000        +0.99871000
C        -1.18200000        +1.23223000        +0.04377000
C        -0.37457000        -1.51643000        +0.72333000
O        -2.09172000        +0.78832000        +0.93966000
O        -1.47336000        +1.75939000        -0.99882000
O        -0.91364000        -1.42792000        -0.50620000
O        -0.62208000        -2.40877000        +1.49911000
C        -1.86134000        -2.44741000        -0.86560000
C        -3.47068000        +0.87492000        +0.53920000
C        +1.33008000        +1.39974000        -0.43491000
C        +2.63070000        +1.71700000        +0.32855000
C        +3.04336000        +0.29351000        +0.80300000
C        +1.94423000        -0.59299000        +0.15262000
O        +1.62840000        +0.13663000        -1.04376000
H        +0.27811000        +1.68786000        +1.46900000
H        +0.83923000        -0.48042000        +2.06408000
H        -2.68749000        -2.46677000        -0.15296000
H        -3.76076000        +1.91522000        +0.38406000
H        +3.37234000        +2.13782000        -0.35195000
H        +2.48236000        +2.42488000        +1.14651000
H        +4.02182000        +0.00994000        +0.41161000
H        +3.07359000        +0.18738000        +1.88928000
H        -2.21148000        -2.17765000        -1.85937000
H        -1.38062000        -3.42697000        -0.88096000
H        -4.03855000        +0.43623000        +1.35671000
H        -3.63120000        +0.31700000        -0.38495000
C        +0.90028000        +2.39077000        -1.49430000
C        +2.35450000        -2.01267000        -0.16812000
H        +3.26311000        -2.00678000        -0.77366000
H        +2.54990000        -2.57059000        +0.75079000
H        +1.57335000        -2.52896000        -0.72872000
H        +1.71845000        +2.58186000        -2.15686000
H        +0.59919000        +3.30478000        -1.02650000
H        +0.07925000        +1.98653000        -2.04874000
--
0  1
C        +0.24826000        +2.49278000        +5.26708000
C        +0.65182000        +1.03437000        +5.67984000
C        -1.15644000        +2.68013000        +4.72490000
C        -0.34901000        -0.06853000        +5.40446000
O        -2.06616000        +2.23622000        +5.62079000
O        -1.44780000        +3.20729000        +3.68231000
O        -0.88808000        +0.01998000        +4.17493000
O        -0.59652000        -0.96087000        +6.18024000
C        -1.83578000        -0.99951000        +3.81553000
C        -3.44512000        +2.32282000        +5.22033000
C        +1.35564000        +2.84764000        +4.24622000
C        +2.65626000        +3.16490000        +5.00968000
C        +3.06892000        +1.74141000        +5.48413000
C        +1.96979000        +0.85491000        +4.83375000
O        +1.65396000        +1.58453000        +3.63737000
H        +0.30367000        +3.13576000        +6.15013000
H        +0.86479000        +0.96748000        +6.74521000
H        -2.66193000        -1.01887000        +4.52817000
H        -3.73520000        +3.36312000        +5.06519000
H        +3.39790000        +3.58572000        +4.32918000
H        +2.50792000        +3.87278000        +5.82764000
H        +4.04738000        +1.45784000        +5.09274000
H        +3.09915000        +1.63528000        +6.57041000
H        -2.18592000        -0.72975000        +2.82176000
H        -1.35506000        -1.97907000        +3.80017000
H        -4.01299000        +1.88413000        +6.03784000
H        -3.60564000        +1.76490000        +4.29618000
C        +0.92584000        +3.83867000        +3.18683000
C        +2.38006000        -0.56477000        +4.51301000
H        +3.28867000        -0.55888000        +3.90747000
H        +2.57546000        -1.12269000        +5.43192000
H        +1.59891000        -1.08106000        +3.95241000
H        +1.74401000        +4.02976000        +2.52427000
H        +0.62475000        +4.75268000        +3.65463000
H        +0.10481000        +3.43443000        +2.63239000
$end

$rem
JOBTYPE                   SP
METHOD                    B3LYP
DFT_D                     d3_op
BASIS                     6-311++G(d,p)
SYMMETRY                  False
THRESH                    12
SCF_CONVERGENCE           8
MAX_SUB_FILE_NUM          128
MEM_STATIC                400
MEM_TOTAL                 4000
$end
--------------------------------------------------------------

             Standard Nuclear Orientation (Angstroms)
    I     Atom           X                Y                Z
 ----------------------------------------------------------------
    1      C      -1.5828806373     0.2583090811     0.8658231894
    2      C      -1.6974453852     0.4069779971    -0.6914063028
    3      C      -2.0432168605    -1.0611338642     1.4569256684
    4      C      -2.3508064774    -0.7279789207    -1.4522448672
    5      O      -1.3683385574    -2.0870621976     0.8918807238
    6      O      -2.8412846685    -1.1968480929     2.3482458383
    7      O      -3.4795015732    -1.1615154598    -0.8621025488
    8      O      -1.9362688084    -1.1605673424    -2.5012407025
    9      C      -4.1820359415    -2.2256685542    -1.5259452736
   10      C      -1.7304643087    -3.4061348207     1.3372017410
   11      C      -2.4034734421     1.4742585419     1.3582311313
   12      C      -1.5616625937     2.7522606725     1.1760155634
   13      C      -1.6061443551     2.9109454419    -0.3714195322
   14      C      -2.5371727421     1.7376380107    -0.7879516029
   15      O      -3.4094307842     1.6190394038     0.3471780443
   16      H      -0.5308918329     0.3495464438     1.1508953731
   17      H      -0.7191201774     0.5335298593    -1.1515238355
   18      H      -3.5305345216    -3.0922857210    -1.6495372950
   19      H      -1.5181648355    -3.5239533060     2.4009153558
   20      H      -2.0446280377     3.5941303811     1.6742116950
   21      H      -0.5506355611     2.6568948374     1.5771229162
   22      H      -2.0597756376     3.8597657369    -0.6628655066
   23      H      -0.6240525768     2.8499217225    -0.8446568012
   24      H      -5.0244298731    -2.4616843762    -0.8797128960
   25      H      -4.5308072378    -1.8989334752    -2.5069999167
   26      H      -1.1231291871    -4.0887911170     0.7469710367
   27      H      -2.7927242050    -3.5853076830     1.1622857114
   28      C      -3.0578741294     1.2734377510     2.7075296244
   29      C      -3.3259943106     1.9492698244    -2.0606100140
   30      H      -3.8807496509     2.8877873734    -1.9996441342
   31      H      -2.6557433377     1.9942146429    -2.9223495751
   32      H      -4.0404179436     1.1393979005    -2.2178658121
   33      H      -3.6028733787     2.1547462562     2.9743149833
   34      H      -2.3054483783     1.0827651855     3.4440116472
   35      H      -3.7280909274     0.4407863456     2.6584884901
   36      C       3.3096707401     0.1806169509     0.6070747551
   37      C       3.1951059923     0.3292858670    -0.9501547371
   38      C       2.8493345170    -1.1388259944     1.1981772341
   39      C       2.5417449000    -0.8056710508    -1.7109933015
   40      O       3.5242128200    -2.1647543278     0.6331322895
   41      O       2.0512667090    -1.2745402231     2.0894974040
   42      O       1.4130498043    -1.2392075900    -1.1208509831
   43      O       2.9562825691    -1.2382594725    -2.7599891368
   44      C       0.7105154360    -2.3033606843    -1.7846937079
   45      C       3.1620870687    -3.4838269509     1.0784533068
   46      C       2.4890779354     1.3965664117     1.0994826971
   47      C       3.3308887838     2.6745685423     0.9172671291
   48      C       3.2864070223     2.8332533117    -0.6301679665
   49      C       2.3553786354     1.6599458805    -1.0467000372
   50      O       1.4831205932     1.5413472736     0.0884296100
   51      H       4.3616595446     0.2718543136     0.8921469389
   52      H       4.1734312001     0.4558377291    -1.4102722698
   53      H       1.3620168559    -3.1699778511    -1.9082857292
   54      H       3.3743865420    -3.6016454362     2.1421669215
   55      H       2.8479233397     3.5164382509     1.4154632608
   56      H       4.3419158164     2.5792027073     1.3183744819
   57      H       2.8327757399     3.7820736067    -0.9216139409
   58      H       4.2684988007     2.7722295924    -1.1034052354
   59      H      -0.1318784957    -2.5393765064    -1.1384613303
   60      H       0.3617441397    -1.9766256054    -2.7657483509
   61      H       3.7694221903    -4.1664832472     0.4882226025
   62      H       2.0998271724    -3.6629998131     0.9035372771
   63      C       1.8346772480     1.1957456209     2.4487811901
   64      C       1.5665570668     1.8715776943    -2.3193584483
   65      H       1.0118017266     2.8100952433    -2.2583925685
   66      H       2.2368080398     1.9165225127    -3.1810980093
   67      H       0.8521334339     1.0617057703    -2.4766142464
   68      H       1.2896779988     2.0770541260     2.7155665490
   69      H       2.5871029992     1.0050730553     3.1852632130
   70      H       1.1644604501     0.3630942154     2.3997400559
 ----------------------------------------------------------------

   15   -1689.0494980170      5.24E-09 Convergence criterion met
 Total energy in the final basis set = -1689.04949802

                    Orbital Energies (a.u.)
 --------------------------------------------------------------

 Alpha MOs
 -- Occupied --
-19.180 -19.171 -19.171 -19.170 -19.136 -19.122 -19.114 -19.114
-19.114 -19.109 -10.316 -10.305 -10.303 -10.303 -10.250 -10.241
-10.235 -10.233 -10.231 -10.229 -10.220 -10.214 -10.210 -10.207
-10.192 -10.189 -10.185 -10.183 -10.175 -10.165 -10.163 -10.161
-10.148 -10.127  -1.124  -1.117  -1.112  -1.110  -1.073  -1.051
 -1.039  -1.027  -1.027  -1.025  -0.838  -0.821  -0.812  -0.794
 -0.790  -0.773  -0.749  -0.744  -0.733  -0.725  -0.724  -0.713
 -0.679  -0.666  -0.651  -0.634  -0.607  -0.596  -0.587  -0.572
 -0.570  -0.565  -0.563  -0.554  -0.529  -0.518  -0.517  -0.511
 -0.509  -0.500  -0.498  -0.492  -0.487  -0.484  -0.483  -0.478
 -0.475  -0.472  -0.471  -0.465  -0.463  -0.451  -0.447  -0.440
 -0.438  -0.434  -0.428  -0.428  -0.420  -0.413  -0.410  -0.407
 -0.405  -0.403  -0.397  -0.394  -0.392  -0.386  -0.379  -0.374
 -0.372  -0.369  -0.367  -0.364  -0.360  -0.357  -0.355  -0.354
 -0.349  -0.344  -0.340  -0.338  -0.335  -0.333  -0.324  -0.323
 -0.318  -0.317  -0.310  -0.308  -0.286  -0.283  -0.281  -0.275
 -0.262  -0.261

          Ground-State Mulliken Net Atomic Charges

     Atom                 Charge (a.u.)
  ----------------------------------------
      1 C                     0.335962
      2 C                     0.547636
      3 C                    -0.447491
      4 C                    -0.143877
      5 O                     0.058785
      6 O                    -0.099687
      7 O                     0.081633
      8 O                    -0.076700
      9 C                    -0.149253
     10 C                    -0.274825
     11 C                    -1.240120
     12 C                    -0.069297
     13 C                     0.102358
     14 C                    -1.167008
     15 O                     0.200605
     16 H                     0.160904
     17 H                     0.002850
     18 H                     0.191766
     19 H                     0.198065
     20 H                     0.196393
     21 H                     0.127370
     22 H                     0.201712
     23 H                     0.057742
     24 H                     0.176505
     25 H                     0.177617
     26 H                     0.125095
     27 H                     0.195365
     28 C                    -0.324028
     29 C                    -0.181984
     30 H                     0.178540
     31 H                     0.168027
     32 H                     0.188028
     33 H                     0.139402
     34 H                     0.143002
     35 H                     0.208885
     36 C                    -0.249915
     37 C                     0.364755
     38 C                    -0.483772
     39 C                    -0.765132
     40 O                     0.066154
     41 O                    -0.081292
     42 O                     0.044669
     43 O                    -0.085150
     44 C                    -0.374605
     45 C                    -0.153408
     46 C                    -0.069603
     47 C                    -0.268166
     48 C                    -0.319889
     49 C                    -0.267818
     50 O                     0.306743
     51 H                     0.259948
     52 H                     0.285026
     53 H                     0.219230
     54 H                     0.168261
     55 H                     0.174760
     56 H                     0.155395
     57 H                     0.169055
     58 H                     0.151491
     59 H                     0.132587
     60 H                     0.243771
     61 H                     0.168504
     62 H                     0.175840
     63 C                    -0.701523
     64 C                    -0.421509
     65 H                     0.217671
     66 H                     0.198569
     67 H                     0.232109
     68 H                     0.144065
     69 H                     0.169820
     70 H                     0.203380
  ----------------------------------------
  Sum of atomic charges =    -0.000000

                    Cartesian Multipole Moments
 -----------------------------------------------------------------
    Charge (ESU x 10^10)
                -0.0000
    Dipole Moment (Debye)
         X       2.8341      Y      -0.5126      Z       0.4613
       Tot       2.9168
    Quadrupole Moments (Debye-Ang)
        XX    -202.4500     XY      12.0576     YY    -180.9468
        XZ      17.7454     YZ      -6.6503     ZZ    -220.8915

 Total job time:  4006.91s(wall), 7977.84s(cpu)
        *  Thank you very much for using Q-Chem.  Have a nice day.  *
