 Q-Chem 5.0, Q-Chem, Inc., Pleasanton, CA (2017)
 Q-Chem 5.0.1 for Intel X86 EM64T Linux

User input:
--------------------------------------------------------------
$molecule
0  1
--
0  1
C        -0.54444000        -0.68370000        -0.06689000
C        -0.55709000        +0.71878000        +0.05493000
C        +0.74969000        -1.43776000        -0.09374000
C        +0.72843000        +1.48436000        +0.06598000
O        +1.53645000        -1.09176000        +0.94813000
O        +1.04702000        -2.28405000        -0.90088000
O        +1.53784000        +1.08301000        -0.93877000
O        +1.01035000        +2.37097000        +0.83478000
C        +2.83449000        +1.70121000        -0.99358000
C        +2.82316000        -1.73208000        +1.00475000
C        -1.74320000        -1.41616000        -0.12552000
C        -2.93952000        -0.70056000        -0.05285000
C        -2.95313000        +0.68255000        +0.06934000
C        -1.77161000        +1.42404000        +0.12810000
H        +2.73835000        +2.77989000        -1.12464000
H        +2.70778000        -2.81319000        +1.09555000
H        -3.90354000        +1.20325000        +0.11710000
H        +3.38998000        +1.50093000        -0.07544000
H        +3.33184000        +1.25269000        -1.85067000
H        +3.31095000        -1.32281000        +1.88650000
H        +3.39889000        -1.50934000        +0.10459000
H        -3.87892000        -1.24211000        -0.08988000
C        -1.83960000        +2.92746000        +0.24839000
H        -1.24214000        +3.42352000        -0.52065000
H        -1.45503000        +3.26427000        +1.21284000
H        -2.87211000        +3.26623000        +0.14638000
H        -1.73878000        -2.44393000        -0.21875000
--
0  1
C        -0.51072000        -1.11094000        +4.81433000
C        -0.52337000        +0.29154000        +4.93615000
C        +0.78341000        -1.86500000        +4.78748000
C        +0.76215000        +1.05712000        +4.94720000
O        +1.57017000        -1.51900000        +5.82935000
O        +1.08074000        -2.71129000        +3.98034000
O        +1.57156000        +0.65577000        +3.94245000
O        +1.04407000        +1.94373000        +5.71600000
C        +2.86821000        +1.27397000        +3.88764000
C        +2.85688000        -2.15932000        +5.88597000
C        -1.70948000        -1.84340000        +4.75570000
C        -2.90580000        -1.12780000        +4.82837000
C        -2.91941000        +0.25531000        +4.95056000
C        -1.73789000        +0.99680000        +5.00932000
H        +2.77207000        +2.35265000        +3.75658000
H        +2.74150000        -3.24043000        +5.97677000
H        -3.86982000        +0.77601000        +4.99832000
H        +3.42370000        +1.07369000        +4.80578000
H        +3.36556000        +0.82545000        +3.03055000
H        +3.34467000        -1.75005000        +6.76772000
H        +3.43261000        -1.93658000        +4.98581000
H        -3.84520000        -1.66935000        +4.79134000
C        -1.80588000        +2.50022000        +5.12961000
H        -1.20842000        +2.99628000        +4.36057000
H        -1.42131000        +2.83703000        +6.09406000
H        -2.83839000        +2.83899000        +5.02760000
H        -1.70506000        -2.87117000        +4.66247000
$end

$rem
JOBTYPE                   SP
METHOD                    B3LYP
DFT_D                     d3_op
BASIS                     6-311++G(d,p)
SYMMETRY                  False
THRESH                    12
SCF_CONVERGENCE           8
MAX_SUB_FILE_NUM          128
MEM_STATIC                400
MEM_TOTAL                 4000
$end
--------------------------------------------------------------

             Standard Nuclear Orientation (Angstroms)
    I     Atom           X                Y                Z
 ----------------------------------------------------------------
    1      C      -2.3983846654     0.2063362169     1.2384888326
    2      C      -2.4970664297     0.7043811403    -0.0745852129
    3      C      -2.2746775482    -1.2649859942     1.4914855977
    4      C      -2.5730717276    -0.2393714503    -1.2331838284
    5      O      -1.2799720025    -1.8038883698     0.7536878602
    6      O      -2.9322434420    -1.8939807342     2.2839877019
    7      O      -3.4822131633    -1.2124048820    -1.0042368390
    8      O      -1.9450329015    -0.1425463126    -2.2592451053
    9      C      -3.5999937407    -2.2217987872    -2.0209611272
   10      C      -1.0917623487    -3.2231144805     0.8922971086
   11      C      -2.3723363362     1.0763383762     2.3427435104
   12      C      -2.4423340903     2.4464718998     2.0850998163
   13      C      -2.5376548448     2.9388610220     0.7902732617
   14      C      -2.5654176930     2.0880965485    -0.3163787626
   15      H      -3.9000066673    -1.7751987937    -2.9699136315
   16      H      -0.8364631733    -3.4754194553     1.9225983010
   17      H      -2.5956583474     4.0103323794     0.6312971641
   18      H      -2.6481338395    -2.7392408662    -2.1546723886
   19      H      -4.3638494100    -2.9069279807    -1.6600553421
   20      H      -0.2725760974    -3.4727306661     0.2218124145
   21      H      -2.0008222824    -3.7568725089     0.6093155365
   22      H      -2.4181755139     3.1399611894     2.9191315614
   23      C      -2.6827438556     2.6722015141    -1.7036134152
   24      H      -3.5043929739     2.2211622172    -2.2656746005
   25      H      -1.7732034829     2.5011163841    -2.2823750692
   26      H      -2.8623457532     3.7471533917    -1.6447094905
   27      H      -2.3040502404     0.7155981138     3.3072257624
   28      C       2.4890340535     0.4083931796     0.9516247627
   29      C       2.3903522892     0.9064381030    -0.3614492828
   30      C       2.6127411706    -1.0629290315     1.2046215278
   31      C       2.3143469912    -0.0373144876    -1.5200478983
   32      O       3.6074467164    -1.6018314070     0.4668237903
   33      O       1.9551752769    -1.6919237715     1.9971236319
   34      O       1.4052055556    -1.0103479192    -1.2911009089
   35      O       2.9423858173     0.0595106501    -2.5461091753
   36      C       1.2874249781    -2.0197418245    -2.3078251971
   37      C       3.7956563701    -3.0210575178     0.6054330387
   38      C       2.5150823827     1.2783953390     2.0558794405
   39      C       2.4450846285     2.6485288626     1.7982357464
   40      C       2.3497638741     3.1409179848     0.5034091918
   41      C       2.3220010259     2.2901535112    -0.6032428325
   42      H       0.9874120516    -1.5731418310    -3.2567777014
   43      H       4.0509555456    -3.2733624926     1.6357342311
   44      H       2.2917603715     4.2123893422     0.3444330942
   45      H       2.2392848794    -2.5371839035    -2.4415364585
   46      H       0.5235693088    -2.7048710179    -1.9469194120
   47      H       4.6148426215    -3.2706737033    -0.0650516554
   48      H       2.8865964364    -3.5548155461     0.3224514666
   49      H       2.4692432050     3.3420181521     2.6322674915
   50      C       2.2046748632     2.8742584768    -1.9904774851
   51      H       1.3830257450     2.4232191800    -2.5525386704
   52      H       3.1142152359     2.7031733468    -2.5692391392
   53      H       2.0250729657     3.9492103544    -1.9315735604
   54      H       2.5833684784     0.9176550766     3.0203616925
 ----------------------------------------------------------------

   15   -1455.0947128282      7.04E-09 Convergence criterion met
 Total energy in the final basis set = -1455.09471283

                    Orbital Energies (a.u.)
 --------------------------------------------------------------

 Alpha MOs
 -- Occupied --
-19.177 -19.176 -19.171 -19.168 -19.121 -19.119 -19.116 -19.112
-10.312 -10.311 -10.307 -10.305 -10.233 -10.233 -10.227 -10.225
-10.208 -10.207 -10.205 -10.204 -10.204 -10.204 -10.191 -10.190
-10.188 -10.187 -10.187 -10.187 -10.173 -10.170  -1.120  -1.119
 -1.111  -1.108  -1.032  -1.030  -1.026  -1.023  -0.883  -0.883
 -0.798  -0.797  -0.792  -0.791  -0.744  -0.744  -0.729  -0.726
 -0.702  -0.701  -0.652  -0.651  -0.624  -0.623  -0.579  -0.577
 -0.574  -0.569  -0.547  -0.546  -0.519  -0.517  -0.511  -0.510
 -0.490  -0.490  -0.485  -0.485  -0.481  -0.477  -0.476  -0.473
 -0.469  -0.468  -0.445  -0.443  -0.434  -0.431  -0.430  -0.429
 -0.426  -0.423  -0.411  -0.409  -0.404  -0.402  -0.393  -0.393
 -0.382  -0.380  -0.376  -0.373  -0.369  -0.366  -0.363  -0.362
 -0.360  -0.357  -0.320  -0.319  -0.310  -0.307  -0.295  -0.294
 -0.291  -0.288  -0.267  -0.265  -0.262  -0.259

          Ground-State Mulliken Net Atomic Charges

     Atom                 Charge (a.u.)
  ----------------------------------------
      1 C                     0.350939
      2 C                     1.117225
      3 C                    -0.474540
      4 C                    -1.072977
      5 O                     0.119267
      6 O                    -0.170431
      7 O                     0.108880
      8 O                    -0.094746
      9 C                    -0.177894
     10 C                    -0.353572
     11 C                    -0.469089
     12 C                    -0.235336
     13 C                    -0.374517
     14 C                     0.190244
     15 H                     0.165849
     16 H                     0.213287
     17 H                     0.151916
     18 H                     0.181674
     19 H                     0.172744
     20 H                     0.087487
     21 H                     0.187213
     22 H                     0.182125
     23 C                    -0.519480
     24 H                     0.174405
     25 H                     0.189886
     26 H                     0.147054
     27 H                     0.197535
     28 C                     0.550336
     29 C                     0.815428
     30 C                    -0.903222
     31 C                    -0.760307
     32 O                     0.095939
     33 O                    -0.102537
     34 O                     0.105610
     35 O                    -0.142477
     36 C                    -0.328348
     37 C                    -0.160511
     38 C                    -0.526094
     39 C                    -0.227285
     40 C                    -0.470914
     41 C                     0.439383
     42 H                     0.203212
     43 H                     0.169425
     44 H                     0.152096
     45 H                     0.196469
     46 H                     0.095831
     47 H                     0.173146
     48 H                     0.175342
     49 H                     0.184722
     50 C                    -0.468093
     51 H                     0.205451
     52 H                     0.214777
     53 H                     0.133444
     54 H                     0.184030
  ----------------------------------------
  Sum of atomic charges =     0.000000

                    Cartesian Multipole Moments
 -----------------------------------------------------------------
    Charge (ESU x 10^10)
                 0.0000
    Dipole Moment (Debye)
         X       0.2393      Y       0.3834      Z      -0.7851
       Tot       0.9059
    Quadrupole Moments (Debye-Ang)
        XX    -182.1385     XY      -7.5458     YY    -145.0828
        XZ      16.8234     YZ      14.3378     ZZ    -180.7610

 Total job time:  1751.53s(wall), 3486.92s(cpu)
        *  Thank you very much for using Q-Chem.  Have a nice day.  *
