 Q-Chem 5.0, Q-Chem, Inc., Pleasanton, CA (2017)
 Q-Chem 5.0.1 for Intel X86 EM64T Linux

User input:
--------------------------------------------------------------
$molecule
0  1
--
0  1
C        -0.54444000        -0.68370000        -0.06689000
C        -0.55709000        +0.71878000        +0.05493000
C        +0.74969000        -1.43776000        -0.09374000
C        +0.72843000        +1.48436000        +0.06598000
O        +1.53645000        -1.09176000        +0.94813000
O        +1.04702000        -2.28405000        -0.90088000
O        +1.53784000        +1.08301000        -0.93877000
O        +1.01035000        +2.37097000        +0.83478000
C        +2.83449000        +1.70121000        -0.99358000
C        +2.82316000        -1.73208000        +1.00475000
C        -1.74320000        -1.41616000        -0.12552000
C        -2.93952000        -0.70056000        -0.05285000
C        -2.95313000        +0.68255000        +0.06934000
C        -1.77161000        +1.42404000        +0.12810000
H        +2.73835000        +2.77989000        -1.12464000
H        +2.70778000        -2.81319000        +1.09555000
H        -3.90354000        +1.20325000        +0.11710000
H        +3.38998000        +1.50093000        -0.07544000
H        +3.33184000        +1.25269000        -1.85067000
H        +3.31095000        -1.32281000        +1.88650000
H        +3.39889000        -1.50934000        +0.10459000
H        -3.87892000        -1.24211000        -0.08988000
C        -1.83960000        +2.92746000        +0.24839000
C        -1.78103000        -2.92226000        -0.24590000
H        -1.39752000        -3.25223000        -1.21323000
H        -2.80572000        -3.28175000        -0.13627000
H        -1.16958000        -3.40777000        +0.51926000
H        -1.24214000        +3.42352000        -0.52065000
H        -1.45503000        +3.26427000        +1.21284000
H        -2.87211000        +3.26623000        +0.14638000
--
0  1
C        -0.51072000        -1.11094000        +4.81433000
C        -0.52337000        +0.29154000        +4.93615000
C        +0.78341000        -1.86500000        +4.78748000
C        +0.76215000        +1.05712000        +4.94720000
O        +1.57017000        -1.51900000        +5.82935000
O        +1.08074000        -2.71129000        +3.98034000
O        +1.57156000        +0.65577000        +3.94245000
O        +1.04407000        +1.94373000        +5.71600000
C        +2.86821000        +1.27397000        +3.88764000
C        +2.85688000        -2.15932000        +5.88597000
C        -1.70948000        -1.84340000        +4.75570000
C        -2.90580000        -1.12780000        +4.82837000
C        -2.91941000        +0.25531000        +4.95056000
C        -1.73789000        +0.99680000        +5.00932000
H        +2.77207000        +2.35265000        +3.75658000
H        +2.74150000        -3.24043000        +5.97677000
H        -3.86982000        +0.77601000        +4.99832000
H        +3.42370000        +1.07369000        +4.80578000
H        +3.36556000        +0.82545000        +3.03055000
H        +3.34467000        -1.75005000        +6.76772000
H        +3.43261000        -1.93658000        +4.98581000
H        -3.84520000        -1.66935000        +4.79134000
C        -1.80588000        +2.50022000        +5.12961000
C        -1.74731000        -3.34950000        +4.63532000
H        -1.36380000        -3.67947000        +3.66799000
H        -2.77200000        -3.70899000        +4.74495000
H        -1.13586000        -3.83501000        +5.40048000
H        -1.20842000        +2.99628000        +4.36057000
H        -1.42131000        +2.83703000        +6.09406000
H        -2.83839000        +2.83899000        +5.02760000
$end

$rem
JOBTYPE                   SP
METHOD                    B3LYP
DFT_D                     d3_op
BASIS                     6-311++G(d,p)
SYMMETRY                  False
THRESH                    12
SCF_CONVERGENCE           8
MAX_SUB_FILE_NUM          128
MEM_STATIC                400
MEM_TOTAL                 4000
$end
--------------------------------------------------------------

             Standard Nuclear Orientation (Angstroms)
    I     Atom           X                Y                Z
 ----------------------------------------------------------------
    1      C      -2.4021527234     0.4899884989     0.8911204887
    2      C      -2.5069015229     0.5548019378    -0.5112978485
    3      C      -2.2909049726    -0.8304087937     1.5898871097
    4      C      -2.6019582346    -0.7022454540    -1.3172709161
    5      O      -1.3078044419    -1.5844609418     1.0521891472
    6      O      -2.9480007585    -1.1728993086     2.5422590160
    7      O      -3.5187394004    -1.5443302778    -0.7917669896
    8      O      -1.9816147219    -0.9378283251    -2.3253801639
    9      C      -3.6550285851    -2.8189879965    -1.4422664567
   10      C      -1.1325025890    -2.8918167834     1.6257116966
   11      C      -2.3582346437     1.6606211496     1.6687136120
   12      C      -2.4168185279     2.8827898687     0.9968375952
   13      C      -2.5181096420     2.9478808854    -0.3864961209
   14      C      -2.5635716916     1.7947977406    -1.1723600603
   15      H      -3.9585486776    -2.6870623436    -2.4817092599
   16      H      -0.8710865472    -2.8132445064     2.6820469023
   17      H      -2.5668306772     3.9169374593    -0.8715160102
   18      H      -2.7094936477    -3.3637274537    -1.4125194547
   19      H      -4.4225790563    -3.3481417992    -0.8819156663
   20      H      -0.3214776501    -3.3479303081     1.0625748744
   21      H      -2.0491437263    -3.4762387506     1.5278027813
   22      H      -2.3788031855     3.8014704515     1.5727723170
   23      C      -2.6867327835     1.9184659203    -2.6719938648
   24      C      -2.2361123966     1.6425900199     3.1750405017
   25      H      -3.1329555721     1.2293069716     3.6403972364
   26      H      -2.0836424936     2.6557466850     3.5512158513
   27      H      -1.3951139472     1.0288927387     3.5084443759
   28      H      -3.5174908077     1.3245367003    -3.0612825542
   29      H      -1.7838147785     1.5644814408    -3.1729259241
   30      H      -2.8551810689     2.9602460524    -2.9505030827
   31      C       2.4844507731     0.5337175756     0.5317129483
   32      C       2.3797019736     0.5985310145    -0.8707053889
   33      C       2.5956985239    -0.7866797169     1.2304795693
   34      C       2.2846452619    -0.6585163773    -1.6766784565
   35      O       3.5787990546    -1.5407318651     0.6927816067
   36      O       1.9386027380    -1.1291702319     2.1828514756
   37      O       1.3678640962    -1.5006012010    -1.1511745300
   38      O       2.9049887746    -0.8940992484    -2.6847877043
   39      C       1.2315749115    -2.7752589198    -1.8016739971
   40      C       3.7541009075    -2.8480877067     1.2663041562
   41      C       2.5283688528     1.7043502264     1.3093060716
   42      C       2.4697849686     2.9265189454     0.6374300548
   43      C       2.3684938545     2.9916099621    -0.7459036613
   44      C       2.3230318049     1.8385268173    -1.5317676007
   45      H       0.9280548189    -2.6433332668    -2.8411168003
   46      H       4.0155169493    -2.7695154296     2.3226393619
   47      H       2.3197728193     3.9606665360    -1.2309235506
   48      H       2.1771098488    -3.3199983769    -1.7719269951
   49      H       0.4640244402    -3.3044127225    -1.2413232067
   50      H       4.5651258464    -3.3042012314     0.7031673340
   51      H       2.8374597702    -3.4325096739     1.1683952409
   52      H       2.5078003111     3.8451995283     1.2133647766
   53      C       2.1998707130     1.9621949970    -3.0314014052
   54      C       2.6504910999     1.6863190966     2.8156329612
   55      H       1.7536479244     1.2730360483     3.2809896959
   56      H       2.8029610029     2.6994757617     3.1918083109
   57      H       3.4914895493     1.0726218154     3.1490368355
   58      H       1.3691126888     1.3682657771    -3.4206900946
   59      H       3.1027887180     1.6082105175    -3.5323334646
   60      H       2.0314224276     3.0039751292    -3.3099106231
 ----------------------------------------------------------------

   14   -1533.7608738045      9.60E-09 Convergence criterion met
 Total energy in the final basis set = -1533.76087380

                    Orbital Energies (a.u.)
 --------------------------------------------------------------

 Alpha MOs
 -- Occupied --
-19.176 -19.175 -19.169 -19.168 -19.119 -19.118 -19.113 -19.112
-10.310 -10.310 -10.305 -10.304 -10.233 -10.232 -10.226 -10.225
-10.202 -10.202 -10.201 -10.201 -10.198 -10.198 -10.198 -10.197
-10.184 -10.183 -10.183 -10.183 -10.170 -10.169 -10.166 -10.166
 -1.119  -1.118  -1.109  -1.108  -1.030  -1.030  -1.024  -1.023
 -0.882  -0.882  -0.804  -0.804  -0.792  -0.792  -0.744  -0.743
 -0.731  -0.731  -0.722  -0.721  -0.672  -0.672  -0.646  -0.646
 -0.617  -0.617  -0.574  -0.574  -0.562  -0.560  -0.534  -0.533
 -0.515  -0.514  -0.511  -0.511  -0.489  -0.489  -0.484  -0.483
 -0.479  -0.475  -0.474  -0.472  -0.467  -0.465  -0.442  -0.438
 -0.433  -0.430  -0.428  -0.425  -0.419  -0.416  -0.413  -0.413
 -0.409  -0.408  -0.403  -0.402  -0.393  -0.392  -0.385  -0.384
 -0.378  -0.377  -0.370  -0.368  -0.359  -0.358  -0.356  -0.355
 -0.354  -0.353  -0.319  -0.318  -0.308  -0.307  -0.292  -0.292
 -0.288  -0.286  -0.264  -0.261  -0.251  -0.248

          Ground-State Mulliken Net Atomic Charges

     Atom                 Charge (a.u.)
  ----------------------------------------
      1 C                     0.270082
      2 C                     0.367235
      3 C                    -0.544071
      4 C                    -0.835260
      5 O                     0.139208
      6 O                    -0.145395
      7 O                     0.097567
      8 O                    -0.096554
      9 C                    -0.159431
     10 C                    -0.317741
     11 C                     0.476923
     12 C                    -0.356552
     13 C                    -0.340164
     14 C                     0.345785
     15 H                     0.165475
     16 H                     0.200135
     17 H                     0.162525
     18 H                     0.177651
     19 H                     0.171953
     20 H                     0.090632
     21 H                     0.191126
     22 H                     0.159558
     23 C                    -0.632375
     24 C                    -0.634643
     25 H                     0.214277
     26 H                     0.128591
     27 H                     0.203356
     28 H                     0.174140
     29 H                     0.189522
     30 H                     0.138958
     31 C                     0.340484
     32 C                     0.293029
     33 C                    -0.870856
     34 C                    -0.533438
     35 O                     0.112699
     36 O                    -0.085133
     37 O                     0.111076
     38 O                    -0.145329
     39 C                    -0.321159
     40 C                    -0.150802
     41 C                     0.347571
     42 C                    -0.333442
     43 C                    -0.350151
     44 C                     0.482187
     45 H                     0.203065
     46 H                     0.164342
     47 H                     0.159501
     48 H                     0.195135
     49 H                     0.089285
     50 H                     0.171353
     51 H                     0.176753
     52 H                     0.163246
     53 C                    -0.630011
     54 C                    -0.639954
     55 H                     0.190279
     56 H                     0.139807
     57 H                     0.174342
     58 H                     0.202924
     59 H                     0.213338
     60 H                     0.127348
  ----------------------------------------
  Sum of atomic charges =     0.000000

                    Cartesian Multipole Moments
 -----------------------------------------------------------------
    Charge (ESU x 10^10)
                 0.0000
    Dipole Moment (Debye)
         X       0.1967      Y      -0.0687      Z       0.1798
       Tot       0.2752
    Quadrupole Moments (Debye-Ang)
        XX    -194.7440     XY      -1.4554     YY    -154.8916
        XZ      17.7863     YZ       1.7456     ZZ    -196.9683

 Total job time:  2364.39s(wall), 4706.52s(cpu)
        *  Thank you very much for using Q-Chem.  Have a nice day.  *
