 Q-Chem 5.0, Q-Chem, Inc., Pleasanton, CA (2017)
 Q-Chem 5.0.1 for Intel X86 EM64T Linux

User input:
--------------------------------------------------------------
$molecule
0  1
C        -0.54444000        -0.68370000        -0.06689000
C        -0.55709000        +0.71878000        +0.05493000
C        +0.74969000        -1.43776000        -0.09374000
C        +0.72843000        +1.48436000        +0.06598000
O        +1.53645000        -1.09176000        +0.94813000
O        +1.04702000        -2.28405000        -0.90088000
O        +1.53784000        +1.08301000        -0.93877000
O        +1.01035000        +2.37097000        +0.83478000
C        +2.83449000        +1.70121000        -0.99358000
C        +2.82316000        -1.73208000        +1.00475000
C        -1.74320000        -1.41616000        -0.12552000
C        -2.93952000        -0.70056000        -0.05285000
C        -2.95313000        +0.68255000        +0.06934000
C        -1.77161000        +1.42404000        +0.12810000
H        +2.73835000        +2.77989000        -1.12464000
H        +2.70778000        -2.81319000        +1.09555000
H        -3.90354000        +1.20325000        +0.11710000
H        +3.38998000        +1.50093000        -0.07544000
H        +3.33184000        +1.25269000        -1.85067000
H        +3.31095000        -1.32281000        +1.88650000
H        +3.39889000        -1.50934000        +0.10459000
H        -3.87892000        -1.24211000        -0.08988000
C        -1.83960000        +2.92746000        +0.24839000
C        -1.78103000        -2.92226000        -0.24590000
H        -1.39752000        -3.25223000        -1.21323000
H        -2.80572000        -3.28175000        -0.13627000
H        -1.16958000        -3.40777000        +0.51926000
H        -1.24214000        +3.42352000        -0.52065000
H        -1.45503000        +3.26427000        +1.21284000
H        -2.87211000        +3.26623000        +0.14638000
@C        -0.51072000        -1.11094000        +4.81433000
@C        -0.52337000        +0.29154000        +4.93615000
@C        +0.78341000        -1.86500000        +4.78748000
@C        +0.76215000        +1.05712000        +4.94720000
@O        +1.57017000        -1.51900000        +5.82935000
@O        +1.08074000        -2.71129000        +3.98034000
@O        +1.57156000        +0.65577000        +3.94245000
@O        +1.04407000        +1.94373000        +5.71600000
@C        +2.86821000        +1.27397000        +3.88764000
@C        +2.85688000        -2.15932000        +5.88597000
@C        -1.70948000        -1.84340000        +4.75570000
@C        -2.90580000        -1.12780000        +4.82837000
@C        -2.91941000        +0.25531000        +4.95056000
@C        -1.73789000        +0.99680000        +5.00932000
@H        +2.77207000        +2.35265000        +3.75658000
@H        +2.74150000        -3.24043000        +5.97677000
@H        -3.86982000        +0.77601000        +4.99832000
@H        +3.42370000        +1.07369000        +4.80578000
@H        +3.36556000        +0.82545000        +3.03055000
@H        +3.34467000        -1.75005000        +6.76772000
@H        +3.43261000        -1.93658000        +4.98581000
@H        -3.84520000        -1.66935000        +4.79134000
@C        -1.80588000        +2.50022000        +5.12961000
@C        -1.74731000        -3.34950000        +4.63532000
@H        -1.36380000        -3.67947000        +3.66799000
@H        -2.77200000        -3.70899000        +4.74495000
@H        -1.13586000        -3.83501000        +5.40048000
@H        -1.20842000        +2.99628000        +4.36057000
@H        -1.42131000        +2.83703000        +6.09406000
@H        -2.83839000        +2.83899000        +5.02760000
$end

$rem
JOBTYPE                   SP
METHOD                    B3LYP
DFT_D                     d3_op
BASIS                     6-311++G(d,p)
SYMMETRY                  False
THRESH                    12
SCF_CONVERGENCE           8
MAX_SUB_FILE_NUM          128
MEM_STATIC                400
MEM_TOTAL                 4000
$end
--------------------------------------------------------------

             Standard Nuclear Orientation (Angstroms)
    I     Atom           X                Y                Z
 ----------------------------------------------------------------
    1      C      -0.5444400000    -0.6837000000    -0.0668900000
    2      C      -0.5570900000     0.7187800000     0.0549300000
    3      C       0.7496900000    -1.4377600000    -0.0937400000
    4      C       0.7284300000     1.4843600000     0.0659800000
    5      O       1.5364500000    -1.0917600000     0.9481300000
    6      O       1.0470200000    -2.2840500000    -0.9008800000
    7      O       1.5378400000     1.0830100000    -0.9387700000
    8      O       1.0103500000     2.3709700000     0.8347800000
    9      C       2.8344900000     1.7012100000    -0.9935800000
   10      C       2.8231600000    -1.7320800000     1.0047500000
   11      C      -1.7432000000    -1.4161600000    -0.1255200000
   12      C      -2.9395200000    -0.7005600000    -0.0528500000
   13      C      -2.9531300000     0.6825500000     0.0693400000
   14      C      -1.7716100000     1.4240400000     0.1281000000
   15      H       2.7383500000     2.7798900000    -1.1246400000
   16      H       2.7077800000    -2.8131900000     1.0955500000
   17      H      -3.9035400000     1.2032500000     0.1171000000
   18      H       3.3899800000     1.5009300000    -0.0754400000
   19      H       3.3318400000     1.2526900000    -1.8506700000
   20      H       3.3109500000    -1.3228100000     1.8865000000
   21      H       3.3988900000    -1.5093400000     0.1045900000
   22      H      -3.8789200000    -1.2421100000    -0.0898800000
   23      C      -1.8396000000     2.9274600000     0.2483900000
   24      C      -1.7810300000    -2.9222600000    -0.2459000000
   25      H      -1.3975200000    -3.2522300000    -1.2132300000
   26      H      -2.8057200000    -3.2817500000    -0.1362700000
   27      H      -1.1695800000    -3.4077700000     0.5192600000
   28      H      -1.2421400000     3.4235200000    -0.5206500000
   29      H      -1.4550300000     3.2642700000     1.2128400000
   30      H      -2.8721100000     3.2662300000     0.1463800000
   31      GH     -0.5107200000    -1.1109400000     4.8143300000
   32      GH     -0.5233700000     0.2915400000     4.9361500000
   33      GH      0.7834100000    -1.8650000000     4.7874800000
   34      GH      0.7621500000     1.0571200000     4.9472000000
   35      GH      1.5701700000    -1.5190000000     5.8293500000
   36      GH      1.0807400000    -2.7112900000     3.9803400000
   37      GH      1.5715600000     0.6557700000     3.9424500000
   38      GH      1.0440700000     1.9437300000     5.7160000000
   39      GH      2.8682100000     1.2739700000     3.8876400000
   40      GH      2.8568800000    -2.1593200000     5.8859700000
   41      GH     -1.7094800000    -1.8434000000     4.7557000000
   42      GH     -2.9058000000    -1.1278000000     4.8283700000
   43      GH     -2.9194100000     0.2553100000     4.9505600000
   44      GH     -1.7378900000     0.9968000000     5.0093200000
   45      GH      2.7720700000     2.3526500000     3.7565800000
   46      GH      2.7415000000    -3.2404300000     5.9767700000
   47      GH     -3.8698200000     0.7760100000     4.9983200000
   48      GH      3.4237000000     1.0736900000     4.8057800000
   49      GH      3.3655600000     0.8254500000     3.0305500000
   50      GH      3.3446700000    -1.7500500000     6.7677200000
   51      GH      3.4326100000    -1.9365800000     4.9858100000
   52      GH     -3.8452000000    -1.6693500000     4.7913400000
   53      GH     -1.8058800000     2.5002200000     5.1296100000
   54      GH     -1.7473100000    -3.3495000000     4.6353200000
   55      GH     -1.3638000000    -3.6794700000     3.6679900000
   56      GH     -2.7720000000    -3.7089900000     4.7449500000
   57      GH     -1.1358600000    -3.8350100000     5.4004800000
   58      GH     -1.2084200000     2.9962800000     4.3605700000
   59      GH     -1.4213100000     2.8370300000     6.0940600000
   60      GH     -2.8383900000     2.8389900000     5.0276000000
 ----------------------------------------------------------------

   14    -766.8772827856      6.08E-09 Convergence criterion met
 Total energy in the final basis set = -766.87728279

                    Orbital Energies (a.u.)
 --------------------------------------------------------------

 Alpha MOs
 -- Occupied --
-19.176 -19.176 -19.119 -19.119 -10.311 -10.311 -10.232 -10.232
-10.205 -10.205 -10.201 -10.201 -10.187 -10.186 -10.171 -10.170
 -1.121  -1.114  -1.031  -1.030  -0.885  -0.807  -0.795  -0.747
 -0.734  -0.725  -0.675  -0.649  -0.620  -0.577  -0.565  -0.537
 -0.517  -0.515  -0.491  -0.489  -0.480  -0.477  -0.469  -0.442
 -0.434  -0.429  -0.420  -0.416  -0.411  -0.406  -0.396  -0.387
 -0.380  -0.373  -0.362  -0.359  -0.357  -0.321  -0.313  -0.293
 -0.292  -0.266  -0.253

          Ground-State Mulliken Net Atomic Charges

     Atom                 Charge (a.u.)
  ----------------------------------------
      1 C                     0.171972
      2 C                     0.464060
      3 C                    -0.478990
      4 C                    -0.878564
      5 O                     0.135878
      6 O                    -0.138127
      7 O                     0.093086
      8 O                    -0.079307
      9 C                    -0.160387
     10 C                    -0.342949
     11 C                     0.481470
     12 C                    -0.327274
     13 C                    -0.370647
     14 C                     0.321691
     15 H                     0.165140
     16 H                     0.194591
     17 H                     0.165712
     18 H                     0.181013
     19 H                     0.171307
     20 H                     0.101464
     21 H                     0.195250
     22 H                     0.164426
     23 C                    -0.643874
     24 C                    -0.625970
     25 H                     0.215381
     26 H                     0.130988
     27 H                     0.204662
     28 H                     0.174321
     29 H                     0.205077
     30 H                     0.139452
     31 GH                   -0.124402
     32 GH                    0.103717
     33 GH                    0.059326
     34 GH                   -0.086452
     35 GH                    0.000359
     36 GH                   -0.007765
     37 GH                   -0.020849
     38 GH                    0.000615
     39 GH                    0.012395
     40 GH                   -0.005493
     41 GH                    0.027336
     42 GH                    0.034480
     43 GH                   -0.026386
     44 GH                   -0.004823
     45 GH                   -0.001375
     46 GH                    0.000488
     47 GH                   -0.001611
     48 GH                    0.001964
     49 GH                    0.009605
     50 GH                   -0.000500
     51 GH                    0.004016
     52 GH                    0.000008
     53 GH                   -0.001094
     54 GH                    0.008670
     55 GH                   -0.009946
     56 GH                    0.000219
     57 GH                    0.000084
     58 GH                   -0.004855
     59 GH                   -0.000351
     60 GH                    0.001768
  ----------------------------------------
  Sum of atomic charges =     0.000000

                    Cartesian Multipole Moments
 -----------------------------------------------------------------
    Charge (ESU x 10^10)
                 0.0000
    Dipole Moment (Debye)
         X       0.0663      Y      -0.1075      Z       0.0856
       Tot       0.1526
    Quadrupole Moments (Debye-Ang)
        XX     -76.1937     XY      -0.0559     YY     -95.4453
        XZ       0.0619     YZ      -8.9392     ZZ     -99.4825

 Total job time:  2328.71s(wall), 4633.60s(cpu)
        *  Thank you very much for using Q-Chem.  Have a nice day.  *
