 Q-Chem 5.0, Q-Chem, Inc., Pleasanton, CA (2017)
 Q-Chem 5.0.1 for Intel X86 EM64T Linux

User input:
--------------------------------------------------------------
$molecule
0  1
--
0  1
C        +0.20238000        +1.04766000        +0.59128000
C        +0.63819000        -0.38392000        +1.03507000
C        +1.32502000        +1.40342000        -0.40773000
C        +2.63024000        +1.71632000        +0.35656000
C        +3.06844000        +0.28546000        +0.80025000
C        +1.92879000        -0.57154000        +0.20725000
O        +1.61715000        +0.12844000        -1.01410000
H        +3.36771000        +2.16806000        -0.30914000
H        +2.46905000        +2.39751000        +1.19495000
H        +4.02649000        +0.00980000        +0.35668000
H        +3.15140000        +0.17666000        +1.88393000
H        +1.05332000        +2.11810000        -1.18255000
H        +2.19020000        -1.60239000        -0.02473000
H        +0.81538000        -0.46660000        +2.10960000
H        -0.10758000        -1.13032000        +0.75591000
H        -0.76622000        +1.02844000        +0.08894000
H        +0.14243000        +1.75630000        +1.41989000
--
0  1
C        +0.24202000        +2.24318000        +4.40824000
C        +0.67783000        +0.81160000        +4.85203000
C        +1.36466000        +2.59894000        +3.40923000
C        +2.66988000        +2.91184000        +4.17352000
C        +3.10808000        +1.48098000        +4.61721000
C        +1.96843000        +0.62398000        +4.02421000
O        +1.65679000        +1.32396000        +2.80286000
H        +3.40735000        +3.36358000        +3.50782000
H        +2.50869000        +3.59303000        +5.01191000
H        +4.06613000        +1.20532000        +4.17364000
H        +3.19104000        +1.37218000        +5.70089000
H        +1.09296000        +3.31362000        +2.63441000
H        +2.22984000        -0.40687000        +3.79223000
H        +0.85502000        +0.72892000        +5.92656000
H        -0.06794000        +0.06520000        +4.57287000
H        -0.72658000        +2.22396000        +3.90590000
H        +0.18207000        +2.95182000        +5.23685000
$end

$rem
JOBTYPE                   SP
METHOD                    B3LYP
DFT_D                     d3_op
BASIS                     6-311++G(d,p)
SYMMETRY                  False
THRESH                    12
SCF_CONVERGENCE           8
MAX_SUB_FILE_NUM          128
MEM_STATIC                400
MEM_TOTAL                 4000
$end
--------------------------------------------------------------

             Standard Nuclear Orientation (Angstroms)
    I     Atom           X                Y                Z
 ----------------------------------------------------------------
    1      C      -1.5360716060    -1.2641673310     0.7815092231
    2      C      -1.5362371363    -1.2659784030    -0.7793552519
    3      C      -2.3718245116     0.0003886601     1.0770121051
    4      C      -1.5360041906     1.2650031254     0.7807022883
    5      C      -1.5360261298     1.2656859533    -0.7801436135
    6      C      -2.3694110200     0.0000744149    -1.0777963994
    7      O      -3.3286836100    -0.0003056138    -0.0014213412
    8      H      -2.0288443250     2.1542831750     1.1774101327
    9      H      -0.5339593176     1.2126663497     1.2120568509
   10      H      -2.0321690006     2.1535334928    -1.1753291161
   11      H      -0.5336612394     1.2158230552    -1.2112589832
   12      H      -2.9002188979     0.0007435983     2.0287125156
   13      H      -2.8963436185    -0.0002830016    -2.0302372322
   14      H      -0.5338576301    -1.2176310593    -1.2103365270
   15      H      -2.0331695825    -2.1534134497    -1.1752508698
   16      H      -2.0307913888    -2.1522901966     1.1782345137
   17      H      -0.5341459555    -1.2111547487     1.2124313057
   18      C       2.4639312607    -1.2643847689     0.7812635945
   19      C       2.4637657305    -1.2661958409    -0.7796008804
   20      C       1.6281783551     0.0001712222     1.0767664765
   21      C       2.4639986761     1.2647856875     0.7804566597
   22      C       2.4639767370     1.2654685155    -0.7803892420
   23      C       1.6305918468    -0.0001430230    -1.0780420280
   24      O       0.6713192567    -0.0005230517    -0.0016669697
   25      H       1.9711585417     2.1540657371     1.1771645041
   26      H       3.4660435491     1.2124489118     1.2118112224
   27      H       1.9678338662     2.1533160549    -1.1755747447
   28      H       3.4663416273     1.2156056173    -1.2115046117
   29      H       1.0997839689     0.0005261604     2.0284668871
   30      H       1.1036592482    -0.0005004394    -2.0304828607
   31      H       3.4661452366    -1.2178484972    -1.2105821555
   32      H       1.9668332842    -2.1536308876    -1.1754964984
   33      H       1.9692114780    -2.1525076345     1.1779888852
   34      H       3.4658569112    -1.2113721866     1.2121856771
 ----------------------------------------------------------------

   13    -619.9162498213      6.49E-09 Convergence criterion met
 Total energy in the final basis set = -619.91624982

                    Orbital Energies (a.u.)
 --------------------------------------------------------------

 Alpha MOs
 -- Occupied --
-19.126 -19.102 -10.231 -10.231 -10.202 -10.202 -10.180 -10.180
-10.180 -10.180 -10.149 -10.149 -10.149 -10.149  -1.064  -1.030
 -0.812  -0.778  -0.762  -0.760  -0.732  -0.728  -0.623  -0.594
 -0.590  -0.585  -0.558  -0.551  -0.539  -0.508  -0.497  -0.482
 -0.457  -0.445  -0.432  -0.418  -0.403  -0.401  -0.391  -0.380
 -0.372  -0.371  -0.355  -0.354  -0.347  -0.343  -0.339  -0.328
 -0.318  -0.317  -0.300  -0.289  -0.276  -0.244

          Ground-State Mulliken Net Atomic Charges

     Atom                 Charge (a.u.)
  ----------------------------------------
      1 C                    -0.203209
      2 C                    -0.207992
      3 C                    -0.254822
      4 C                    -0.203754
      5 C                    -0.206709
      6 C                    -0.255135
      7 O                    -0.160036
      8 H                     0.189410
      9 H                     0.069425
     10 H                     0.189968
     11 H                     0.070725
     12 H                     0.214817
     13 H                     0.214415
     14 H                     0.070957
     15 H                     0.189857
     16 H                     0.189576
     17 H                     0.069142
     18 C                    -0.508387
     19 C                    -0.511979
     20 C                     0.207214
     21 C                    -0.509253
     22 C                    -0.511616
     23 C                     0.210314
     24 O                     0.010903
     25 H                     0.162090
     26 H                     0.139516
     27 H                     0.161902
     28 H                     0.139689
     29 H                     0.215196
     30 H                     0.214760
     31 H                     0.139613
     32 H                     0.161860
     33 H                     0.161959
     34 H                     0.139586
  ----------------------------------------
  Sum of atomic charges =    -0.000000

                    Cartesian Multipole Moments
 -----------------------------------------------------------------
    Charge (ESU x 10^10)
                -0.0000
    Dipole Moment (Debye)
         X       4.5760      Y       0.0032      Z       0.0018
       Tot       4.5760
    Quadrupole Moments (Debye-Ang)
        XX     -95.9392     XY       0.0035     YY     -87.8438
        XZ      -0.0079     YZ       0.0057     ZZ     -83.2237

 Total job time:  157.88s(wall), 623.39s(cpu)
        *  Thank you very much for using Q-Chem.  Have a nice day.  *
