 Q-Chem 5.0, Q-Chem, Inc., Pleasanton, CA (2017)
 Q-Chem 5.0.1 for Intel X86 EM64T Linux

User input:
--------------------------------------------------------------
$molecule
0  1
C        +0.24202000        +2.24318000        +4.40824000
C        +0.67783000        +0.81160000        +4.85203000
C        +1.36466000        +2.59894000        +3.40923000
C        +2.66988000        +2.91184000        +4.17352000
C        +3.10808000        +1.48098000        +4.61721000
C        +1.96843000        +0.62398000        +4.02421000
O        +1.65679000        +1.32396000        +2.80286000
H        +3.40735000        +3.36358000        +3.50782000
H        +2.50869000        +3.59303000        +5.01191000
H        +4.06613000        +1.20532000        +4.17364000
H        +3.19104000        +1.37218000        +5.70089000
H        +1.09296000        +3.31362000        +2.63441000
H        +2.22984000        -0.40687000        +3.79223000
H        +0.85502000        +0.72892000        +5.92656000
H        -0.06794000        +0.06520000        +4.57287000
H        -0.72658000        +2.22396000        +3.90590000
H        +0.18207000        +2.95182000        +5.23685000
@C        +0.20238000        +1.04766000        +0.59128000
@C        +0.63819000        -0.38392000        +1.03507000
@C        +1.32502000        +1.40342000        -0.40773000
@C        +2.63024000        +1.71632000        +0.35656000
@C        +3.06844000        +0.28546000        +0.80025000
@C        +1.92879000        -0.57154000        +0.20725000
@O        +1.61715000        +0.12844000        -1.01410000
@H        +3.36771000        +2.16806000        -0.30914000
@H        +2.46905000        +2.39751000        +1.19495000
@H        +4.02649000        +0.00980000        +0.35668000
@H        +3.15140000        +0.17666000        +1.88393000
@H        +1.05332000        +2.11810000        -1.18255000
@H        +2.19020000        -1.60239000        -0.02473000
@H        +0.81538000        -0.46660000        +2.10960000
@H        -0.10758000        -1.13032000        +0.75591000
@H        -0.76622000        +1.02844000        +0.08894000
@H        +0.14243000        +1.75630000        +1.41989000
$end

$rem
JOBTYPE                   SP
METHOD                    B3LYP
DFT_D                     d3_op
BASIS                     6-311++G(d,p)
SYMMETRY                  False
THRESH                    12
SCF_CONVERGENCE           8
MAX_SUB_FILE_NUM          128
MEM_STATIC                400
MEM_TOTAL                 4000
$end
--------------------------------------------------------------

             Standard Nuclear Orientation (Angstroms)
    I     Atom           X                Y                Z
 ----------------------------------------------------------------
    1      C       0.2420200000     2.2431800000     4.4082400000
    2      C       0.6778300000     0.8116000000     4.8520300000
    3      C       1.3646600000     2.5989400000     3.4092300000
    4      C       2.6698800000     2.9118400000     4.1735200000
    5      C       3.1080800000     1.4809800000     4.6172100000
    6      C       1.9684300000     0.6239800000     4.0242100000
    7      O       1.6567900000     1.3239600000     2.8028600000
    8      H       3.4073500000     3.3635800000     3.5078200000
    9      H       2.5086900000     3.5930300000     5.0119100000
   10      H       4.0661300000     1.2053200000     4.1736400000
   11      H       3.1910400000     1.3721800000     5.7008900000
   12      H       1.0929600000     3.3136200000     2.6344100000
   13      H       2.2298400000    -0.4068700000     3.7922300000
   14      H       0.8550200000     0.7289200000     5.9265600000
   15      H      -0.0679400000     0.0652000000     4.5728700000
   16      H      -0.7265800000     2.2239600000     3.9059000000
   17      H       0.1820700000     2.9518200000     5.2368500000
   18      GH      0.2023800000     1.0476600000     0.5912800000
   19      GH      0.6381900000    -0.3839200000     1.0350700000
   20      GH      1.3250200000     1.4034200000    -0.4077300000
   21      GH      2.6302400000     1.7163200000     0.3565600000
   22      GH      3.0684400000     0.2854600000     0.8002500000
   23      GH      1.9287900000    -0.5715400000     0.2072500000
   24      GH      1.6171500000     0.1284400000    -1.0141000000
   25      GH      3.3677100000     2.1680600000    -0.3091400000
   26      GH      2.4690500000     2.3975100000     1.1949500000
   27      GH      4.0264900000     0.0098000000     0.3566800000
   28      GH      3.1514000000     0.1766600000     1.8839300000
   29      GH      1.0533200000     2.1181000000    -1.1825500000
   30      GH      2.1902000000    -1.6023900000    -0.0247300000
   31      GH      0.8153800000    -0.4666000000     2.1096000000
   32      GH     -0.1075800000    -1.1303200000     0.7559100000
   33      GH     -0.7662200000     1.0284400000     0.0889400000
   34      GH      0.1424300000     1.7563000000     1.4198900000
 ----------------------------------------------------------------

   11    -309.9690109418      9.78E-09 Convergence criterion met
 Total energy in the final basis set = -309.96901094

                    Orbital Energies (a.u.)
 --------------------------------------------------------------

 Alpha MOs
 -- Occupied --
-19.118 -10.219 -10.219 -10.170 -10.170 -10.170 -10.170  -1.046
 -0.798  -0.751  -0.745  -0.612  -0.572  -0.571  -0.524  -0.478
 -0.468  -0.418  -0.408  -0.388  -0.367  -0.361  -0.348  -0.342
 -0.323  -0.306  -0.263

          Ground-State Mulliken Net Atomic Charges

     Atom                 Charge (a.u.)
  ----------------------------------------
      1 C                    -0.520925
      2 C                    -0.528257
      3 C                     0.310272
      4 C                    -0.523357
      5 C                    -0.525820
      6 C                     0.315678
      7 O                     0.008723
      8 H                     0.155301
      9 H                     0.133761
     10 H                     0.155050
     11 H                     0.133672
     12 H                     0.198878
     13 H                     0.198272
     14 H                     0.133600
     15 H                     0.155250
     16 H                     0.154522
     17 H                     0.133512
     18 GH                    0.016475
     19 GH                    0.016050
     20 GH                   -0.016389
     21 GH                    0.015139
     22 GH                    0.016760
     23 GH                   -0.018581
     24 GH                    0.002316
     25 GH                   -0.002000
     26 GH                   -0.029752
     27 GH                   -0.001819
     28 GH                   -0.028140
     29 GH                    0.002198
     30 GH                    0.001948
     31 GH                   -0.028344
     32 GH                   -0.001856
     33 GH                   -0.001900
     34 GH                   -0.030236
  ----------------------------------------
  Sum of atomic charges =     0.000000

                    Cartesian Multipole Moments
 -----------------------------------------------------------------
    Charge (ESU x 10^10)
                 0.0000
    Dipole Moment (Debye)
         X       0.0192      Y       0.5216      Z       1.6585
       Tot       1.7387
    Quadrupole Moments (Debye-Ang)
        XX     -43.1242     XY       0.3282     YY     -40.0533
        XZ       2.9882     YZ       3.2897     ZZ     -33.2236

 Total job time:  140.47s(wall), 558.93s(cpu)
        *  Thank you very much for using Q-Chem.  Have a nice day.  *
