 Q-Chem 5.0, Q-Chem, Inc., Pleasanton, CA (2017)
 Q-Chem 5.0.1 for Intel X86 EM64T Linux

User input:
--------------------------------------------------------------
$molecule
0  1
C        +0.22270000        +1.04488000        +0.58595000
C        +0.62626000        -0.41353000        +0.99871000
C        +1.33008000        +1.39974000        -0.43491000
C        +2.63070000        +1.71700000        +0.32855000
C        +3.04336000        +0.29351000        +0.80300000
C        +1.94423000        -0.59299000        +0.15262000
O        +1.62840000        +0.13663000        -1.04376000
H        +3.37234000        +2.13782000        -0.35195000
H        +2.48236000        +2.42488000        +1.14651000
H        +4.02182000        +0.00994000        +0.41161000
H        +3.07359000        +0.18738000        +1.88928000
H        +1.03270000        +2.19943000        -1.08064000
H        +2.24339000        -1.61496000        +0.04786000
H        +0.81693000        -0.48905000        +2.04887000
H        -0.12524000        -1.15356000        +0.81843000
H        -0.74673000        +1.06811000        +0.13365000
H        +0.15552000        +1.72617000        +1.40828000
@C        +3.74439000        +3.09506000        +3.81619000
@C        +4.14795000        +1.63665000        +4.22895000
@C        +4.85177000        +3.44992000        +2.79533000
@C        +6.15239000        +3.76718000        +3.55879000
@C        +6.56505000        +2.34369000        +4.03324000
@C        +5.46592000        +1.45719000        +3.38286000
@O        +5.15009000        +2.18681000        +2.18648000
@H        +6.89403000        +4.18800000        +2.87829000
@H        +6.00405000        +4.47506000        +4.37675000
@H        +7.54351000        +2.06012000        +3.64185000
@H        +6.59528000        +2.23756000        +5.11952000
@H        +4.55439000        +4.24961000        +2.14960000
@H        +5.76508000        +0.43522000        +3.27810000
@H        +4.33862000        +1.56113000        +5.27911000
@H        +3.39645000        +0.89662000        +4.04867000
@H        +2.77496000        +3.11829000        +3.36389000
@H        +3.67721000        +3.77635000        +4.63852000
$end

$rem
JOBTYPE                   SP
METHOD                    B3LYP
DFT_D                     d3_op
BASIS                     6-311++G(d,p)
SYMMETRY                  False
THRESH                    12
SCF_CONVERGENCE           8
MAX_SUB_FILE_NUM          128
MEM_STATIC                400
MEM_TOTAL                 4000
$end
--------------------------------------------------------------

             Standard Nuclear Orientation (Angstroms)
    I     Atom           X                Y                Z
 ----------------------------------------------------------------
    1      C       0.2227000000     1.0448800000     0.5859500000
    2      C       0.6262600000    -0.4135300000     0.9987100000
    3      C       1.3300800000     1.3997400000    -0.4349100000
    4      C       2.6307000000     1.7170000000     0.3285500000
    5      C       3.0433600000     0.2935100000     0.8030000000
    6      C       1.9442300000    -0.5929900000     0.1526200000
    7      O       1.6284000000     0.1366300000    -1.0437600000
    8      H       3.3723400000     2.1378200000    -0.3519500000
    9      H       2.4823600000     2.4248800000     1.1465100000
   10      H       4.0218200000     0.0099400000     0.4116100000
   11      H       3.0735900000     0.1873800000     1.8892800000
   12      H       1.0327000000     2.1994300000    -1.0806400000
   13      H       2.2433900000    -1.6149600000     0.0478600000
   14      H       0.8169300000    -0.4890500000     2.0488700000
   15      H      -0.1252400000    -1.1535600000     0.8184300000
   16      H      -0.7467300000     1.0681100000     0.1336500000
   17      H       0.1555200000     1.7261700000     1.4082800000
   18      GH      3.7443900000     3.0950600000     3.8161900000
   19      GH      4.1479500000     1.6366500000     4.2289500000
   20      GH      4.8517700000     3.4499200000     2.7953300000
   21      GH      6.1523900000     3.7671800000     3.5587900000
   22      GH      6.5650500000     2.3436900000     4.0332400000
   23      GH      5.4659200000     1.4571900000     3.3828600000
   24      GH      5.1500900000     2.1868100000     2.1864800000
   25      GH      6.8940300000     4.1880000000     2.8782900000
   26      GH      6.0040500000     4.4750600000     4.3767500000
   27      GH      7.5435100000     2.0601200000     3.6418500000
   28      GH      6.5952800000     2.2375600000     5.1195200000
   29      GH      4.5543900000     4.2496100000     2.1496000000
   30      GH      5.7650800000     0.4352200000     3.2781000000
   31      GH      4.3386200000     1.5611300000     5.2791100000
   32      GH      3.3964500000     0.8966200000     4.0486700000
   33      GH      2.7749600000     3.1182900000     3.3638900000
   34      GH      3.6772100000     3.7763500000     4.6385200000
 ----------------------------------------------------------------

   12    -309.9597158730      6.26E-09 Convergence criterion met
 Total energy in the final basis set = -309.95971587

                    Orbital Energies (a.u.)
 --------------------------------------------------------------

 Alpha MOs
 -- Occupied --
-19.123 -10.221 -10.218 -10.168 -10.167 -10.165 -10.163  -1.050
 -0.798  -0.749  -0.747  -0.614  -0.578  -0.574  -0.527  -0.478
 -0.465  -0.431  -0.406  -0.395  -0.364  -0.360  -0.351  -0.339
 -0.317  -0.304  -0.264

          Ground-State Mulliken Net Atomic Charges

     Atom                 Charge (a.u.)
  ----------------------------------------
      1 C                    -0.451512
      2 C                    -0.431934
      3 C                     0.032494
      4 C                    -0.326864
      5 C                    -0.270128
      6 C                     0.001687
      7 O                    -0.129104
      8 H                     0.188625
      9 H                     0.076018
     10 H                     0.179834
     11 H                     0.068730
     12 H                     0.231508
     13 H                     0.232963
     14 H                     0.105749
     15 H                     0.181310
     16 H                     0.173843
     17 H                     0.113535
     18 GH                   -0.002092
     19 GH                    0.008380
     20 GH                   -0.013319
     21 GH                    0.001314
     22 GH                   -0.005397
     23 GH                   -0.013728
     24 GH                    0.019045
     25 GH                   -0.000415
     26 GH                    0.000399
     27 GH                   -0.000283
     28 GH                    0.000179
     29 GH                    0.003640
     30 GH                    0.004015
     31 GH                   -0.001142
     32 GH                    0.013021
     33 GH                    0.011251
     34 GH                   -0.001624
  ----------------------------------------
  Sum of atomic charges =    -0.000000

                    Cartesian Multipole Moments
 -----------------------------------------------------------------
    Charge (ESU x 10^10)
                -0.0000
    Dipole Moment (Debye)
         X      -0.0157      Y       0.5157      Z       1.7188
       Tot       1.7946
    Quadrupole Moments (Debye-Ang)
        XX     -43.2409     XY      -0.0595     YY     -40.6253
        XZ       2.7770     YZ      -0.8607     ZZ     -46.2312

 Total job time:  135.20s(wall), 537.86s(cpu)
        *  Thank you very much for using Q-Chem.  Have a nice day.  *
