 Q-Chem 5.0, Q-Chem, Inc., Pleasanton, CA (2017)
 Q-Chem 5.0.1 for Intel X86 EM64T Linux

User input:
--------------------------------------------------------------
$molecule
0  1
--
0  1
C        +0.22270000        +1.04488000        +0.58595000
C        +0.62626000        -0.41353000        +0.99871000
C        +1.33008000        +1.39974000        -0.43491000
C        +2.63070000        +1.71700000        +0.32855000
C        +3.04336000        +0.29351000        +0.80300000
C        +1.94423000        -0.59299000        +0.15262000
O        +1.62840000        +0.13663000        -1.04376000
H        +3.37234000        +2.13782000        -0.35195000
H        +2.48236000        +2.42488000        +1.14651000
H        +4.02182000        +0.00994000        +0.41161000
H        +3.07359000        +0.18738000        +1.88928000
H        +1.03270000        +2.19943000        -1.08064000
H        +2.24339000        -1.61496000        +0.04786000
H        +0.81693000        -0.48905000        +2.04887000
H        -0.12524000        -1.15356000        +0.81843000
H        -0.74673000        +1.06811000        +0.13365000
H        +0.15552000        +1.72617000        +1.40828000
--
0  1
C        +3.74439000        +3.09506000        +3.81619000
C        +4.14795000        +1.63665000        +4.22895000
C        +4.85177000        +3.44992000        +2.79533000
C        +6.15239000        +3.76718000        +3.55879000
C        +6.56505000        +2.34369000        +4.03324000
C        +5.46592000        +1.45719000        +3.38286000
O        +5.15009000        +2.18681000        +2.18648000
H        +6.89403000        +4.18800000        +2.87829000
H        +6.00405000        +4.47506000        +4.37675000
H        +7.54351000        +2.06012000        +3.64185000
H        +6.59528000        +2.23756000        +5.11952000
H        +4.55439000        +4.24961000        +2.14960000
H        +5.76508000        +0.43522000        +3.27810000
H        +4.33862000        +1.56113000        +5.27911000
H        +3.39645000        +0.89662000        +4.04867000
H        +2.77496000        +3.11829000        +3.36389000
H        +3.67721000        +3.77635000        +4.63852000
$end

$rem
JOBTYPE                   SP
METHOD                    B3LYP
DFT_D                     d3_op
BASIS                     6-311++G(d,p)
SYMMETRY                  False
THRESH                    12
SCF_CONVERGENCE           8
MAX_SUB_FILE_NUM          128
MEM_STATIC                400
MEM_TOTAL                 4000
$end
--------------------------------------------------------------

             Standard Nuclear Orientation (Angstroms)
    I     Atom           X                Y                Z
 ----------------------------------------------------------------
    1      C       3.1798703393    -0.5315799247     1.2290445069
    2      C       3.2278954949     1.0012606900     0.8999784749
    3      C       2.8596816585    -1.1401104944    -0.1571520802
    4      C       1.3675316726    -0.9142877786    -0.4696100519
    5      C       1.3590342233     0.6154733042    -0.7550460010
    6      C       2.8671854562     0.9730755232    -0.6343659991
    7      O       3.5063077537    -0.2389929073    -1.0654481796
    8      H       1.0789104057    -1.4835598394    -1.3543849934
    9      H       0.7111743968    -1.2097769354     0.3513885452
   10      H       1.0112071163     0.8312031853    -1.7667074912
   11      H       0.7400712957     1.1856570677    -0.0593757930
   12      H       3.1339419490    -2.1730288978    -0.2097549171
   13      H       3.1212542785     1.8783923128    -1.1449975571
   14      H       2.5049428393     1.5503310491     1.4663313186
   15      H       4.1562507834     1.4797895412     1.1324954126
   16      H       4.1208067296    -0.8804900641     1.6002720274
   17      H       2.4741875230    -0.7904521026     1.9905514364
   18      C      -2.0153297501    -0.4759914053     1.4453657791
   19      C      -1.9673045946     1.0568492095     1.1162997472
   20      C      -2.3355184310    -1.0845219750     0.0591691920
   21      C      -3.8276684169    -0.8586992592    -0.2532887796
   22      C      -3.8361658662     0.6710618236    -0.5387247288
   23      C      -2.3280146333     1.0286640426    -0.4180447268
   24      O      -1.6888923358    -0.1834043879    -0.8491269074
   25      H      -4.1162896837    -1.4279713200    -1.1380637211
   26      H      -4.4840256927    -1.1541884160     0.5677098174
   27      H      -4.1839929732     0.8867917047    -1.5503862189
   28      H      -4.4551287938     1.2412455872     0.1569454792
   29      H      -2.0612581405    -2.1174403784     0.0065663551
   30      H      -2.0739458110     1.9339808322    -0.9286762848
   31      H      -2.6902572502     1.6059195685     1.6826525908
   32      H      -1.0389493061     1.5353780606     1.3488166849
   33      H      -1.0743933599    -0.8249015447     1.8165932996
   34      H      -2.7210125665    -0.7348635832     2.2068727086
 ----------------------------------------------------------------

   13    -619.9219222899      6.42E-09 Convergence criterion met
 Total energy in the final basis set = -619.92192229

                    Orbital Energies (a.u.)
 --------------------------------------------------------------

 Alpha MOs
 -- Occupied --
-19.127 -19.115 -10.226 -10.223 -10.213 -10.210 -10.172 -10.171
-10.170 -10.169 -10.159 -10.157 -10.156 -10.155  -1.055  -1.042
 -0.802  -0.789  -0.754  -0.752  -0.739  -0.739  -0.619  -0.606
 -0.583  -0.578  -0.569  -0.565  -0.532  -0.518  -0.484  -0.472
 -0.466  -0.456  -0.435  -0.422  -0.411  -0.400  -0.396  -0.387
 -0.370  -0.364  -0.356  -0.355  -0.351  -0.344  -0.342  -0.330
 -0.322  -0.309  -0.308  -0.295  -0.269  -0.254

          Ground-State Mulliken Net Atomic Charges

     Atom                 Charge (a.u.)
  ----------------------------------------
      1 C                    -0.454571
      2 C                    -0.436489
      3 C                     0.024662
      4 C                    -0.303014
      5 C                    -0.256037
      6 C                    -0.018381
      7 O                    -0.133385
      8 H                     0.198574
      9 H                     0.058361
     10 H                     0.192912
     11 H                     0.045986
     12 H                     0.227090
     13 H                     0.228145
     14 H                     0.100079
     15 H                     0.177741
     16 H                     0.170972
     17 H                     0.108753
     18 C                    -0.326100
     19 C                    -0.367044
     20 C                     0.102930
     21 C                    -0.584820
     22 C                    -0.514858
     23 C                     0.139556
     24 O                    -0.000364
     25 H                     0.169393
     26 H                     0.126253
     27 H                     0.169494
     28 H                     0.124941
     29 H                     0.221805
     30 H                     0.227082
     31 H                     0.147769
     32 H                     0.142948
     33 H                     0.130320
     34 H                     0.159297
  ----------------------------------------
  Sum of atomic charges =     0.000000

                    Cartesian Multipole Moments
 -----------------------------------------------------------------
    Charge (ESU x 10^10)
                 0.0000
    Dipole Moment (Debye)
         X      -2.8891      Y       0.5225      Z       2.3593
       Tot       3.7665
    Quadrupole Moments (Debye-Ang)
        XX     -92.1556     XY       0.9941     YY     -81.6306
        XZ       3.8301     YZ      -2.2532     ZZ     -90.3294

 Total job time:  138.20s(wall), 549.93s(cpu)
        *  Thank you very much for using Q-Chem.  Have a nice day.  *
