 Q-Chem 5.0, Q-Chem, Inc., Pleasanton, CA (2017)
 Q-Chem 5.0.1 for Intel X86 EM64T Linux

User input:
--------------------------------------------------------------
$molecule
0  1
C        +0.22270000        +1.04488000        +0.58595000
C        +0.62626000        -0.41353000        +0.99871000
C        +1.33008000        +1.39974000        -0.43491000
C        +2.63070000        +1.71700000        +0.32855000
C        +3.04336000        +0.29351000        +0.80300000
C        +1.94423000        -0.59299000        +0.15262000
O        +1.62840000        +0.13663000        -1.04376000
H        +3.37234000        +2.13782000        -0.35195000
H        +2.48236000        +2.42488000        +1.14651000
H        +4.02182000        +0.00994000        +0.41161000
H        +3.07359000        +0.18738000        +1.88928000
H        +1.03270000        +2.19943000        -1.08064000
H        +2.24339000        -1.61496000        +0.04786000
H        +0.81693000        -0.48905000        +2.04887000
H        -0.12524000        -1.15356000        +0.81843000
H        -0.74673000        +1.06811000        +0.13365000
H        +0.15552000        +1.72617000        +1.40828000
@C        +2.93169000        +2.62194000        +3.07075000
@C        +3.33525000        +1.16353000        +3.48351000
@C        +4.03907000        +2.97680000        +2.04989000
@C        +5.33969000        +3.29406000        +2.81335000
@C        +5.75235000        +1.87057000        +3.28780000
@C        +4.65322000        +0.98407000        +2.63742000
@O        +4.33739000        +1.71369000        +1.44104000
@H        +6.08133000        +3.71488000        +2.13285000
@H        +5.19135000        +4.00194000        +3.63131000
@H        +6.73081000        +1.58700000        +2.89641000
@H        +5.78258000        +1.76444000        +4.37408000
@H        +3.74169000        +3.77649000        +1.40416000
@H        +4.95238000        -0.03790000        +2.53266000
@H        +3.52592000        +1.08801000        +4.53367000
@H        +2.58375000        +0.42350000        +3.30323000
@H        +1.96226000        +2.64517000        +2.61845000
@H        +2.86451000        +3.30323000        +3.89308000
$end

$rem
JOBTYPE                   SP
METHOD                    B3LYP
DFT_D                     d3_op
BASIS                     6-311++G(d,p)
SYMMETRY                  False
THRESH                    12
SCF_CONVERGENCE           8
MAX_SUB_FILE_NUM          128
MEM_STATIC                400
MEM_TOTAL                 4000
$end
--------------------------------------------------------------

             Standard Nuclear Orientation (Angstroms)
    I     Atom           X                Y                Z
 ----------------------------------------------------------------
    1      C       0.2227000000     1.0448800000     0.5859500000
    2      C       0.6262600000    -0.4135300000     0.9987100000
    3      C       1.3300800000     1.3997400000    -0.4349100000
    4      C       2.6307000000     1.7170000000     0.3285500000
    5      C       3.0433600000     0.2935100000     0.8030000000
    6      C       1.9442300000    -0.5929900000     0.1526200000
    7      O       1.6284000000     0.1366300000    -1.0437600000
    8      H       3.3723400000     2.1378200000    -0.3519500000
    9      H       2.4823600000     2.4248800000     1.1465100000
   10      H       4.0218200000     0.0099400000     0.4116100000
   11      H       3.0735900000     0.1873800000     1.8892800000
   12      H       1.0327000000     2.1994300000    -1.0806400000
   13      H       2.2433900000    -1.6149600000     0.0478600000
   14      H       0.8169300000    -0.4890500000     2.0488700000
   15      H      -0.1252400000    -1.1535600000     0.8184300000
   16      H      -0.7467300000     1.0681100000     0.1336500000
   17      H       0.1555200000     1.7261700000     1.4082800000
   18      GH      2.9316900000     2.6219400000     3.0707500000
   19      GH      3.3352500000     1.1635300000     3.4835100000
   20      GH      4.0390700000     2.9768000000     2.0498900000
   21      GH      5.3396900000     3.2940600000     2.8133500000
   22      GH      5.7523500000     1.8705700000     3.2878000000
   23      GH      4.6532200000     0.9840700000     2.6374200000
   24      GH      4.3373900000     1.7136900000     1.4410400000
   25      GH      6.0813300000     3.7148800000     2.1328500000
   26      GH      5.1913500000     4.0019400000     3.6313100000
   27      GH      6.7308100000     1.5870000000     2.8964100000
   28      GH      5.7825800000     1.7644400000     4.3740800000
   29      GH      3.7416900000     3.7764900000     1.4041600000
   30      GH      4.9523800000    -0.0379000000     2.5326600000
   31      GH      3.5259200000     1.0880100000     4.5336700000
   32      GH      2.5837500000     0.4235000000     3.3032300000
   33      GH      1.9622600000     2.6451700000     2.6184500000
   34      GH      2.8645100000     3.3032300000     3.8930800000
 ----------------------------------------------------------------

   12    -309.9600588775      6.42E-09 Convergence criterion met
 Total energy in the final basis set = -309.96005888

                    Orbital Energies (a.u.)
 --------------------------------------------------------------

 Alpha MOs
 -- Occupied --
-19.123 -10.221 -10.218 -10.168 -10.167 -10.165 -10.163  -1.050
 -0.798  -0.749  -0.747  -0.614  -0.578  -0.574  -0.527  -0.478
 -0.465  -0.431  -0.406  -0.395  -0.364  -0.360  -0.351  -0.339
 -0.317  -0.304  -0.264

          Ground-State Mulliken Net Atomic Charges

     Atom                 Charge (a.u.)
  ----------------------------------------
      1 C                    -0.322055
      2 C                    -0.337884
      3 C                    -0.223619
      4 C                    -0.202446
      5 C                    -0.222677
      6 C                    -0.196057
      7 O                    -0.109832
      8 H                     0.196983
      9 H                     0.056462
     10 H                     0.193940
     11 H                     0.055969
     12 H                     0.227489
     13 H                     0.224771
     14 H                     0.096410
     15 H                     0.192771
     16 H                     0.184141
     17 H                     0.109780
     18 GH                   -0.024018
     19 GH                   -0.017934
     20 GH                    0.004627
     21 GH                    0.011698
     22 GH                   -0.000037
     23 GH                    0.010328
     24 GH                    0.044400
     25 GH                   -0.000129
     26 GH                    0.000640
     27 GH                    0.000020
     28 GH                    0.000559
     29 GH                    0.007402
     30 GH                    0.005582
     31 GH                   -0.002307
     32 GH                    0.025672
     33 GH                    0.010230
     34 GH                   -0.000877
  ----------------------------------------
  Sum of atomic charges =    -0.000000

                    Cartesian Multipole Moments
 -----------------------------------------------------------------
    Charge (ESU x 10^10)
                -0.0000
    Dipole Moment (Debye)
         X      -0.0145      Y       0.5148      Z       1.7143
       Tot       1.7900
    Quadrupole Moments (Debye-Ang)
        XX     -43.2368     XY      -0.0519     YY     -40.6357
        XZ       2.7816     YZ      -0.8463     ZZ     -46.2068

 Total job time:  172.84s(wall), 687.36s(cpu)
        *  Thank you very much for using Q-Chem.  Have a nice day.  *
