 Q-Chem 5.0, Q-Chem, Inc., Pleasanton, CA (2017)
 Q-Chem 5.0.1 for Intel X86 EM64T Linux

User input:
--------------------------------------------------------------
$molecule
0  1
--
0  1
C        +0.22270000        +1.04488000        +0.58595000
C        +0.62626000        -0.41353000        +0.99871000
C        +1.33008000        +1.39974000        -0.43491000
C        +2.63070000        +1.71700000        +0.32855000
C        +3.04336000        +0.29351000        +0.80300000
C        +1.94423000        -0.59299000        +0.15262000
O        +1.62840000        +0.13663000        -1.04376000
H        +3.37234000        +2.13782000        -0.35195000
H        +2.48236000        +2.42488000        +1.14651000
H        +4.02182000        +0.00994000        +0.41161000
H        +3.07359000        +0.18738000        +1.88928000
H        +1.03270000        +2.19943000        -1.08064000
H        +2.24339000        -1.61496000        +0.04786000
H        +0.81693000        -0.48905000        +2.04887000
H        -0.12524000        -1.15356000        +0.81843000
H        -0.74673000        +1.06811000        +0.13365000
H        +0.15552000        +1.72617000        +1.40828000
--
0  1
C        +2.93169000        +2.62194000        +3.07075000
C        +3.33525000        +1.16353000        +3.48351000
C        +4.03907000        +2.97680000        +2.04989000
C        +5.33969000        +3.29406000        +2.81335000
C        +5.75235000        +1.87057000        +3.28780000
C        +4.65322000        +0.98407000        +2.63742000
O        +4.33739000        +1.71369000        +1.44104000
H        +6.08133000        +3.71488000        +2.13285000
H        +5.19135000        +4.00194000        +3.63131000
H        +6.73081000        +1.58700000        +2.89641000
H        +5.78258000        +1.76444000        +4.37408000
H        +3.74169000        +3.77649000        +1.40416000
H        +4.95238000        -0.03790000        +2.53266000
H        +3.52592000        +1.08801000        +4.53367000
H        +2.58375000        +0.42350000        +3.30323000
H        +1.96226000        +2.64517000        +2.61845000
H        +2.86451000        +3.30323000        +3.89308000
$end

$rem
JOBTYPE                   SP
METHOD                    B3LYP
DFT_D                     d3_op
BASIS                     6-311++G(d,p)
SYMMETRY                  False
THRESH                    12
SCF_CONVERGENCE           8
MAX_SUB_FILE_NUM          128
MEM_STATIC                400
MEM_TOTAL                 4000
$end
--------------------------------------------------------------

             Standard Nuclear Orientation (Angstroms)
    I     Atom           X                Y                Z
 ----------------------------------------------------------------
    1      C       2.6112345315    -0.5938132231     1.1557461091
    2      C       2.6612085461     0.9512626913     0.8903516181
    3      C       2.2470605479    -1.1410827807    -0.2450552917
    4      C       0.7483080609    -0.8929733666    -0.5045165895
    5      C       0.7430079694     0.6475284778    -0.7248364361
    6      C       2.2566034025     0.9903331612    -0.6327659994
    7      O       2.8741363622    -0.2063300426    -1.1328352525
    8      H       0.4303069062    -1.4224554517    -1.4038071983
    9      H       0.1135042001    -1.2188947737     0.3218953575
   10      H       0.3680252716     0.9080706867    -1.7160416532
   11      H       0.1484236999     1.1915629906     0.0118301530
   12      H       2.5120345925    -2.1725278533    -0.3490553459
   13      H       2.5026872913     1.9148727968    -1.1118935668
   14      H       1.9588280404     1.4803260159     1.4999809880
   15      H       3.5993536409     1.4137435492     1.1159458701
   16      H       3.5597797638    -0.9639663418     1.4846200345
   17      H       1.9256983565    -0.8803252172     1.9257116118
   18      C      -1.3782569874    -0.5333426979     1.4390777871
   19      C      -1.3282829728     1.0117332165     1.1736832961
   20      C      -1.7424309710    -1.0806122555     0.0382763863
   21      C      -3.2411834580    -0.8325028414    -0.2211849115
   22      C      -3.2464835495     0.7079990029    -0.4415047581
   23      C      -1.7328881165     1.0508036864    -0.3494343213
   24      O      -1.1153551567    -0.1458595174    -0.8495035745
   25      H      -3.5591846127    -1.3619849265    -1.1204755203
   26      H      -3.8759873189    -1.1584242485     0.6052270356
   27      H      -3.6214662473     0.9685412119    -1.4327099752
   28      H      -3.8410678190     1.2520335158     0.2951618310
   29      H      -1.4774569264    -2.1120573281    -0.0657236679
   30      H      -1.4868042276     1.9753433220    -0.8285618888
   31      H      -2.0306634785     1.5407965411     1.7833126660
   32      H      -0.3901378780     1.4742140744     1.3992775481
   33      H      -0.4297117552    -0.9034958167     1.7679517125
   34      H      -2.0637931624    -0.8198546921     2.2090432898
 ----------------------------------------------------------------

   13    -619.7895173122      8.66E-09 Convergence criterion met
 Total energy in the final basis set = -619.78951731

                    Orbital Energies (a.u.)
 --------------------------------------------------------------

 Alpha MOs
 -- Occupied --
-19.127 -19.101 -10.233 -10.230 -10.193 -10.191 -10.179 -10.178
-10.177 -10.177 -10.151 -10.150 -10.137 -10.136  -1.078  -1.027
 -0.817  -0.786  -0.773  -0.763  -0.729  -0.725  -0.635  -0.611
 -0.596  -0.584  -0.579  -0.548  -0.535  -0.513  -0.506  -0.487
 -0.452  -0.448  -0.432  -0.418  -0.415  -0.408  -0.394  -0.392
 -0.376  -0.372  -0.358  -0.352  -0.348  -0.340  -0.332  -0.319
 -0.316  -0.307  -0.298  -0.281  -0.262  -0.220

          Ground-State Mulliken Net Atomic Charges

     Atom                 Charge (a.u.)
  ----------------------------------------
      1 C                    -0.312856
      2 C                    -0.322162
      3 C                    -0.282330
      4 C                    -0.144429
      5 C                    -0.219784
      6 C                    -0.284961
      7 O                    -0.122839
      8 H                     0.187513
      9 H                     0.075370
     10 H                     0.166811
     11 H                     0.071521
     12 H                     0.205220
     13 H                     0.202879
     14 H                     0.069824
     15 H                     0.186092
     16 H                     0.178329
     17 H                     0.088309
     18 C                    -0.435614
     19 C                    -0.424880
     20 C                     0.141243
     21 C                    -0.574601
     22 C                    -0.585918
     23 C                     0.200123
     24 O                     0.178201
     25 H                     0.168410
     26 H                     0.128212
     27 H                     0.174723
     28 H                     0.122486
     29 H                     0.235482
     30 H                     0.239859
     31 H                     0.182525
     32 H                     0.173607
     33 H                     0.143762
     34 H                     0.189871
  ----------------------------------------
  Sum of atomic charges =     0.000000

                    Cartesian Multipole Moments
 -----------------------------------------------------------------
    Charge (ESU x 10^10)
                 0.0000
    Dipole Moment (Debye)
         X      -3.9734      Y       0.4341      Z       2.4400
       Tot       4.6830
    Quadrupole Moments (Debye-Ang)
        XX     -93.7590     XY       0.8604     YY     -81.8488
        XZ       4.1479     YZ      -1.8231     ZZ     -90.8234

 Total job time:  195.21s(wall), 775.73s(cpu)
        *  Thank you very much for using Q-Chem.  Have a nice day.  *
