 Q-Chem 5.0, Q-Chem, Inc., Pleasanton, CA (2017)
 Q-Chem 5.0.1 for Intel X86 EM64T Linux

User input:
--------------------------------------------------------------
$molecule
0  1
C        +0.22270000        +1.04488000        +0.58595000
C        +0.62626000        -0.41353000        +0.99871000
C        +1.33008000        +1.39974000        -0.43491000
C        +2.63070000        +1.71700000        +0.32855000
C        +3.04336000        +0.29351000        +0.80300000
C        +1.94423000        -0.59299000        +0.15262000
O        +1.62840000        +0.13663000        -1.04376000
H        +3.37234000        +2.13782000        -0.35195000
H        +2.48236000        +2.42488000        +1.14651000
H        +4.02182000        +0.00994000        +0.41161000
H        +3.07359000        +0.18738000        +1.88928000
H        +1.03270000        +2.19943000        -1.08064000
C        +2.35450000        -2.01267000        -0.16812000
H        +3.25743000        -2.00195000        -0.74215000
H        +1.57951000        -2.48932000        -0.73123000
H        +2.51687000        -2.55129000        +0.74206000
H        -0.74673000        +1.06811000        +0.13365000
H        +0.15552000        +1.72617000        +1.40828000
H        +0.81693000        -0.48905000        +2.04887000
H        -0.12524000        -1.15356000        +0.81843000
@C        +3.11540000        +2.47067000        +2.95226000
@C        +3.51896000        +1.01226000        +3.36502000
@C        +4.22278000        +2.82553000        +1.93140000
@C        +5.52340000        +3.14279000        +2.69486000
@C        +5.93606000        +1.71930000        +3.16931000
@C        +4.83693000        +0.83280000        +2.51893000
@O        +4.52110000        +1.56242000        +1.32255000
@H        +6.26504000        +3.56361000        +2.01436000
@H        +5.37506000        +3.85067000        +3.51282000
@H        +6.91452000        +1.43573000        +2.77792000
@H        +5.96629000        +1.61317000        +4.25559000
@H        +3.92540000        +3.62522000        +1.28567000
@C        +5.24720000        -0.58688000        +2.19819000
@H        +6.15013000        -0.57616000        +1.62416000
@H        +4.47221000        -1.06353000        +1.63508000
@H        +5.40957000        -1.12550000        +3.10837000
@H        +2.14597000        +2.49390000        +2.49996000
@H        +3.04822000        +3.15196000        +3.77459000
@H        +3.70963000        +0.93674000        +4.41518000
@H        +2.76746000        +0.27223000        +3.18474000
$end

$rem
JOBTYPE                   SP
METHOD                    B3LYP
DFT_D                     d3_op
BASIS                     6-311++G(d,p)
SYMMETRY                  False
THRESH                    12
SCF_CONVERGENCE           8
MAX_SUB_FILE_NUM          128
MEM_STATIC                400
MEM_TOTAL                 4000
$end
--------------------------------------------------------------

             Standard Nuclear Orientation (Angstroms)
    I     Atom           X                Y                Z
 ----------------------------------------------------------------
    1      C       0.2227000000     1.0448800000     0.5859500000
    2      C       0.6262600000    -0.4135300000     0.9987100000
    3      C       1.3300800000     1.3997400000    -0.4349100000
    4      C       2.6307000000     1.7170000000     0.3285500000
    5      C       3.0433600000     0.2935100000     0.8030000000
    6      C       1.9442300000    -0.5929900000     0.1526200000
    7      O       1.6284000000     0.1366300000    -1.0437600000
    8      H       3.3723400000     2.1378200000    -0.3519500000
    9      H       2.4823600000     2.4248800000     1.1465100000
   10      H       4.0218200000     0.0099400000     0.4116100000
   11      H       3.0735900000     0.1873800000     1.8892800000
   12      H       1.0327000000     2.1994300000    -1.0806400000
   13      C       2.3545000000    -2.0126700000    -0.1681200000
   14      H       3.2574300000    -2.0019500000    -0.7421500000
   15      H       1.5795100000    -2.4893200000    -0.7312300000
   16      H       2.5168700000    -2.5512900000     0.7420600000
   17      H      -0.7467300000     1.0681100000     0.1336500000
   18      H       0.1555200000     1.7261700000     1.4082800000
   19      H       0.8169300000    -0.4890500000     2.0488700000
   20      H      -0.1252400000    -1.1535600000     0.8184300000
   21      GH      3.1154000000     2.4706700000     2.9522600000
   22      GH      3.5189600000     1.0122600000     3.3650200000
   23      GH      4.2227800000     2.8255300000     1.9314000000
   24      GH      5.5234000000     3.1427900000     2.6948600000
   25      GH      5.9360600000     1.7193000000     3.1693100000
   26      GH      4.8369300000     0.8328000000     2.5189300000
   27      GH      4.5211000000     1.5624200000     1.3225500000
   28      GH      6.2650400000     3.5636100000     2.0143600000
   29      GH      5.3750600000     3.8506700000     3.5128200000
   30      GH      6.9145200000     1.4357300000     2.7779200000
   31      GH      5.9662900000     1.6131700000     4.2555900000
   32      GH      3.9254000000     3.6252200000     1.2856700000
   33      GH      5.2472000000    -0.5868800000     2.1981900000
   34      GH      6.1501300000    -0.5761600000     1.6241600000
   35      GH      4.4722100000    -1.0635300000     1.6350800000
   36      GH      5.4095700000    -1.1255000000     3.1083700000
   37      GH      2.1459700000     2.4939000000     2.4999600000
   38      GH      3.0482200000     3.1519600000     3.7745900000
   39      GH      3.7096300000     0.9367400000     4.4151800000
   40      GH      2.7674600000     0.2722300000     3.1847400000
 ----------------------------------------------------------------

   13    -349.2966666007      2.64E-09 Convergence criterion met
 Total energy in the final basis set = -349.29666660

                    Orbital Energies (a.u.)
 --------------------------------------------------------------

 Alpha MOs
 -- Occupied --
-19.119 -10.225 -10.216 -10.166 -10.166 -10.163 -10.162 -10.154
 -1.049  -0.798  -0.775  -0.748  -0.684  -0.614  -0.575  -0.556
 -0.503  -0.482  -0.464  -0.440  -0.418  -0.405  -0.392  -0.377
 -0.360  -0.348  -0.344  -0.336  -0.316  -0.301  -0.262

          Ground-State Mulliken Net Atomic Charges

     Atom                 Charge (a.u.)
  ----------------------------------------
      1 C                    -0.494825
      2 C                    -0.097737
      3 C                    -0.020861
      4 C                    -0.220868
      5 C                    -0.354176
      6 C                    -0.249976
      7 O                    -0.000686
      8 H                     0.192112
      9 H                     0.085657
     10 H                     0.224352
     11 H                     0.022743
     12 H                     0.243177
     13 C                    -0.547972
     14 H                     0.150021
     15 H                     0.168313
     16 H                     0.158498
     17 H                     0.182515
     18 H                     0.121326
     19 H                     0.130182
     20 H                     0.178072
     21 GH                   -0.040942
     22 GH                    0.057982
     23 GH                   -0.034936
     24 GH                   -0.007503
     25 GH                   -0.001939
     26 GH                    0.082038
     27 GH                    0.059103
     28 GH                   -0.001365
     29 GH                    0.001326
     30 GH                    0.000654
     31 GH                   -0.000477
     32 GH                    0.007529
     33 GH                   -0.052979
     34 GH                   -0.000763
     35 GH                    0.035207
     36 GH                   -0.000908
     37 GH                    0.012562
     38 GH                   -0.003266
     39 GH                    0.003236
     40 GH                    0.015575
  ----------------------------------------
  Sum of atomic charges =     0.000000

                    Cartesian Multipole Moments
 -----------------------------------------------------------------
    Charge (ESU x 10^10)
                -0.0000
    Dipole Moment (Debye)
         X      -0.0033      Y       0.4030      Z       1.6113
       Tot       1.6609
    Quadrupole Moments (Debye-Ang)
        XX     -49.7798     XY      -0.0676     YY     -47.6252
        XZ       2.5709     YZ      -0.6649     ZZ     -52.6289

 Total job time:  289.68s(wall), 1150.88s(cpu)
        *  Thank you very much for using Q-Chem.  Have a nice day.  *
