 Q-Chem 5.0, Q-Chem, Inc., Pleasanton, CA (2017)
 Q-Chem 5.0.1 for Intel X86 EM64T Linux

User input:
--------------------------------------------------------------
$molecule
0  1
--
0  1
C        +0.22270000        +1.04488000        +0.58595000
C        +0.62626000        -0.41353000        +0.99871000
C        +1.33008000        +1.39974000        -0.43491000
C        +2.63070000        +1.71700000        +0.32855000
C        +3.04336000        +0.29351000        +0.80300000
C        +1.94423000        -0.59299000        +0.15262000
O        +1.62840000        +0.13663000        -1.04376000
H        +3.37234000        +2.13782000        -0.35195000
H        +2.48236000        +2.42488000        +1.14651000
H        +4.02182000        +0.00994000        +0.41161000
H        +3.07359000        +0.18738000        +1.88928000
H        +1.03270000        +2.19943000        -1.08064000
C        +2.35450000        -2.01267000        -0.16812000
H        +3.25743000        -2.00195000        -0.74215000
H        +1.57951000        -2.48932000        -0.73123000
H        +2.51687000        -2.55129000        +0.74206000
H        -0.74673000        +1.06811000        +0.13365000
H        +0.15552000        +1.72617000        +1.40828000
H        +0.81693000        -0.48905000        +2.04887000
H        -0.12524000        -1.15356000        +0.81843000
--
0  1
C        +3.11540000        +2.47067000        +2.95226000
C        +3.51896000        +1.01226000        +3.36502000
C        +4.22278000        +2.82553000        +1.93140000
C        +5.52340000        +3.14279000        +2.69486000
C        +5.93606000        +1.71930000        +3.16931000
C        +4.83693000        +0.83280000        +2.51893000
O        +4.52110000        +1.56242000        +1.32255000
H        +6.26504000        +3.56361000        +2.01436000
H        +5.37506000        +3.85067000        +3.51282000
H        +6.91452000        +1.43573000        +2.77792000
H        +5.96629000        +1.61317000        +4.25559000
H        +3.92540000        +3.62522000        +1.28567000
C        +5.24720000        -0.58688000        +2.19819000
H        +6.15013000        -0.57616000        +1.62416000
H        +4.47221000        -1.06353000        +1.63508000
H        +5.40957000        -1.12550000        +3.10837000
H        +2.14597000        +2.49390000        +2.49996000
H        +3.04822000        +3.15196000        +3.77459000
H        +3.70963000        +0.93674000        +4.41518000
H        +2.76746000        +0.27223000        +3.18474000
$end

$rem
JOBTYPE                   SP
METHOD                    B3LYP
DFT_D                     d3_op
BASIS                     6-311++G(d,p)
SYMMETRY                  False
THRESH                    12
SCF_CONVERGENCE           8
MAX_SUB_FILE_NUM          128
MEM_STATIC                400
MEM_TOTAL                 4000
$end
--------------------------------------------------------------

             Standard Nuclear Orientation (Angstroms)
    I     Atom           X                Y                Z
 ----------------------------------------------------------------
    1      C       2.5246571717    -1.5528540466     0.7571530991
    2      C       2.5990146633    -0.0671736179     1.2545622328
    3      C       2.1219480958    -1.3675161057    -0.7253604662
    4      C       0.6233377099    -1.0149201081    -0.7959326797
    5      C       0.6432600702     0.4457641773    -0.2595378846
    6      C       2.1647166836     0.6926507678    -0.0566094830
    7      O       2.7489338355    -0.1281954969    -1.0804848498
    8      H       0.2772018968    -1.0521371584    -1.8298594189
    9      H      -0.0008891081    -1.6891053947    -0.2060407484
   10      H       0.2535220804     1.1480452530    -0.9983799777
   11      H       0.0741764489     0.5796933074     0.6626272245
   12      H       2.3648799539    -2.2281615340    -1.3128804680
   13      C       2.6168695607     2.1297213276    -0.1872728088
   14      H       2.2617720569     2.5326059749    -1.1127444010
   15      H       3.6859059091     2.1704868818    -0.1673466947
   16      H       2.2228679571     2.7029298204     0.6258064702
   17      H       3.4723191428    -2.0417315501     0.8457252337
   18      H       1.8493420297    -2.1651968835     1.3174044307
   19      H       1.9193360737     0.1146302854     2.0607127774
   20      H       3.5502295154     0.2260026002     1.6471632256
   21      C      -1.4651801951    -1.3872583045     0.9890782309
   22      C      -1.3908227035     0.0984221243     1.4864873647
   23      C      -1.8678892710    -1.2019203635    -0.4934353344
   24      C      -3.3664996569    -0.8493243659    -0.5640075478
   25      C      -3.3465772967     0.6113599194    -0.0276127527
   26      C      -1.8251206832     0.8582465099     0.1753156488
   27      O      -1.2409035313     0.0374002452    -0.8485597180
   28      H      -3.7126354701    -0.8865414163    -1.5979342870
   29      H      -3.9907264749    -1.5235096526     0.0258843834
   30      H      -3.7363152864     1.3136409952    -0.7664548459
   31      H      -3.9156609179     0.7452890495     0.8945523563
   32      H      -1.6249574130    -2.0625657919    -1.0809553361
   33      C      -1.3729678062     2.2953170698     0.0446523231
   34      H      -1.7280653099     2.6982017170    -0.8808192692
   35      H      -0.3039314577     2.3360826240     0.0645784372
   36      H      -1.7669694097     2.8685255625     0.8577316021
   37      H      -0.5175182240    -1.8761358079     1.0776503656
   38      H      -2.1404953371    -1.9996011414     1.5493295625
   39      H      -2.0705012931     0.2802260276     2.2926379092
   40      H      -0.4396078514     0.3915983424     1.8790883574
 ----------------------------------------------------------------

   13    -698.4370365166      9.39E-09 Convergence criterion met
 Total energy in the final basis set = -698.43703652

                    Orbital Energies (a.u.)
 --------------------------------------------------------------

 Alpha MOs
 -- Occupied --
-19.123 -19.098 -10.238 -10.227 -10.198 -10.192 -10.178 -10.176
-10.175 -10.175 -10.159 -10.151 -10.150 -10.142 -10.133 -10.128
 -1.076  -1.027  -0.817  -0.799  -0.790  -0.765  -0.757  -0.730
 -0.697  -0.671  -0.640  -0.610  -0.585  -0.580  -0.554  -0.552
 -0.519  -0.513  -0.494  -0.484  -0.457  -0.452  -0.437  -0.432
 -0.430  -0.420  -0.416  -0.398  -0.395  -0.387  -0.382  -0.375
 -0.361  -0.358  -0.352  -0.349  -0.337  -0.330  -0.322  -0.321
 -0.315  -0.304  -0.287  -0.278  -0.261  -0.220

          Ground-State Mulliken Net Atomic Charges

     Atom                 Charge (a.u.)
  ----------------------------------------
      1 C                    -0.473559
      2 C                    -0.080785
      3 C                    -0.061942
      4 C                    -0.119851
      5 C                    -0.212402
      6 C                    -0.311477
      7 O                    -0.007459
      8 H                     0.175450
      9 H                     0.087498
     10 H                     0.196331
     11 H                    -0.146967
     12 H                     0.226181
     13 C                    -0.618944
     14 H                     0.150836
     15 H                     0.164663
     16 H                     0.149288
     17 H                     0.176386
     18 H                     0.105695
     19 H                     0.097169
     20 H                     0.171354
     21 C                    -0.406916
     22 C                    -0.413243
     23 C                     0.113237
     24 C                    -0.649017
     25 C                    -0.465787
     26 C                     0.425014
     27 O                     0.206986
     28 H                     0.162632
     29 H                     0.130731
     30 H                     0.163301
     31 H                     0.133719
     32 H                     0.245326
     33 C                    -0.535355
     34 H                     0.167386
     35 H                     0.138768
     36 H                     0.150092
     37 H                     0.126965
     38 H                     0.198663
     39 H                     0.186793
     40 H                     0.253240
  ----------------------------------------
  Sum of atomic charges =     0.000000

                    Cartesian Multipole Moments
 -----------------------------------------------------------------
    Charge (ESU x 10^10)
                 0.0000
    Dipole Moment (Debye)
         X      -3.7001      Y      -0.5853      Z       2.3019
       Tot       4.3968
    Quadrupole Moments (Debye-Ang)
        XX    -105.8077     XY       0.3880     YY     -96.0281
        XZ       3.7535     YZ       1.3456     ZZ    -103.5056

 Total job time:  290.16s(wall), 1152.63s(cpu)
        *  Thank you very much for using Q-Chem.  Have a nice day.  *
