 Q-Chem 5.0, Q-Chem, Inc., Pleasanton, CA (2017)
 Q-Chem 5.0.1 for Intel X86 EM64T Linux

User input:
--------------------------------------------------------------
$molecule
0  1
--
0  1
C        +0.22270000        +1.04488000        +0.58595000
C        +0.62626000        -0.41353000        +0.99871000
C        +1.33008000        +1.39974000        -0.43491000
C        +2.63070000        +1.71700000        +0.32855000
C        +3.04336000        +0.29351000        +0.80300000
C        +1.94423000        -0.59299000        +0.15262000
O        +1.62840000        +0.13663000        -1.04376000
H        +3.37234000        +2.13782000        -0.35195000
H        +2.48236000        +2.42488000        +1.14651000
H        +4.02182000        +0.00994000        +0.41161000
H        +3.07359000        +0.18738000        +1.88928000
H        +1.03270000        +2.19943000        -1.08064000
C        +2.35450000        -2.01267000        -0.16812000
H        +3.25743000        -2.00195000        -0.74215000
H        +1.57951000        -2.48932000        -0.73123000
H        +2.51687000        -2.55129000        +0.74206000
H        -0.74673000        +1.06811000        +0.13365000
H        +0.15552000        +1.72617000        +1.40828000
H        +0.81693000        -0.48905000        +2.04887000
H        -0.12524000        -1.15356000        +0.81843000
--
0  1
C        +3.98321000        +2.89841000        +3.66215000
C        +4.38677000        +1.44000000        +4.07491000
C        +5.09059000        +3.25327000        +2.64129000
C        +6.39121000        +3.57053000        +3.40475000
C        +6.80387000        +2.14704000        +3.87920000
C        +5.70474000        +1.26054000        +3.22882000
O        +5.38891000        +1.99016000        +2.03244000
H        +7.13285000        +3.99135000        +2.72425000
H        +6.24287000        +4.27841000        +4.22271000
H        +7.78233000        +1.86347000        +3.48781000
H        +6.83410000        +2.04091000        +4.96548000
H        +4.79321000        +4.05296000        +1.99556000
C        +6.11501000        -0.15914000        +2.90808000
H        +7.01794000        -0.14842000        +2.33405000
H        +5.34002000        -0.63579000        +2.34497000
H        +6.27738000        -0.69776000        +3.81826000
H        +3.01378000        +2.92164000        +3.20985000
H        +3.91603000        +3.57970000        +4.48448000
H        +4.57744000        +1.36448000        +5.12507000
H        +3.63527000        +0.69997000        +3.89463000
$end

$rem
JOBTYPE                   SP
METHOD                    B3LYP
DFT_D                     d3_op
BASIS                     6-311++G(d,p)
SYMMETRY                  False
THRESH                    12
SCF_CONVERGENCE           8
MAX_SUB_FILE_NUM          128
MEM_STATIC                400
MEM_TOTAL                 4000
$end
--------------------------------------------------------------

             Standard Nuclear Orientation (Angstroms)
    I     Atom           X                Y                Z
 ----------------------------------------------------------------
    1      C       3.1349637258    -1.5144662211     0.8020450982
    2      C       3.1693136579    -0.0255888476     1.2942396412
    3      C       2.7635125473    -1.3430209594    -0.6902691341
    4      C       1.2605006730    -1.0195442605    -0.7972999463
    5      C       1.2400071823     0.4434582947    -0.2672825895
    6      C       2.7513210388     0.7203342511    -0.0301470099
    7      O       3.3748465542    -0.0933748528    -1.0363837930
    8      H       0.9393721479    -1.0676709786    -1.8388180217
    9      H       0.6356551151    -1.7031404882    -0.2190079458
   10      H       0.8542903926     1.1350702973    -1.0182003244
   11      H       0.6470957307     0.5702525987     0.6407707588
   12      H       3.0364800199    -2.2012672424    -1.2680305641
   13      C       3.1788862409     2.1652649196    -0.1568367256
   14      H       2.8378667398     2.5574314535    -1.0921543474
   15      H       4.2461929296     2.2266207090    -0.1122329811
   16      H       2.7551385019     2.7341629516     0.6442225960
   17      H       4.0894590520    -1.9846969217     0.9148777541
   18      H       2.4585645813    -2.1373348776     1.3492330728
   19      H       2.4676522744     0.1464689940     2.0835188991
   20      H       4.1053331496     0.2874084877     1.7075164354
   21      C      -2.0606138054    -1.3975284541     0.9818089372
   22      C      -2.0262638732     0.0913489194     1.4740034802
   23      C      -2.4320649838    -1.2260831923    -0.5105052951
   24      C      -3.9350768581    -0.9026064935    -0.6175361073
   25      C      -3.9555703488     0.5603960618    -0.0875187505
   26      C      -2.4442564923     0.8372720181     0.1496168290
   27      O      -1.8207309769     0.0235629143    -0.8566199540
   28      H      -4.2562053832    -0.9507332115    -1.6590541827
   29      H      -4.5599224161    -1.5862027211    -0.0392441068
   30      H      -4.3412871386     1.2520080643    -0.8384364854
   31      H      -4.5484818004     0.6871903657     0.8205345977
   32      H      -2.1590975112    -2.0843294754    -1.0882667251
   33      C      -2.0166912902     2.2822026867     0.0229271134
   34      H      -2.3577107913     2.6743692206    -0.9123905085
   35      H      -0.9493846015     2.3435584760     0.0675308578
   36      H      -2.4404390292     2.8511007186     0.8239864349
   37      H      -1.1061184791    -1.8677591546     1.0946415931
   38      H      -2.7370129498    -2.0203971106     1.5289969118
   39      H      -2.7279252567     0.2634067610     2.2632827380
   40      H      -1.0902443815     0.4043462548     1.8872802744
 ----------------------------------------------------------------

   13    -698.5953179936      6.49E-09 Convergence criterion met
 Total energy in the final basis set = -698.59531799

                    Orbital Energies (a.u.)
 --------------------------------------------------------------

 Alpha MOs
 -- Occupied --
-19.122 -19.112 -10.229 -10.220 -10.218 -10.209 -10.169 -10.169
-10.168 -10.167 -10.158 -10.157 -10.157 -10.156 -10.155 -10.149
 -1.053  -1.042  -0.802  -0.791  -0.779  -0.769  -0.753  -0.740
 -0.687  -0.678  -0.619  -0.608  -0.579  -0.568  -0.561  -0.549
 -0.507  -0.497  -0.487  -0.475  -0.468  -0.456  -0.445  -0.434
 -0.421  -0.412  -0.410  -0.397  -0.396  -0.385  -0.381  -0.372
 -0.365  -0.353  -0.351  -0.348  -0.342  -0.339  -0.336  -0.329
 -0.320  -0.309  -0.304  -0.293  -0.267  -0.254

          Ground-State Mulliken Net Atomic Charges

     Atom                 Charge (a.u.)
  ----------------------------------------
      1 C                    -0.603451
      2 C                    -0.184655
      3 C                     0.102143
      4 C                    -0.325239
      5 C                    -0.120126
      6 C                    -0.075925
      7 O                    -0.060214
      8 H                     0.205088
      9 H                     0.049584
     10 H                     0.188483
     11 H                    -0.037236
     12 H                     0.241125
     13 C                    -0.511631
     14 H                     0.147982
     15 H                     0.161828
     16 H                     0.145355
     17 H                     0.170161
     18 H                     0.112953
     19 H                     0.130249
     20 H                     0.169241
     21 C                    -0.384649
     22 C                    -0.377224
     23 C                     0.188173
     24 C                    -0.659832
     25 C                    -0.470592
     26 C                     0.238229
     27 O                     0.029135
     28 H                     0.165253
     29 H                     0.128511
     30 H                     0.156022
     31 H                     0.137675
     32 H                     0.235295
     33 C                    -0.354406
     34 H                     0.158224
     35 H                     0.140469
     36 H                     0.140224
     37 H                     0.122262
     38 H                     0.165143
     39 H                     0.162255
     40 H                     0.174119
  ----------------------------------------
  Sum of atomic charges =     0.000000

                    Cartesian Multipole Moments
 -----------------------------------------------------------------
    Charge (ESU x 10^10)
                 0.0000
    Dipole Moment (Debye)
         X      -2.5386      Y      -0.6149      Z       2.2392
       Tot       3.4404
    Quadrupole Moments (Debye-Ang)
        XX    -104.2198     XY      -0.0838     YY     -95.4912
        XZ       3.3326     YZ       1.5559     ZZ    -103.1851

 Total job time:  219.81s(wall), 870.73s(cpu)
        *  Thank you very much for using Q-Chem.  Have a nice day.  *
