 Q-Chem 5.0, Q-Chem, Inc., Pleasanton, CA (2017)
 Q-Chem 5.0.1 for Intel X86 EM64T Linux

User input:
--------------------------------------------------------------
$molecule
0  1
--
0  1
C        +0.20553000        +1.04146000        +0.58269000
C        +0.65000000        -0.38925000        +1.00740000
C        +1.32948000        +1.41743000        -0.40725000
C        +2.62919000        +1.72756000        +0.36622000
C        +3.06783000        +0.29650000        +0.79479000
C        +1.94651000        -0.57906000        +0.17708000
O        +1.63056000        +0.15702000        -1.03120000
H        +3.36767000        +2.18673000        -0.29348000
H        +2.46319000        +2.40269000        +1.20873000
H        +4.03298000        +0.02999000        +0.35944000
H        +3.13919000        +0.17160000        +1.87760000
H        +1.05575000        +2.14422000        -1.17046000
C        +2.32428000        -2.00466000        -0.15206000
H        +3.19961000        -2.02906000        -0.80581000
H        +1.50021000        -2.51513000        -0.65630000
H        +2.56254000        -2.55434000        +0.76296000
H        -0.76025000        +1.02051000        +0.07473000
H        +0.13481000        +1.74083000        +1.41846000
H        +0.82947000        -0.48542000        +2.08050000
H        -0.09122000        -1.13848000        +0.72072000
--
0  1
C        +0.22012000        +2.18852000        +4.41467000
C        +0.66459000        +0.75781000        +4.83938000
C        +1.34407000        +2.56449000        +3.42473000
C        +2.64378000        +2.87462000        +4.19820000
C        +3.08242000        +1.44356000        +4.62677000
C        +1.96110000        +0.56800000        +4.00906000
O        +1.64515000        +1.30408000        +2.80078000
H        +3.38226000        +3.33379000        +3.53850000
H        +2.47778000        +3.54975000        +5.04071000
H        +4.04757000        +1.17705000        +4.19142000
H        +3.15378000        +1.31866000        +5.70958000
H        +1.07034000        +3.29128000        +2.66152000
C        +2.33887000        -0.85760000        +3.67992000
H        +3.21420000        -0.88200000        +3.02617000
H        +1.51480000        -1.36807000        +3.17568000
H        +2.57713000        -1.40728000        +4.59494000
H        -0.74566000        +2.16757000        +3.90671000
H        +0.14940000        +2.88789000        +5.25044000
H        +0.84406000        +0.66164000        +5.91248000
H        -0.07663000        +0.00858000        +4.55270000
$end

$rem
JOBTYPE                   SP
METHOD                    B3LYP
DFT_D                     d3_op
BASIS                     6-311++G(d,p)
SYMMETRY                  False
THRESH                    12
SCF_CONVERGENCE           8
MAX_SUB_FILE_NUM          128
MEM_STATIC                400
MEM_TOTAL                 4000
$end
--------------------------------------------------------------

             Standard Nuclear Orientation (Angstroms)
    I     Atom           X                Y                Z
 ----------------------------------------------------------------
    1      C       1.2529217793     1.2565681091    -1.2627820969
    2      C       1.4199927609    -0.2916407124    -1.2628194705
    3      C       2.0532835492     1.6392357308     0.0011739053
    4      C       1.2549922442     1.2543425513     1.2654012483
    5      C       1.4184767910    -0.2939617570     1.2593522719
    6      C       2.2940337247    -0.5171903415    -0.0012422525
    7      O       3.1198191669     0.6743031088    -0.0005431496
    8      H       1.7082501817     1.6965187640     2.1544632980
    9      H       0.2141649127     1.5824536837     1.2184846430
   10      H       1.9482616871    -0.6407514124     2.1488108847
   11      H       0.4681803272    -0.8294567633     1.2014602630
   12      H       2.4727214231     2.6440803372     0.0018867272
   13      C       3.1535614279    -1.7600049131     0.0004131798
   14      H       3.7900059743    -1.7858508177     0.8883643947
   15      H       3.7925647535    -1.7878515107    -0.8854921652
   16      H       2.5252101390    -2.6551874684     0.0010302644
   17      H       1.7042726960     1.7025437252    -2.1508031396
   18      H       0.2115867065     1.5815177457    -1.2112048914
   19      H       0.4705557765    -0.8288693486    -1.2084451669
   20      H       1.9516443613    -0.6351784244    -2.1529130161
   21      C      -2.7244829284     0.8319718064    -1.2627265360
   22      C      -2.5574119468    -0.7162370151    -1.2627639096
   23      C      -1.9241211584     1.2146394281     0.0012294662
   24      C      -2.7224124635     0.8297462486     1.2654568091
   25      C      -2.5589279167    -0.7185580597     1.2594078328
   26      C      -1.6833709829    -0.9417866442    -0.0011866916
   27      O      -0.8575855408     0.2497068061    -0.0004875887
   28      H      -2.2691545259     1.2719224613     2.1545188588
   29      H      -3.7632397949     1.1578573810     1.2185402039
   30      H      -2.0291430206    -1.0653477151     2.1488664456
   31      H      -3.5092243805    -1.2540530660     1.2015158239
   32      H      -1.5046832846     2.2194840344     0.0019422880
   33      C      -0.8238432798    -2.1846012158     0.0004687407
   34      H      -0.1873987333    -2.2104471204     0.8884199556
   35      H      -0.1848399542    -2.2124478135    -0.8854366043
   36      H      -1.4521945687    -3.0797837711     0.0010858253
   37      H      -2.2731320116     1.2779474225    -2.1507475787
   38      H      -3.7658180011     1.1569214430    -1.2111493305
   39      H      -3.5068489312    -1.2534656513    -1.2083896060
   40      H      -2.0257603464    -1.0597747272    -2.1528574552
 ----------------------------------------------------------------

   13    -698.5701294218      6.93E-09 Convergence criterion met
 Total energy in the final basis set = -698.57012942

                    Orbital Energies (a.u.)
 --------------------------------------------------------------

 Alpha MOs
 -- Occupied --
-19.123 -19.099 -10.236 -10.229 -10.208 -10.200 -10.178 -10.178
-10.178 -10.178 -10.169 -10.151 -10.147 -10.147 -10.144 -10.144
 -1.062  -1.028  -0.813  -0.791  -0.778  -0.761  -0.757  -0.731
 -0.693  -0.665  -0.624  -0.596  -0.590  -0.571  -0.554  -0.536
 -0.513  -0.503  -0.486  -0.479  -0.462  -0.460  -0.438  -0.431
 -0.420  -0.416  -0.401  -0.401  -0.388  -0.385  -0.376  -0.372
 -0.361  -0.358  -0.352  -0.351  -0.334  -0.331  -0.327  -0.325
 -0.312  -0.311  -0.297  -0.284  -0.273  -0.242

          Ground-State Mulliken Net Atomic Charges

     Atom                 Charge (a.u.)
  ----------------------------------------
      1 C                    -0.281335
      2 C                     0.040548
      3 C                    -0.194035
      4 C                    -0.283883
      5 C                     0.044316
      6 C                    -0.419981
      7 O                    -0.043104
      8 H                     0.186920
      9 H                     0.081026
     10 H                     0.207161
     11 H                    -0.019691
     12 H                     0.223248
     13 C                    -0.532588
     14 H                     0.150119
     15 H                     0.149960
     16 H                     0.137187
     17 H                     0.187077
     18 H                     0.079986
     19 H                    -0.018707
     20 H                     0.207131
     21 C                    -0.633141
     22 C                    -0.313615
     23 C                     0.339565
     24 C                    -0.636133
     25 C                    -0.308828
     26 C                    -0.023390
     27 O                     0.069520
     28 H                     0.156034
     29 H                     0.150120
     30 H                     0.172429
     31 H                     0.151050
     32 H                     0.242320
     33 C                    -0.482051
     34 H                     0.205696
     35 H                     0.205497
     36 H                     0.173762
     37 H                     0.156510
     38 H                     0.149783
     39 H                     0.150944
     40 H                     0.172572
  ----------------------------------------
  Sum of atomic charges =     0.000000

                    Cartesian Multipole Moments
 -----------------------------------------------------------------
    Charge (ESU x 10^10)
                -0.0000
    Dipole Moment (Debye)
         X      -4.3814      Y      -0.7670      Z       0.0048
       Tot       4.4480
    Quadrupole Moments (Debye-Ang)
        XX    -107.5877     XY      -2.6076     YY     -97.2729
        XZ      -0.0028     YZ       0.0060     ZZ    -101.3585

 Total job time:  277.27s(wall), 1100.04s(cpu)
        *  Thank you very much for using Q-Chem.  Have a nice day.  *
