 Q-Chem 5.0, Q-Chem, Inc., Pleasanton, CA (2017)
 Q-Chem 5.0.1 for Intel X86 EM64T Linux

User input:
--------------------------------------------------------------
$molecule
0  1
C        +0.20553000        +1.04146000        +0.58269000
C        +0.65000000        -0.38925000        +1.00740000
C        +1.32948000        +1.41743000        -0.40725000
C        +2.62919000        +1.72756000        +0.36622000
C        +3.06783000        +0.29650000        +0.79479000
C        +1.94651000        -0.57906000        +0.17708000
O        +1.63056000        +0.15702000        -1.03120000
H        +3.36767000        +2.18673000        -0.29348000
H        +2.46319000        +2.40269000        +1.20873000
H        +4.03298000        +0.02999000        +0.35944000
H        +3.13919000        +0.17160000        +1.87760000
H        +1.05575000        +2.14422000        -1.17046000
C        +2.32428000        -2.00466000        -0.15206000
H        +3.19961000        -2.02906000        -0.80581000
H        +1.50021000        -2.51513000        -0.65630000
H        +2.56254000        -2.55434000        +0.76296000
H        -0.76025000        +1.02051000        +0.07473000
H        +0.13481000        +1.74083000        +1.41846000
H        +0.82947000        -0.48542000        +2.08050000
H        -0.09122000        -1.13848000        +0.72072000
@C        +0.22012000        +2.18852000        +4.41467000
@C        +0.66459000        +0.75781000        +4.83938000
@C        +1.34407000        +2.56449000        +3.42473000
@C        +2.64378000        +2.87462000        +4.19820000
@C        +3.08242000        +1.44356000        +4.62677000
@C        +1.96110000        +0.56800000        +4.00906000
@O        +1.64515000        +1.30408000        +2.80078000
@H        +3.38226000        +3.33379000        +3.53850000
@H        +2.47778000        +3.54975000        +5.04071000
@H        +4.04757000        +1.17705000        +4.19142000
@H        +3.15378000        +1.31866000        +5.70958000
@H        +1.07034000        +3.29128000        +2.66152000
@C        +2.33887000        -0.85760000        +3.67992000
@H        +3.21420000        -0.88200000        +3.02617000
@H        +1.51480000        -1.36807000        +3.17568000
@H        +2.57713000        -1.40728000        +4.59494000
@H        -0.74566000        +2.16757000        +3.90671000
@H        +0.14940000        +2.88789000        +5.25044000
@H        +0.84406000        +0.66164000        +5.91248000
@H        -0.07663000        +0.00858000        +4.55270000
$end

$rem
JOBTYPE                   SP
METHOD                    B3LYP
DFT_D                     d3_op
BASIS                     6-311++G(d,p)
SYMMETRY                  False
THRESH                    12
SCF_CONVERGENCE           8
MAX_SUB_FILE_NUM          128
MEM_STATIC                400
MEM_TOTAL                 4000
$end
--------------------------------------------------------------

             Standard Nuclear Orientation (Angstroms)
    I     Atom           X                Y                Z
 ----------------------------------------------------------------
    1      C       0.2055300000     1.0414600000     0.5826900000
    2      C       0.6500000000    -0.3892500000     1.0074000000
    3      C       1.3294800000     1.4174300000    -0.4072500000
    4      C       2.6291900000     1.7275600000     0.3662200000
    5      C       3.0678300000     0.2965000000     0.7947900000
    6      C       1.9465100000    -0.5790600000     0.1770800000
    7      O       1.6305600000     0.1570200000    -1.0312000000
    8      H       3.3676700000     2.1867300000    -0.2934800000
    9      H       2.4631900000     2.4026900000     1.2087300000
   10      H       4.0329800000     0.0299900000     0.3594400000
   11      H       3.1391900000     0.1716000000     1.8776000000
   12      H       1.0557500000     2.1442200000    -1.1704600000
   13      C       2.3242800000    -2.0046600000    -0.1520600000
   14      H       3.1996100000    -2.0290600000    -0.8058100000
   15      H       1.5002100000    -2.5151300000    -0.6563000000
   16      H       2.5625400000    -2.5543400000     0.7629600000
   17      H      -0.7602500000     1.0205100000     0.0747300000
   18      H       0.1348100000     1.7408300000     1.4184600000
   19      H       0.8294700000    -0.4854200000     2.0805000000
   20      H      -0.0912200000    -1.1384800000     0.7207200000
   21      GH      0.2201200000     2.1885200000     4.4146700000
   22      GH      0.6645900000     0.7578100000     4.8393800000
   23      GH      1.3440700000     2.5644900000     3.4247300000
   24      GH      2.6437800000     2.8746200000     4.1982000000
   25      GH      3.0824200000     1.4435600000     4.6267700000
   26      GH      1.9611000000     0.5680000000     4.0090600000
   27      GH      1.6451500000     1.3040800000     2.8007800000
   28      GH      3.3822600000     3.3337900000     3.5385000000
   29      GH      2.4777800000     3.5497500000     5.0407100000
   30      GH      4.0475700000     1.1770500000     4.1914200000
   31      GH      3.1537800000     1.3186600000     5.7095800000
   32      GH      1.0703400000     3.2912800000     2.6615200000
   33      GH      2.3388700000    -0.8576000000     3.6799200000
   34      GH      3.2142000000    -0.8820000000     3.0261700000
   35      GH      1.5148000000    -1.3680700000     3.1756800000
   36      GH      2.5771300000    -1.4072800000     4.5949400000
   37      GH     -0.7456600000     2.1675700000     3.9067100000
   38      GH      0.1494000000     2.8878900000     5.2504400000
   39      GH      0.8440600000     0.6616400000     5.9124800000
   40      GH     -0.0766300000     0.0085800000     4.5527000000
 ----------------------------------------------------------------

   13    -349.3035067091      2.97E-09 Convergence criterion met
 Total energy in the final basis set = -349.30350671

                    Orbital Energies (a.u.)
 --------------------------------------------------------------

 Alpha MOs
 -- Occupied --
-19.115 -10.224 -10.217 -10.168 -10.168 -10.168 -10.168 -10.161
 -1.045  -0.799  -0.773  -0.750  -0.679  -0.613  -0.573  -0.554
 -0.498  -0.481  -0.467  -0.434  -0.414  -0.405  -0.391  -0.371
 -0.362  -0.346  -0.344  -0.339  -0.319  -0.302  -0.262

          Ground-State Mulliken Net Atomic Charges

     Atom                 Charge (a.u.)
  ----------------------------------------
      1 C                    -0.321356
      2 C                    -0.077210
      3 C                    -0.125891
      4 C                    -0.329562
      5 C                    -0.070052
      6 C                    -0.383671
      7 O                    -0.034970
      8 H                     0.200462
      9 H                     0.147863
     10 H                     0.220726
     11 H                     0.054302
     12 H                     0.237566
     13 C                    -0.556186
     14 H                     0.151813
     15 H                     0.151693
     16 H                     0.145990
     17 H                     0.200369
     18 H                     0.147506
     19 H                     0.054446
     20 H                     0.221340
     21 GH                   -0.003877
     22 GH                   -0.013952
     23 GH                   -0.106318
     24 GH                   -0.004227
     25 GH                   -0.014032
     26 GH                    0.027981
     27 GH                    0.002877
     28 GH                    0.003947
     29 GH                   -0.000975
     30 GH                    0.003814
     31 GH                    0.000247
     32 GH                   -0.004183
     33 GH                    0.028769
     34 GH                    0.022890
     35 GH                    0.022817
     36 GH                   -0.008110
     37 GH                    0.003947
     38 GH                   -0.000960
     39 GH                    0.000203
     40 GH                    0.003963
  ----------------------------------------
  Sum of atomic charges =     0.000000

                    Cartesian Multipole Moments
 -----------------------------------------------------------------
    Charge (ESU x 10^10)
                 0.0000
    Dipole Moment (Debye)
         X       0.0427      Y       0.3631      Z       1.6090
       Tot       1.6500
    Quadrupole Moments (Debye-Ang)
        XX     -49.7666     XY       0.0295     YY     -48.0944
        XZ       2.7797     YZ      -0.5569     ZZ     -52.5845

 Total job time:  244.02s(wall), 969.19s(cpu)
        *  Thank you very much for using Q-Chem.  Have a nice day.  *
