 Q-Chem 5.0, Q-Chem, Inc., Pleasanton, CA (2017)
 Q-Chem 5.0.1 for Intel X86 EM64T Linux

User input:
--------------------------------------------------------------
$molecule
0  1
C        +0.22270000        +1.04488000        +0.58595000
C        +0.62626000        -0.41353000        +0.99871000
C        +1.33008000        +1.39974000        -0.43491000
C        +2.63070000        +1.71700000        +0.32855000
C        +3.04336000        +0.29351000        +0.80300000
C        +1.94423000        -0.59299000        +0.15262000
O        +1.62840000        +0.13663000        -1.04376000
H        +3.37234000        +2.13782000        -0.35195000
H        +2.48236000        +2.42488000        +1.14651000
H        +4.02182000        +0.00994000        +0.41161000
H        +3.07359000        +0.18738000        +1.88928000
H        +1.03270000        +2.19943000        -1.08064000
C        +2.35450000        -2.01267000        -0.16812000
H        +3.25743000        -2.00195000        -0.74215000
H        +1.57951000        -2.48932000        -0.73123000
H        +2.51687000        -2.55129000        +0.74206000
H        -0.74673000        +1.06811000        +0.13365000
H        +0.15552000        +1.72617000        +1.40828000
H        +0.81693000        -0.48905000        +2.04887000
H        -0.12524000        -1.15356000        +0.81843000
@C        +3.98321000        +2.89841000        +3.66215000
@C        +4.38677000        +1.44000000        +4.07491000
@C        +5.09059000        +3.25327000        +2.64129000
@C        +6.39121000        +3.57053000        +3.40475000
@C        +6.80387000        +2.14704000        +3.87920000
@C        +5.70474000        +1.26054000        +3.22882000
@O        +5.38891000        +1.99016000        +2.03244000
@H        +7.13285000        +3.99135000        +2.72425000
@H        +6.24287000        +4.27841000        +4.22271000
@H        +7.78233000        +1.86347000        +3.48781000
@H        +6.83410000        +2.04091000        +4.96548000
@H        +4.79321000        +4.05296000        +1.99556000
@C        +6.11501000        -0.15914000        +2.90808000
@H        +7.01794000        -0.14842000        +2.33405000
@H        +5.34002000        -0.63579000        +2.34497000
@H        +6.27738000        -0.69776000        +3.81826000
@H        +3.01378000        +2.92164000        +3.20985000
@H        +3.91603000        +3.57970000        +4.48448000
@H        +4.57744000        +1.36448000        +5.12507000
@H        +3.63527000        +0.69997000        +3.89463000
$end

$rem
JOBTYPE                   SP
METHOD                    B3LYP
DFT_D                     d3_op
BASIS                     6-311++G(d,p)
SYMMETRY                  False
THRESH                    12
SCF_CONVERGENCE           8
MAX_SUB_FILE_NUM          128
MEM_STATIC                400
MEM_TOTAL                 4000
$end
--------------------------------------------------------------

             Standard Nuclear Orientation (Angstroms)
    I     Atom           X                Y                Z
 ----------------------------------------------------------------
    1      C       0.2227000000     1.0448800000     0.5859500000
    2      C       0.6262600000    -0.4135300000     0.9987100000
    3      C       1.3300800000     1.3997400000    -0.4349100000
    4      C       2.6307000000     1.7170000000     0.3285500000
    5      C       3.0433600000     0.2935100000     0.8030000000
    6      C       1.9442300000    -0.5929900000     0.1526200000
    7      O       1.6284000000     0.1366300000    -1.0437600000
    8      H       3.3723400000     2.1378200000    -0.3519500000
    9      H       2.4823600000     2.4248800000     1.1465100000
   10      H       4.0218200000     0.0099400000     0.4116100000
   11      H       3.0735900000     0.1873800000     1.8892800000
   12      H       1.0327000000     2.1994300000    -1.0806400000
   13      C       2.3545000000    -2.0126700000    -0.1681200000
   14      H       3.2574300000    -2.0019500000    -0.7421500000
   15      H       1.5795100000    -2.4893200000    -0.7312300000
   16      H       2.5168700000    -2.5512900000     0.7420600000
   17      H      -0.7467300000     1.0681100000     0.1336500000
   18      H       0.1555200000     1.7261700000     1.4082800000
   19      H       0.8169300000    -0.4890500000     2.0488700000
   20      H      -0.1252400000    -1.1535600000     0.8184300000
   21      GH      3.9832100000     2.8984100000     3.6621500000
   22      GH      4.3867700000     1.4400000000     4.0749100000
   23      GH      5.0905900000     3.2532700000     2.6412900000
   24      GH      6.3912100000     3.5705300000     3.4047500000
   25      GH      6.8038700000     2.1470400000     3.8792000000
   26      GH      5.7047400000     1.2605400000     3.2288200000
   27      GH      5.3889100000     1.9901600000     2.0324400000
   28      GH      7.1328500000     3.9913500000     2.7242500000
   29      GH      6.2428700000     4.2784100000     4.2227100000
   30      GH      7.7823300000     1.8634700000     3.4878100000
   31      GH      6.8341000000     2.0409100000     4.9654800000
   32      GH      4.7932100000     4.0529600000     1.9955600000
   33      GH      6.1150100000    -0.1591400000     2.9080800000
   34      GH      7.0179400000    -0.1484200000     2.3340500000
   35      GH      5.3400200000    -0.6357900000     2.3449700000
   36      GH      6.2773800000    -0.6977600000     3.8182600000
   37      GH      3.0137800000     2.9216400000     3.2098500000
   38      GH      3.9160300000     3.5797000000     4.4844800000
   39      GH      4.5774400000     1.3644800000     5.1250700000
   40      GH      3.6352700000     0.6999700000     3.8946300000
 ----------------------------------------------------------------

   13    -349.2962803212      2.62E-09 Convergence criterion met
 Total energy in the final basis set = -349.29628032

                    Orbital Energies (a.u.)
 --------------------------------------------------------------

 Alpha MOs
 -- Occupied --
-19.119 -10.225 -10.216 -10.166 -10.166 -10.163 -10.162 -10.154
 -1.049  -0.798  -0.775  -0.748  -0.684  -0.615  -0.575  -0.556
 -0.503  -0.482  -0.465  -0.441  -0.418  -0.405  -0.392  -0.378
 -0.360  -0.348  -0.344  -0.336  -0.316  -0.301  -0.262

          Ground-State Mulliken Net Atomic Charges

     Atom                 Charge (a.u.)
  ----------------------------------------
      1 C                    -0.600800
      2 C                    -0.182222
      3 C                     0.119024
      4 C                    -0.400581
      5 C                    -0.138951
      6 C                    -0.016423
      7 O                    -0.057628
      8 H                     0.189667
      9 H                     0.084176
     10 H                     0.177388
     11 H                     0.022853
     12 H                     0.245604
     13 C                    -0.517067
     14 H                     0.145958
     15 H                     0.163837
     16 H                     0.147375
     17 H                     0.172818
     18 H                     0.115637
     19 H                     0.135455
     20 H                     0.171739
     21 GH                    0.032701
     22 GH                   -0.017425
     23 GH                   -0.038655
     24 GH                    0.000335
     25 GH                   -0.010210
     26 GH                    0.017246
     27 GH                    0.017105
     28 GH                   -0.000703
     29 GH                    0.000399
     30 GH                   -0.000247
     31 GH                    0.000079
     32 GH                    0.001904
     33 GH                   -0.011961
     34 GH                    0.003043
     35 GH                    0.009603
     36 GH                   -0.001907
     37 GH                    0.015993
     38 GH                   -0.001743
     39 GH                   -0.001031
     40 GH                    0.007618
  ----------------------------------------
  Sum of atomic charges =    -0.000000

                    Cartesian Multipole Moments
 -----------------------------------------------------------------
    Charge (ESU x 10^10)
                 0.0000
    Dipole Moment (Debye)
         X      -0.0070      Y       0.4039      Z       1.6158
       Tot       1.6656
    Quadrupole Moments (Debye-Ang)
        XX     -49.7972     XY      -0.0712     YY     -47.6148
        XZ       2.5606     YZ      -0.6730     ZZ     -52.6515

 Total job time:  214.47s(wall), 851.34s(cpu)
        *  Thank you very much for using Q-Chem.  Have a nice day.  *
