 Q-Chem 5.0, Q-Chem, Inc., Pleasanton, CA (2017)
 Q-Chem 5.0.1 for Intel X86 EM64T Linux

User input:
--------------------------------------------------------------
$molecule
0  1
--
0  1
C        +0.22270000        +1.04488000        +0.58595000
C        +0.62626000        -0.41353000        +0.99871000
C        +1.33008000        +1.39974000        -0.43491000
C        +2.63070000        +1.71700000        +0.32855000
C        +3.04336000        +0.29351000        +0.80300000
C        +1.94423000        -0.59299000        +0.15262000
O        +1.62840000        +0.13663000        -1.04376000
H        +3.37234000        +2.13782000        -0.35195000
H        +2.48236000        +2.42488000        +1.14651000
H        +4.02182000        +0.00994000        +0.41161000
H        +3.07359000        +0.18738000        +1.88928000
C        +0.90028000        +2.39077000        -1.49430000
C        +2.35450000        -2.01267000        -0.16812000
H        +3.26311000        -2.00678000        -0.77366000
H        +2.54990000        -2.57059000        +0.75079000
H        +1.57335000        -2.52896000        -0.72872000
H        +1.71845000        +2.58186000        -2.15686000
H        +0.59919000        +3.30478000        -1.02650000
H        +0.07925000        +1.98653000        -2.04874000
H        +0.81693000        -0.48905000        +2.04887000
H        -0.12524000        -1.15356000        +0.81843000
H        -0.74673000        +1.06811000        +0.13365000
H        +0.15552000        +1.72617000        +1.40828000
--
0  1
C        +3.22499000        +2.64959000        +2.68623000
C        +3.62855000        +1.19118000        +3.09899000
C        +4.33237000        +3.00445000        +1.66537000
C        +5.63299000        +3.32171000        +2.42883000
C        +6.04565000        +1.89822000        +2.90328000
C        +4.94652000        +1.01172000        +2.25290000
O        +4.63069000        +1.74134000        +1.05652000
H        +6.37463000        +3.74253000        +1.74833000
H        +5.48465000        +4.02959000        +3.24679000
H        +7.02411000        +1.61465000        +2.51189000
H        +6.07588000        +1.79209000        +3.98956000
C        +3.90257000        +3.99548000        +0.60598000
C        +5.35679000        -0.40796000        +1.93216000
H        +6.26540000        -0.40207000        +1.32662000
H        +5.55219000        -0.96588000        +2.85107000
H        +4.57564000        -0.92425000        +1.37156000
H        +4.72074000        +4.18657000        -0.05658000
H        +3.60148000        +4.90949000        +1.07378000
H        +3.08154000        +3.59124000        +0.05154000
H        +3.81922000        +1.11566000        +4.14915000
H        +2.87705000        +0.45115000        +2.91871000
H        +2.25556000        +2.67282000        +2.23393000
H        +3.15781000        +3.33088000        +3.50856000
$end

$rem
JOBTYPE                   SP
METHOD                    B3LYP
DFT_D                     d3_op
BASIS                     6-311++G(d,p)
SYMMETRY                  False
THRESH                    12
SCF_CONVERGENCE           8
MAX_SUB_FILE_NUM          128
MEM_STATIC                400
MEM_TOTAL                 4000
$end
--------------------------------------------------------------

             Standard Nuclear Orientation (Angstroms)
    I     Atom           X                Y                Z
 ----------------------------------------------------------------
    1      C       2.5218238934    -0.8060873492     1.2968034768
    2      C       2.5877007189     0.7608488507     1.3205186314
    3      C       2.0494098680    -1.0783022545    -0.1513316197
    4      C       0.5421858598    -0.7726300701    -0.2512203993
    5      C       0.5559548853     0.7818733682    -0.1801969355
    6      C       2.0795518007     1.0878430022    -0.1354959984
    7      O       2.6341603076     0.0004097418    -0.8926732207
    8      H       0.1509515269    -1.1216249383    -1.2079533248
    9      H      -0.0409609626    -1.2417366269     0.5437866657
   10      H       0.1191215881     1.2266255935    -1.0759391848
   11      H       0.0260833280     1.1837551956     0.6857758110
   12      C       2.5173797508    -2.4015745502    -0.7162478023
   13      C       2.4956499487     2.4216313717    -0.7139057490
   14      H       2.1047572555     2.5224376963    -1.7284630432
   15      H       2.1047486145     3.2405145413    -0.1052367289
   16      H       3.5827269037     2.5082444043    -0.7561540989
   17      H       2.1504145372    -2.5126961776    -1.7151931494
   18      H       2.1456346909    -3.2001622384    -0.1088191046
   19      H       3.5870330987    -2.4276851547    -0.7242417793
   20      H       1.9411869083     1.1727591456     2.0670065058
   21      H       3.5492852811     1.1645392912     1.5598650067
   22      H       3.4823874510    -1.2397092832     1.4817335120
   23      H       1.8850477114    -1.2254664392     2.0474919064
   24      C      -1.4770229851    -0.8065069823     1.3929230524
   25      C      -1.4111461596     0.7604292176     1.4166382071
   26      C      -1.9494370105    -1.0787218876    -0.0552120440
   27      C      -3.4566610187    -0.7730497031    -0.1551008237
   28      C      -3.4428919932     0.7814537352    -0.0840773599
   29      C      -1.9192950778     1.0874233692    -0.0393764228
   30      O      -1.3646865709    -0.0000098913    -0.7965536450
   31      H      -3.8478953516    -1.1220445714    -1.1118337491
   32      H      -4.0398078411    -1.2421562600     0.6399062413
   33      H      -3.8797252904     1.2262059605    -0.9798196091
   34      H      -3.9727635505     1.1833355626     0.7818953867
   35      C      -1.4814671277    -2.4019941832    -0.6201282266
   36      C      -1.5031969298     2.4212117386    -0.6177861734
   37      H      -1.8940896230     2.5220180632    -1.6323434675
   38      H      -1.8940982640     3.2400949082    -0.0091171532
   39      H      -0.4161199748     2.5078247712    -0.6600345232
   40      H      -1.8484323413    -2.5131158106    -1.6190735737
   41      H      -1.8532121876    -3.2005818715    -0.0126995289
   42      H      -0.4118137798    -2.4281047878    -0.6281222036
   43      H      -2.0576599702     1.1723395125     2.1631260815
   44      H      -0.4495615974     1.1641196581     1.6559845824
   45      H      -0.5164594275    -1.2401289162     1.5778530877
   46      H      -2.1137991671    -1.2258860723     2.1436114821
 ----------------------------------------------------------------

   13    -777.0321482194      8.28E-09 Convergence criterion met
 Total energy in the final basis set = -777.03214822

                    Orbital Energies (a.u.)
 --------------------------------------------------------------

 Alpha MOs
 -- Occupied --
-19.121 -19.094 -10.237 -10.233 -10.201 -10.197 -10.177 -10.176
-10.176 -10.175 -10.162 -10.152 -10.152 -10.150 -10.149 -10.140
-10.122 -10.118  -1.074  -1.028  -0.822  -0.815  -0.798  -0.773
 -0.767  -0.740  -0.718  -0.705  -0.673  -0.662  -0.633  -0.600
 -0.583  -0.578  -0.551  -0.548  -0.529  -0.497  -0.486  -0.466
 -0.462  -0.457  -0.445  -0.441  -0.440  -0.434  -0.418  -0.415
 -0.412  -0.397  -0.391  -0.384  -0.375  -0.373  -0.370  -0.358
 -0.357  -0.349  -0.345  -0.344  -0.333  -0.325  -0.323  -0.319
 -0.297  -0.294  -0.272  -0.264  -0.260  -0.224

          Ground-State Mulliken Net Atomic Charges

     Atom                 Charge (a.u.)
  ----------------------------------------
      1 C                    -0.375705
      2 C                    -0.382460
      3 C                    -0.389947
      4 C                    -0.402145
      5 C                    -0.348772
      6 C                    -0.407083
      7 O                     0.095015
      8 H                     0.212538
      9 H                     0.036515
     10 H                     0.203582
     11 H                     0.132654
     12 C                    -0.168706
     13 C                    -0.226340
     14 H                     0.152749
     15 H                     0.151880
     16 H                     0.167320
     17 H                     0.144929
     18 H                     0.148018
     19 H                     0.164979
     20 H                     0.110322
     21 H                     0.171462
     22 H                     0.157441
     23 H                     0.120922
     24 C                    -0.367455
     25 C                    -0.339021
     26 C                     0.152097
     27 C                    -0.392811
     28 C                    -0.422374
     29 C                     0.202081
     30 O                     0.246670
     31 H                     0.158833
     32 H                     0.140091
     33 H                     0.166456
     34 H                     0.134644
     35 C                    -0.433547
     36 C                    -0.443194
     37 H                     0.160416
     38 H                     0.154428
     39 H                     0.179798
     40 H                     0.160509
     41 H                     0.151900
     42 H                     0.180731
     43 H                     0.204459
     44 H                     0.153408
     45 H                     0.176295
     46 H                     0.206416
  ----------------------------------------
  Sum of atomic charges =     0.000000

                    Cartesian Multipole Moments
 -----------------------------------------------------------------
    Charge (ESU x 10^10)
                 0.0000
    Dipole Moment (Debye)
         X      -3.3839      Y       0.0572      Z       2.3830
       Tot       4.1392
    Quadrupole Moments (Debye-Ang)
        XX    -118.1070     XY       0.1273     YY    -110.9639
        XZ       2.9410     YZ      -0.2371     ZZ    -116.3738

 Total job time:  418.56s(wall), 1659.57s(cpu)
        *  Thank you very much for using Q-Chem.  Have a nice day.  *
