 Q-Chem 5.0, Q-Chem, Inc., Pleasanton, CA (2017)
 Q-Chem 5.0.1 for Intel X86 EM64T Linux

User input:
--------------------------------------------------------------
$molecule
0  1
--
0  1
C        +0.20186000        +1.01419000        +0.57588000
C        +0.65458000        -0.40740000        +1.00877000
C        +1.31047000        +1.40432000        -0.43622000
C        +2.61036000        +1.71622000        +0.34904000
C        +3.06420000        +0.29616000        +0.78527000
C        +1.94960000        -0.59295000        +0.17632000
O        +1.62620000        +0.12693000        -1.03574000
H        +3.34518000        +2.18171000        -0.31153000
H        +2.43386000        +2.39558000        +1.18603000
H        +4.02983000        +0.03650000        +0.34656000
H        +3.14253000        +0.17627000        +1.86830000
C        +0.91819000        +2.41036000        -1.49368000
C        +2.33867000        -2.01935000        -0.13734000
H        +3.21332000        -2.04461000        -0.79203000
H        +2.58239000        -2.55643000        +0.78377000
H        +1.51806000        -2.54232000        -0.63447000
H        +1.73500000        +2.55908000        -2.20400000
H        +0.68341000        +3.37378000        -1.03196000
H        +0.03753000        +2.06800000        -2.04235000
H        +0.83643000        -0.49892000        +2.08202000
H        -0.08220000        -1.16297000        +0.72684000
H        -0.76801000        +0.98583000        +0.07445000
H        +0.13288000        +1.72189000        +1.40479000
--
0  1
C        +0.21670000        +2.18842000        +4.39962000
C        +0.66942000        +0.76683000        +4.83251000
C        +1.32531000        +2.57855000        +3.38752000
C        +2.62520000        +2.89045000        +4.17278000
C        +3.07904000        +1.47039000        +4.60901000
C        +1.96444000        +0.58128000        +4.00006000
O        +1.64104000        +1.30116000        +2.78800000
H        +3.36002000        +3.35594000        +3.51221000
H        +2.44870000        +3.56981000        +5.00977000
H        +4.04467000        +1.21073000        +4.17030000
H        +3.15737000        +1.35050000        +5.69204000
C        +0.93303000        +3.58459000        +2.33006000
C        +2.35351000        -0.84512000        +3.68640000
H        +3.22816000        -0.87038000        +3.03171000
H        +2.59723000        -1.38220000        +4.60751000
H        +1.53290000        -1.36809000        +3.18927000
H        +1.74984000        +3.73331000        +1.61974000
H        +0.69825000        +4.54801000        +2.79178000
H        +0.05237000        +3.24223000        +1.78139000
H        +0.85127000        +0.67531000        +5.90576000
H        -0.06736000        +0.01126000        +4.55058000
H        -0.75317000        +2.16006000        +3.89819000
H        +0.14772000        +2.89612000        +5.22853000
$end

$rem
JOBTYPE                   SP
METHOD                    B3LYP
DFT_D                     d3_op
BASIS                     6-311++G(d,p)
SYMMETRY                  False
THRESH                    12
SCF_CONVERGENCE           8
MAX_SUB_FILE_NUM          128
MEM_STATIC                400
MEM_TOTAL                 4000
$end
--------------------------------------------------------------

             Standard Nuclear Orientation (Angstroms)
    I     Atom           X                Y                Z
 ----------------------------------------------------------------
    1      C       1.2601367838     0.7769457646    -1.2591343993
    2      C       1.2617965830    -0.7765209791    -1.2615007904
    3      C       2.1091222475     1.0919009049     0.0000680868
    4      C       1.2621384591     0.7768568973     1.2598278359
    5      C       1.2601522398    -0.7764725768     1.2586608635
    6      C       2.1072853458    -1.0927674670    -0.0007012361
    7      O       3.0559242121    -0.0009852105    -0.0008559413
    8      H       1.7543309409     1.1719279995     2.1512645877
    9      H       0.2632972908     1.2157602371     1.2058398884
   10      H       1.7521940411    -1.1740777069     2.1486811457
   11      H       0.2597007733    -1.2117948030     1.2033923875
   12      C       2.8262500885     2.4222953544     0.0000763756
   13      C       2.8242699180    -2.4232950775     0.0014015055
   14      H       3.4543337938    -2.5195488539     0.8891088949
   15      H       2.1004222532    -3.2432595027     0.0023482427
   16      H       3.4559861971    -2.5221670661    -0.8847110734
   17      H       3.4586541934     2.5176152768     0.8859826220
   18      H       2.1030151070     3.2429091506     0.0031197539
   19      H       3.4544592832     2.5205632704    -0.8884661380
   20      H       0.2619893633    -1.2134881404    -1.2090020412
   21      H       1.7557345126    -1.1727862750    -2.1515650888
   22      H       1.7513731904     1.1752483539    -2.1495983185
   23      H       0.2603088242     1.2125299659    -1.2016907446
   24      C      -2.7398661721     0.7773684175    -1.2588500003
   25      C      -2.7382063728    -0.7760983262    -1.2612163915
   26      C      -1.8908807084     1.0923235579     0.0003524858
   27      C      -2.7378644967     0.7772795503     1.2601122348
   28      C      -2.7398507160    -0.7760499239     1.2589452624
   29      C      -1.8927176100    -1.0923448141    -0.0004168371
   30      O      -0.9440787438    -0.0005625576    -0.0005715423
   31      H      -2.2456720149     1.1723506524     2.1515489866
   32      H      -3.7367056650     1.2161828900     1.2061242873
   33      H      -2.2478089147    -1.1736550539     2.1489655447
   34      H      -3.7403021826    -1.2113721501     1.2036767864
   35      C      -1.1737528673     2.4227180073     0.0003607745
   36      C      -1.1757330378    -2.4228724245     0.0016859045
   37      H      -0.5456691620    -2.5191262010     0.8893932938
   38      H      -1.8995807026    -3.2428368498     0.0026326417
   39      H      -0.5440167587    -2.5217444131    -0.8844266744
   40      H      -0.5413487624     2.5180379298     0.8862670209
   41      H      -1.8969878488     3.2433318036     0.0034041529
   42      H      -0.5455436726     2.5209859233    -0.8881817391
   43      H      -3.7380135926    -1.2130654875    -1.2087176422
   44      H      -2.2442684432    -1.1723636221    -2.1512806898
   45      H      -2.2486297654     1.1756710069    -2.1493139196
   46      H      -3.7396941316     1.2129526189    -1.2014063456
 ----------------------------------------------------------------

   13    -777.2248089489      6.22E-09 Convergence criterion met
 Total energy in the final basis set = -777.22480895

                    Orbital Energies (a.u.)
 --------------------------------------------------------------

 Alpha MOs
 -- Occupied --
-19.119 -19.097 -10.234 -10.234 -10.207 -10.206 -10.176 -10.176
-10.176 -10.176 -10.168 -10.168 -10.150 -10.150 -10.142 -10.142
-10.142 -10.142  -1.060  -1.027  -0.812  -0.804  -0.782  -0.774
 -0.760  -0.730  -0.730  -0.704  -0.665  -0.635  -0.624  -0.598
 -0.572  -0.571  -0.543  -0.534  -0.508  -0.488  -0.481  -0.464
 -0.460  -0.458  -0.455  -0.443  -0.425  -0.425  -0.414  -0.406
 -0.400  -0.396  -0.394  -0.391  -0.383  -0.372  -0.364  -0.358
 -0.355  -0.352  -0.347  -0.345  -0.329  -0.321  -0.320  -0.315
 -0.307  -0.305  -0.295  -0.280  -0.270  -0.240

          Ground-State Mulliken Net Atomic Charges

     Atom                 Charge (a.u.)
  ----------------------------------------
      1 C                    -0.003201
      2 C                    -0.008252
      3 C                    -0.759799
      4 C                    -0.009151
      5 C                    -0.003118
      6 C                    -0.759113
      7 O                     0.083817
      8 H                     0.207254
      9 H                    -0.000246
     10 H                     0.207700
     11 H                    -0.004776
     12 C                    -0.207829
     13 C                    -0.207032
     14 H                     0.145870
     15 H                     0.142806
     16 H                     0.145689
     17 H                     0.145947
     18 H                     0.142847
     19 H                     0.145645
     20 H                    -0.001738
     21 H                     0.207418
     22 H                     0.207476
     23 H                    -0.004552
     24 C                    -0.371701
     25 C                    -0.377167
     26 C                     0.153070
     27 C                    -0.376498
     28 C                    -0.372910
     29 C                     0.155736
     30 O                     0.129371
     31 H                     0.167807
     32 H                     0.155222
     33 H                     0.167845
     34 H                     0.155270
     35 C                    -0.628178
     36 C                    -0.630621
     37 H                     0.216300
     38 H                     0.174099
     39 H                     0.215747
     40 H                     0.215964
     41 H                     0.174236
     42 H                     0.216598
     43 H                     0.155131
     44 H                     0.168015
     45 H                     0.167749
     46 H                     0.155256
  ----------------------------------------
  Sum of atomic charges =     0.000000

                    Cartesian Multipole Moments
 -----------------------------------------------------------------
    Charge (ESU x 10^10)
                 0.0000
    Dipole Moment (Debye)
         X      -4.3359      Y       0.0026      Z       0.0055
       Tot       4.3359
    Quadrupole Moments (Debye-Ang)
        XX    -120.5782     XY      -0.0031     YY    -110.2281
        XZ      -0.0005     YZ       0.0036     ZZ    -114.8315

 Total job time:  414.76s(wall), 1635.71s(cpu)
        *  Thank you very much for using Q-Chem.  Have a nice day.  *
