 Q-Chem 5.0, Q-Chem, Inc., Pleasanton, CA (2017)
 Q-Chem 5.0.1 for Intel X86 EM64T Linux

User input:
--------------------------------------------------------------
$molecule
0  1
C        +0.21670000        +2.18842000        +4.39962000
C        +0.66942000        +0.76683000        +4.83251000
C        +1.32531000        +2.57855000        +3.38752000
C        +2.62520000        +2.89045000        +4.17278000
C        +3.07904000        +1.47039000        +4.60901000
C        +1.96444000        +0.58128000        +4.00006000
O        +1.64104000        +1.30116000        +2.78800000
H        +3.36002000        +3.35594000        +3.51221000
H        +2.44870000        +3.56981000        +5.00977000
H        +4.04467000        +1.21073000        +4.17030000
H        +3.15737000        +1.35050000        +5.69204000
C        +0.93303000        +3.58459000        +2.33006000
C        +2.35351000        -0.84512000        +3.68640000
H        +3.22816000        -0.87038000        +3.03171000
H        +2.59723000        -1.38220000        +4.60751000
H        +1.53290000        -1.36809000        +3.18927000
H        +1.74984000        +3.73331000        +1.61974000
H        +0.69825000        +4.54801000        +2.79178000
H        +0.05237000        +3.24223000        +1.78139000
H        +0.85127000        +0.67531000        +5.90576000
H        -0.06736000        +0.01126000        +4.55058000
H        -0.75317000        +2.16006000        +3.89819000
H        +0.14772000        +2.89612000        +5.22853000
@C        +0.20186000        +1.01419000        +0.57588000
@C        +0.65458000        -0.40740000        +1.00877000
@C        +1.31047000        +1.40432000        -0.43622000
@C        +2.61036000        +1.71622000        +0.34904000
@C        +3.06420000        +0.29616000        +0.78527000
@C        +1.94960000        -0.59295000        +0.17632000
@O        +1.62620000        +0.12693000        -1.03574000
@H        +3.34518000        +2.18171000        -0.31153000
@H        +2.43386000        +2.39558000        +1.18603000
@H        +4.02983000        +0.03650000        +0.34656000
@H        +3.14253000        +0.17627000        +1.86830000
@C        +0.91819000        +2.41036000        -1.49368000
@C        +2.33867000        -2.01935000        -0.13734000
@H        +3.21332000        -2.04461000        -0.79203000
@H        +2.58239000        -2.55643000        +0.78377000
@H        +1.51806000        -2.54232000        -0.63447000
@H        +1.73500000        +2.55908000        -2.20400000
@H        +0.68341000        +3.37378000        -1.03196000
@H        +0.03753000        +2.06800000        -2.04235000
@H        +0.83643000        -0.49892000        +2.08202000
@H        -0.08220000        -1.16297000        +0.72684000
@H        -0.76801000        +0.98583000        +0.07445000
@H        +0.13288000        +1.72189000        +1.40479000
$end

$rem
JOBTYPE                   SP
METHOD                    B3LYP
DFT_D                     d3_op
BASIS                     6-311++G(d,p)
SYMMETRY                  False
THRESH                    12
SCF_CONVERGENCE           8
MAX_SUB_FILE_NUM          128
MEM_STATIC                400
MEM_TOTAL                 4000
$end
--------------------------------------------------------------

             Standard Nuclear Orientation (Angstroms)
    I     Atom           X                Y                Z
 ----------------------------------------------------------------
    1      C       0.2167000000     2.1884200000     4.3996200000
    2      C       0.6694200000     0.7668300000     4.8325100000
    3      C       1.3253100000     2.5785500000     3.3875200000
    4      C       2.6252000000     2.8904500000     4.1727800000
    5      C       3.0790400000     1.4703900000     4.6090100000
    6      C       1.9644400000     0.5812800000     4.0000600000
    7      O       1.6410400000     1.3011600000     2.7880000000
    8      H       3.3600200000     3.3559400000     3.5122100000
    9      H       2.4487000000     3.5698100000     5.0097700000
   10      H       4.0446700000     1.2107300000     4.1703000000
   11      H       3.1573700000     1.3505000000     5.6920400000
   12      C       0.9330300000     3.5845900000     2.3300600000
   13      C       2.3535100000    -0.8451200000     3.6864000000
   14      H       3.2281600000    -0.8703800000     3.0317100000
   15      H       2.5972300000    -1.3822000000     4.6075100000
   16      H       1.5329000000    -1.3680900000     3.1892700000
   17      H       1.7498400000     3.7333100000     1.6197400000
   18      H       0.6982500000     4.5480100000     2.7917800000
   19      H       0.0523700000     3.2422300000     1.7813900000
   20      H       0.8512700000     0.6753100000     5.9057600000
   21      H      -0.0673600000     0.0112600000     4.5505800000
   22      H      -0.7531700000     2.1600600000     3.8981900000
   23      H       0.1477200000     2.8961200000     5.2285300000
   24      GH      0.2018600000     1.0141900000     0.5758800000
   25      GH      0.6545800000    -0.4074000000     1.0087700000
   26      GH      1.3104700000     1.4043200000    -0.4362200000
   27      GH      2.6103600000     1.7162200000     0.3490400000
   28      GH      3.0642000000     0.2961600000     0.7852700000
   29      GH      1.9496000000    -0.5929500000     0.1763200000
   30      GH      1.6262000000     0.1269300000    -1.0357400000
   31      GH      3.3451800000     2.1817100000    -0.3115300000
   32      GH      2.4338600000     2.3955800000     1.1860300000
   33      GH      4.0298300000     0.0365000000     0.3465600000
   34      GH      3.1425300000     0.1762700000     1.8683000000
   35      GH      0.9181900000     2.4103600000    -1.4936800000
   36      GH      2.3386700000    -2.0193500000    -0.1373400000
   37      GH      3.2133200000    -2.0446100000    -0.7920300000
   38      GH      2.5823900000    -2.5564300000     0.7837700000
   39      GH      1.5180600000    -2.5423200000    -0.6344700000
   40      GH      1.7350000000     2.5590800000    -2.2040000000
   41      GH      0.6834100000     3.3737800000    -1.0319600000
   42      GH      0.0375300000     2.0680000000    -2.0423500000
   43      GH      0.8364300000    -0.4989200000     2.0820200000
   44      GH     -0.0822000000    -1.1629700000     0.7268400000
   45      GH     -0.7680100000     0.9858300000     0.0744500000
   46      GH      0.1328800000     1.7218900000     1.4047900000
 ----------------------------------------------------------------

   12    -388.6394073216      3.21E-09 Convergence criterion met
 Total energy in the final basis set = -388.63940732

                    Orbital Energies (a.u.)
 --------------------------------------------------------------

 Alpha MOs
 -- Occupied --
-19.113 -10.223 -10.223 -10.166 -10.166 -10.166 -10.166 -10.160
-10.160  -1.043  -0.799  -0.788  -0.749  -0.716  -0.650  -0.613
 -0.557  -0.553  -0.484  -0.475  -0.466  -0.440  -0.417  -0.408
 -0.404  -0.402  -0.383  -0.359  -0.344  -0.343  -0.341  -0.335
 -0.317  -0.298  -0.260

          Ground-State Mulliken Net Atomic Charges

     Atom                 Charge (a.u.)
  ----------------------------------------
      1 C                    -0.364932
      2 C                    -0.375355
      3 C                     0.115857
      4 C                    -0.372404
      5 C                    -0.366475
      6 C                     0.124924
      7 O                     0.141002
      8 H                     0.161398
      9 H                     0.150423
     10 H                     0.161183
     11 H                     0.150226
     12 C                    -0.535717
     13 C                    -0.542236
     14 H                     0.174629
     15 H                     0.181732
     16 H                     0.174441
     17 H                     0.173724
     18 H                     0.182215
     19 H                     0.174199
     20 H                     0.150293
     21 H                     0.161680
     22 H                     0.160733
     23 H                     0.150387
     24 GH                    0.049334
     25 GH                    0.047998
     26 GH                   -0.080776
     27 GH                    0.046953
     28 GH                    0.050741
     29 GH                   -0.082035
     30 GH                   -0.004380
     31 GH                    0.003802
     32 GH                   -0.046467
     33 GH                    0.004087
     34 GH                   -0.049636
     35 GH                    0.008864
     36 GH                    0.009584
     37 GH                   -0.000107
     38 GH                   -0.000165
     39 GH                   -0.000092
     40 GH                   -0.000095
     41 GH                   -0.000197
     42 GH                   -0.000103
     43 GH                   -0.047929
     44 GH                    0.003805
     45 GH                    0.004154
     46 GH                   -0.049268
  ----------------------------------------
  Sum of atomic charges =     0.000000

                    Cartesian Multipole Moments
 -----------------------------------------------------------------
    Charge (ESU x 10^10)
                 0.0000
    Dipole Moment (Debye)
         X       0.0080      Y       0.4497      Z       1.4588
       Tot       1.5265
    Quadrupole Moments (Debye-Ang)
        XX     -56.6226     XY       0.2027     YY     -53.8833
        XZ       2.5873     YZ       2.8118     ZZ     -47.9529

 Total job time:  383.91s(wall), 1519.22s(cpu)
        *  Thank you very much for using Q-Chem.  Have a nice day.  *
