 Q-Chem 5.0, Q-Chem, Inc., Pleasanton, CA (2017)
 Q-Chem 5.0.1 for Intel X86 EM64T Linux

User input:
--------------------------------------------------------------
$molecule
0  1
--
0  1
C        +0.22270000        +1.04488000        +0.58595000
C        +0.62626000        -0.41353000        +0.99871000
C        +1.33008000        +1.39974000        -0.43491000
C        +2.63070000        +1.71700000        +0.32855000
C        +3.04336000        +0.29351000        +0.80300000
C        +1.94423000        -0.59299000        +0.15262000
O        +1.62840000        +0.13663000        -1.04376000
H        +3.37234000        +2.13782000        -0.35195000
H        +2.48236000        +2.42488000        +1.14651000
H        +4.02182000        +0.00994000        +0.41161000
H        +3.07359000        +0.18738000        +1.88928000
C        +0.90028000        +2.39077000        -1.49430000
C        +2.35450000        -2.01267000        -0.16812000
H        +3.26311000        -2.00678000        -0.77366000
H        +2.54990000        -2.57059000        +0.75079000
H        +1.57335000        -2.52896000        -0.72872000
H        +1.71845000        +2.58186000        -2.15686000
H        +0.59919000        +3.30478000        -1.02650000
H        +0.07925000        +1.98653000        -2.04874000
H        +0.81693000        -0.48905000        +2.04887000
H        -0.12524000        -1.15356000        +0.81843000
H        -0.74673000        +1.06811000        +0.13365000
H        +0.15552000        +1.72617000        +1.40828000
--
0  1
C        +4.12567000        +3.13101000        +3.31631000
C        +4.52923000        +1.67260000        +3.72907000
C        +5.23305000        +3.48587000        +2.29545000
C        +6.53367000        +3.80313000        +3.05891000
C        +6.94633000        +2.37964000        +3.53336000
C        +5.84720000        +1.49314000        +2.88298000
O        +5.53137000        +2.22276000        +1.68660000
H        +7.27531000        +4.22395000        +2.37841000
H        +6.38533000        +4.51101000        +3.87687000
H        +7.92479000        +2.09607000        +3.14197000
H        +6.97656000        +2.27351000        +4.61964000
C        +4.80325000        +4.47690000        +1.23606000
C        +6.25747000        +0.07346000        +2.56224000
H        +7.16608000        +0.07935000        +1.95670000
H        +6.45287000        -0.48446000        +3.48115000
H        +5.47632000        -0.44283000        +2.00164000
H        +5.62142000        +4.66799000        +0.57350000
H        +4.50216000        +5.39091000        +1.70386000
H        +3.98222000        +4.07266000        +0.68162000
H        +4.71990000        +1.59708000        +4.77923000
H        +3.77773000        +0.93257000        +3.54879000
H        +3.15624000        +3.15424000        +2.86401000
H        +4.05849000        +3.81230000        +4.13864000
$end

$rem
JOBTYPE                   SP
METHOD                    B3LYP
DFT_D                     d3_op
BASIS                     6-311++G(d,p)
SYMMETRY                  False
THRESH                    12
SCF_CONVERGENCE           8
MAX_SUB_FILE_NUM          128
MEM_STATIC                400
MEM_TOTAL                 4000
$end
--------------------------------------------------------------

             Standard Nuclear Orientation (Angstroms)
    I     Atom           X                Y                Z
 ----------------------------------------------------------------
    1      C       3.1089378822    -0.8061977622     1.3127907206
    2      C       3.1746678472     0.7607346842     1.3371525654
    3      C       2.6506658525    -1.0783825354    -0.1398872959
    4      C       1.1445057428    -0.7726256487    -0.2544818585
    5      C       1.1576679341     0.7818768361    -0.1833226023
    6      C       2.6807730938     1.0877609890    -0.1237515619
    7      O       3.2426848206     0.0002985703    -0.8754827218
    8      H       0.7626088352    -1.1215961760    -1.2149889824
    9      H       0.5536006455    -1.2417015415     0.5347940022
   10      H       0.7296233781     1.2266558018    -1.0832845894
   11      H       0.6193916709     1.1837861617     0.6774382394
   12      C       3.1240532827    -2.4016796208    -0.7002129491
   13      C       3.1025717692     2.4215275051    -0.6980682698
   14      H       2.7216060785     2.5223582970    -1.7163922898
   15      H       2.7057939130     3.2404310364    -0.0932411757
   16      H       4.1900141601     2.5080797352    -0.7297037663
   17      H       2.7668496804    -2.5127781607    -1.7026928699
   18      H       2.7463523115    -3.2002480150    -0.0964441155
   19      H       4.1937322388    -2.4278501380    -0.6977661169
   20      H       2.5209216986     1.1726793150     2.0772957537
   21      H       4.1338930339     1.1643706409     1.5858744682
   22      H       4.0676263598    -1.2398739837     1.5070863346
   23      H       2.4648413436    -1.2255430712     2.0572267529
   24      C      -2.0905305275    -0.8064619092     1.3870006531
   25      C      -2.0248005625     0.7604705371     1.4113624979
   26      C      -2.5488025572    -1.0786466825    -0.0656773634
   27      C      -4.0549626669    -0.7728897958    -0.1802719260
   28      C      -4.0418004756     0.7816126890    -0.1091126698
   29      C      -2.5186953159     1.0874968419    -0.0495416294
   30      O      -1.9567835891     0.0000344232    -0.8012727893
   31      H      -4.4368595745    -1.1218603230    -1.1407790499
   32      H      -4.6458677643    -1.2419656885     0.6090039347
   33      H      -4.4698450316     1.2263916547    -1.0090746569
   34      H      -4.5800767388     1.1835220147     0.7516481719
   35      C      -2.0754151270    -2.4019437679    -0.6260030166
   36      C      -2.0968966405     2.4212633580    -0.6238583373
   37      H      -2.4778623312     2.5220941499    -1.6421823573
   38      H      -2.4936744967     3.2401668893    -0.0190312432
   39      H      -1.0094542496     2.5078155881    -0.6554938338
   40      H      -2.4326187293    -2.5130423077    -1.6284829374
   41      H      -2.4531160983    -3.2005121621    -0.0222341830
   42      H      -1.0057361709    -2.4281142851    -0.6235561844
   43      H      -2.6785467111     1.1724151679     2.1515056862
   44      H      -1.0655753758     1.1641064939     1.6600844007
   45      H      -1.1318420499    -1.2401381308     1.5812962671
   46      H      -2.7346270661    -1.2258072183     2.1314366854
 ----------------------------------------------------------------

   13    -777.2669786430      5.57E-09 Convergence criterion met
 Total energy in the final basis set = -777.26697864

                    Orbital Energies (a.u.)
 --------------------------------------------------------------

 Alpha MOs
 -- Occupied --
-19.117 -19.109 -10.227 -10.224 -10.219 -10.215 -10.168 -10.168
-10.166 -10.165 -10.161 -10.159 -10.158 -10.157 -10.157 -10.156
-10.153 -10.147  -1.052  -1.043  -0.802  -0.794  -0.792  -0.784
 -0.752  -0.743  -0.720  -0.713  -0.655  -0.648  -0.620  -0.610
 -0.565  -0.561  -0.558  -0.549  -0.491  -0.483  -0.475  -0.469
 -0.468  -0.457  -0.449  -0.439  -0.423  -0.415  -0.414  -0.412
 -0.407  -0.404  -0.401  -0.393  -0.389  -0.377  -0.363  -0.356
 -0.350  -0.348  -0.345  -0.341  -0.340  -0.334  -0.334  -0.327
 -0.318  -0.311  -0.301  -0.293  -0.265  -0.254

          Ground-State Mulliken Net Atomic Charges

     Atom                 Charge (a.u.)
  ----------------------------------------
      1 C                    -0.425475
      2 C                    -0.470961
      3 C                    -0.077433
      4 C                    -0.203316
      5 C                    -0.137117
      6 C                    -0.100392
      7 O                     0.044054
      8 H                     0.200732
      9 H                    -0.032985
     10 H                     0.176020
     11 H                    -0.006899
     12 C                    -0.301322
     13 C                    -0.306779
     14 H                     0.153156
     15 H                     0.151233
     16 H                     0.158780
     17 H                     0.142256
     18 H                     0.147439
     19 H                     0.157397
     20 H                     0.129152
     21 H                     0.173413
     22 H                     0.161146
     23 H                     0.140943
     24 C                    -0.300292
     25 C                    -0.316999
     26 C                     0.054102
     27 C                    -0.586399
     28 C                    -0.528145
     29 C                     0.087680
     30 O                     0.072311
     31 H                     0.157055
     32 H                     0.138261
     33 H                     0.160216
     34 H                     0.136050
     35 C                    -0.194030
     36 C                    -0.282230
     37 H                     0.157557
     38 H                     0.148451
     39 H                     0.141797
     40 H                     0.153663
     41 H                     0.145594
     42 H                     0.131680
     43 H                     0.168510
     44 H                     0.160811
     45 H                     0.138672
     46 H                     0.182645
  ----------------------------------------
  Sum of atomic charges =     0.000000

                    Cartesian Multipole Moments
 -----------------------------------------------------------------
    Charge (ESU x 10^10)
                 0.0000
    Dipole Moment (Debye)
         X      -2.1538      Y       0.0207      Z       2.2990
       Tot       3.1503
    Quadrupole Moments (Debye-Ang)
        XX    -116.3748     XY       0.1935     YY    -109.9198
        XZ       2.5833     YZ      -0.2199     ZZ    -116.2925

 Total job time:  313.93s(wall), 1243.42s(cpu)
        *  Thank you very much for using Q-Chem.  Have a nice day.  *
