 Q-Chem 5.0, Q-Chem, Inc., Pleasanton, CA (2017)
 Q-Chem 5.0.1 for Intel X86 EM64T Linux

User input:
--------------------------------------------------------------
$molecule
0  1
C        +0.22270000        +1.04488000        +0.58595000
C        +0.62626000        -0.41353000        +0.99871000
C        +1.33008000        +1.39974000        -0.43491000
C        +2.63070000        +1.71700000        +0.32855000
C        +3.04336000        +0.29351000        +0.80300000
C        +1.94423000        -0.59299000        +0.15262000
O        +1.62840000        +0.13663000        -1.04376000
H        +3.37234000        +2.13782000        -0.35195000
H        +2.48236000        +2.42488000        +1.14651000
H        +4.02182000        +0.00994000        +0.41161000
H        +3.07359000        +0.18738000        +1.88928000
C        +0.90028000        +2.39077000        -1.49430000
C        +2.35450000        -2.01267000        -0.16812000
H        +3.26311000        -2.00678000        -0.77366000
H        +2.54990000        -2.57059000        +0.75079000
H        +1.57335000        -2.52896000        -0.72872000
H        +1.71845000        +2.58186000        -2.15686000
H        +0.59919000        +3.30478000        -1.02650000
H        +0.07925000        +1.98653000        -2.04874000
H        +0.81693000        -0.48905000        +2.04887000
H        -0.12524000        -1.15356000        +0.81843000
H        -0.74673000        +1.06811000        +0.13365000
H        +0.15552000        +1.72617000        +1.40828000
@C        +3.22499000        +2.64959000        +2.68623000
@C        +3.62855000        +1.19118000        +3.09899000
@C        +4.33237000        +3.00445000        +1.66537000
@C        +5.63299000        +3.32171000        +2.42883000
@C        +6.04565000        +1.89822000        +2.90328000
@C        +4.94652000        +1.01172000        +2.25290000
@O        +4.63069000        +1.74134000        +1.05652000
@H        +6.37463000        +3.74253000        +1.74833000
@H        +5.48465000        +4.02959000        +3.24679000
@H        +7.02411000        +1.61465000        +2.51189000
@H        +6.07588000        +1.79209000        +3.98956000
@C        +3.90257000        +3.99548000        +0.60598000
@C        +5.35679000        -0.40796000        +1.93216000
@H        +6.26540000        -0.40207000        +1.32662000
@H        +5.55219000        -0.96588000        +2.85107000
@H        +4.57564000        -0.92425000        +1.37156000
@H        +4.72074000        +4.18657000        -0.05658000
@H        +3.60148000        +4.90949000        +1.07378000
@H        +3.08154000        +3.59124000        +0.05154000
@H        +3.81922000        +1.11566000        +4.14915000
@H        +2.87705000        +0.45115000        +2.91871000
@H        +2.25556000        +2.67282000        +2.23393000
@H        +3.15781000        +3.33088000        +3.50856000
$end

$rem
JOBTYPE                   SP
METHOD                    B3LYP
DFT_D                     d3_op
BASIS                     6-311++G(d,p)
SYMMETRY                  False
THRESH                    12
SCF_CONVERGENCE           8
MAX_SUB_FILE_NUM          128
MEM_STATIC                400
MEM_TOTAL                 4000
$end
--------------------------------------------------------------

             Standard Nuclear Orientation (Angstroms)
    I     Atom           X                Y                Z
 ----------------------------------------------------------------
    1      C       0.2227000000     1.0448800000     0.5859500000
    2      C       0.6262600000    -0.4135300000     0.9987100000
    3      C       1.3300800000     1.3997400000    -0.4349100000
    4      C       2.6307000000     1.7170000000     0.3285500000
    5      C       3.0433600000     0.2935100000     0.8030000000
    6      C       1.9442300000    -0.5929900000     0.1526200000
    7      O       1.6284000000     0.1366300000    -1.0437600000
    8      H       3.3723400000     2.1378200000    -0.3519500000
    9      H       2.4823600000     2.4248800000     1.1465100000
   10      H       4.0218200000     0.0099400000     0.4116100000
   11      H       3.0735900000     0.1873800000     1.8892800000
   12      C       0.9002800000     2.3907700000    -1.4943000000
   13      C       2.3545000000    -2.0126700000    -0.1681200000
   14      H       3.2631100000    -2.0067800000    -0.7736600000
   15      H       2.5499000000    -2.5705900000     0.7507900000
   16      H       1.5733500000    -2.5289600000    -0.7287200000
   17      H       1.7184500000     2.5818600000    -2.1568600000
   18      H       0.5991900000     3.3047800000    -1.0265000000
   19      H       0.0792500000     1.9865300000    -2.0487400000
   20      H       0.8169300000    -0.4890500000     2.0488700000
   21      H      -0.1252400000    -1.1535600000     0.8184300000
   22      H      -0.7467300000     1.0681100000     0.1336500000
   23      H       0.1555200000     1.7261700000     1.4082800000
   24      GH      3.2249900000     2.6495900000     2.6862300000
   25      GH      3.6285500000     1.1911800000     3.0989900000
   26      GH      4.3323700000     3.0044500000     1.6653700000
   27      GH      5.6329900000     3.3217100000     2.4288300000
   28      GH      6.0456500000     1.8982200000     2.9032800000
   29      GH      4.9465200000     1.0117200000     2.2529000000
   30      GH      4.6306900000     1.7413400000     1.0565200000
   31      GH      6.3746300000     3.7425300000     1.7483300000
   32      GH      5.4846500000     4.0295900000     3.2467900000
   33      GH      7.0241100000     1.6146500000     2.5118900000
   34      GH      6.0758800000     1.7920900000     3.9895600000
   35      GH      3.9025700000     3.9954800000     0.6059800000
   36      GH      5.3567900000    -0.4079600000     1.9321600000
   37      GH      6.2654000000    -0.4020700000     1.3266200000
   38      GH      5.5521900000    -0.9658800000     2.8510700000
   39      GH      4.5756400000    -0.9242500000     1.3715600000
   40      GH      4.7207400000     4.1865700000    -0.0565800000
   41      GH      3.6014800000     4.9094900000     1.0737800000
   42      GH      3.0815400000     3.5912400000     0.0515400000
   43      GH      3.8192200000     1.1156600000     4.1491500000
   44      GH      2.8770500000     0.4511500000     2.9187100000
   45      GH      2.2555600000     2.6728200000     2.2339300000
   46      GH      3.1578100000     3.3308800000     3.5085600000
 ----------------------------------------------------------------

   12    -388.6337774639      7.02E-09 Convergence criterion met
 Total energy in the final basis set = -388.63377746

                    Orbital Energies (a.u.)
 --------------------------------------------------------------

 Alpha MOs
 -- Occupied --
-19.115 -10.224 -10.221 -10.166 -10.166 -10.162 -10.161 -10.160
-10.151  -1.049  -0.799  -0.789  -0.748  -0.717  -0.652  -0.616
 -0.562  -0.555  -0.486  -0.474  -0.464  -0.444  -0.420  -0.410
 -0.406  -0.402  -0.384  -0.360  -0.346  -0.343  -0.340  -0.333
 -0.316  -0.299  -0.261

          Ground-State Mulliken Net Atomic Charges

     Atom                 Charge (a.u.)
  ----------------------------------------
      1 C                    -0.372575
      2 C                    -0.402789
      3 C                    -0.399349
      4 C                    -0.422527
      5 C                    -0.295790
      6 C                    -0.379995
      7 O                     0.098055
      8 H                     0.217781
      9 H                     0.139771
     10 H                     0.207099
     11 H                     0.150704
     12 C                    -0.117209
     13 C                    -0.196686
     14 H                     0.153664
     15 H                     0.162222
     16 H                     0.171010
     17 H                     0.145929
     18 H                     0.158413
     19 H                     0.168320
     20 H                     0.132159
     21 H                     0.177457
     22 H                     0.163508
     23 H                     0.138661
     24 GH                    0.050722
     25 GH                    0.044968
     26 GH                   -0.035434
     27 GH                   -0.025986
     28 GH                    0.006273
     29 GH                   -0.008301
     30 GH                    0.057793
     31 GH                   -0.000512
     32 GH                    0.000069
     33 GH                    0.000524
     34 GH                   -0.000065
     35 GH                    0.022664
     36 GH                   -0.015496
     37 GH                    0.000399
     38 GH                   -0.001040
     39 GH                    0.046058
     40 GH                   -0.000464
     41 GH                   -0.000395
     42 GH                    0.056962
     43 GH                    0.004472
     44 GH                   -0.007220
     45 GH                    0.003711
     46 GH                    0.002466
  ----------------------------------------
  Sum of atomic charges =     0.000000

                    Cartesian Multipole Moments
 -----------------------------------------------------------------
    Charge (ESU x 10^10)
                 0.0000
    Dipole Moment (Debye)
         X      -0.0284      Y       0.4290      Z       1.5005
       Tot       1.5609
    Quadrupole Moments (Debye-Ang)
        XX     -56.4541     XY       0.1544     YY     -54.7978
        XZ       2.4062     YZ      -0.4800     ZZ     -59.0864

 Total job time:  376.95s(wall), 1492.70s(cpu)
        *  Thank you very much for using Q-Chem.  Have a nice day.  *
