 Q-Chem 5.0, Q-Chem, Inc., Pleasanton, CA (2017)
 Q-Chem 5.0.1 for Intel X86 EM64T Linux

User input:
--------------------------------------------------------------
$molecule
0  1
C        +4.12567000        +3.13101000        +3.31631000
C        +4.52923000        +1.67260000        +3.72907000
C        +5.23305000        +3.48587000        +2.29545000
C        +6.53367000        +3.80313000        +3.05891000
C        +6.94633000        +2.37964000        +3.53336000
C        +5.84720000        +1.49314000        +2.88298000
O        +5.53137000        +2.22276000        +1.68660000
H        +7.27531000        +4.22395000        +2.37841000
H        +6.38533000        +4.51101000        +3.87687000
H        +7.92479000        +2.09607000        +3.14197000
H        +6.97656000        +2.27351000        +4.61964000
C        +4.80325000        +4.47690000        +1.23606000
C        +6.25747000        +0.07346000        +2.56224000
H        +7.16608000        +0.07935000        +1.95670000
H        +6.45287000        -0.48446000        +3.48115000
H        +5.47632000        -0.44283000        +2.00164000
H        +5.62142000        +4.66799000        +0.57350000
H        +4.50216000        +5.39091000        +1.70386000
H        +3.98222000        +4.07266000        +0.68162000
H        +4.71990000        +1.59708000        +4.77923000
H        +3.77773000        +0.93257000        +3.54879000
H        +3.15624000        +3.15424000        +2.86401000
H        +4.05849000        +3.81230000        +4.13864000
@C        +0.22270000        +1.04488000        +0.58595000
@C        +0.62626000        -0.41353000        +0.99871000
@C        +1.33008000        +1.39974000        -0.43491000
@C        +2.63070000        +1.71700000        +0.32855000
@C        +3.04336000        +0.29351000        +0.80300000
@C        +1.94423000        -0.59299000        +0.15262000
@O        +1.62840000        +0.13663000        -1.04376000
@H        +3.37234000        +2.13782000        -0.35195000
@H        +2.48236000        +2.42488000        +1.14651000
@H        +4.02182000        +0.00994000        +0.41161000
@H        +3.07359000        +0.18738000        +1.88928000
@C        +0.90028000        +2.39077000        -1.49430000
@C        +2.35450000        -2.01267000        -0.16812000
@H        +3.26311000        -2.00678000        -0.77366000
@H        +2.54990000        -2.57059000        +0.75079000
@H        +1.57335000        -2.52896000        -0.72872000
@H        +1.71845000        +2.58186000        -2.15686000
@H        +0.59919000        +3.30478000        -1.02650000
@H        +0.07925000        +1.98653000        -2.04874000
@H        +0.81693000        -0.48905000        +2.04887000
@H        -0.12524000        -1.15356000        +0.81843000
@H        -0.74673000        +1.06811000        +0.13365000
@H        +0.15552000        +1.72617000        +1.40828000
$end

$rem
JOBTYPE                   SP
METHOD                    B3LYP
DFT_D                     d3_op
BASIS                     6-311++G(d,p)
SYMMETRY                  False
THRESH                    12
SCF_CONVERGENCE           8
MAX_SUB_FILE_NUM          128
MEM_STATIC                400
MEM_TOTAL                 4000
$end
--------------------------------------------------------------

             Standard Nuclear Orientation (Angstroms)
    I     Atom           X                Y                Z
 ----------------------------------------------------------------
    1      C       4.1256700000     3.1310100000     3.3163100000
    2      C       4.5292300000     1.6726000000     3.7290700000
    3      C       5.2330500000     3.4858700000     2.2954500000
    4      C       6.5336700000     3.8031300000     3.0589100000
    5      C       6.9463300000     2.3796400000     3.5333600000
    6      C       5.8472000000     1.4931400000     2.8829800000
    7      O       5.5313700000     2.2227600000     1.6866000000
    8      H       7.2753100000     4.2239500000     2.3784100000
    9      H       6.3853300000     4.5110100000     3.8768700000
   10      H       7.9247900000     2.0960700000     3.1419700000
   11      H       6.9765600000     2.2735100000     4.6196400000
   12      C       4.8032500000     4.4769000000     1.2360600000
   13      C       6.2574700000     0.0734600000     2.5622400000
   14      H       7.1660800000     0.0793500000     1.9567000000
   15      H       6.4528700000    -0.4844600000     3.4811500000
   16      H       5.4763200000    -0.4428300000     2.0016400000
   17      H       5.6214200000     4.6679900000     0.5735000000
   18      H       4.5021600000     5.3909100000     1.7038600000
   19      H       3.9822200000     4.0726600000     0.6816200000
   20      H       4.7199000000     1.5970800000     4.7792300000
   21      H       3.7777300000     0.9325700000     3.5487900000
   22      H       3.1562400000     3.1542400000     2.8640100000
   23      H       4.0584900000     3.8123000000     4.1386400000
   24      GH      0.2227000000     1.0448800000     0.5859500000
   25      GH      0.6262600000    -0.4135300000     0.9987100000
   26      GH      1.3300800000     1.3997400000    -0.4349100000
   27      GH      2.6307000000     1.7170000000     0.3285500000
   28      GH      3.0433600000     0.2935100000     0.8030000000
   29      GH      1.9442300000    -0.5929900000     0.1526200000
   30      GH      1.6284000000     0.1366300000    -1.0437600000
   31      GH      3.3723400000     2.1378200000    -0.3519500000
   32      GH      2.4823600000     2.4248800000     1.1465100000
   33      GH      4.0218200000     0.0099400000     0.4116100000
   34      GH      3.0735900000     0.1873800000     1.8892800000
   35      GH      0.9002800000     2.3907700000    -1.4943000000
   36      GH      2.3545000000    -2.0126700000    -0.1681200000
   37      GH      3.2631100000    -2.0067800000    -0.7736600000
   38      GH      2.5499000000    -2.5705900000     0.7507900000
   39      GH      1.5733500000    -2.5289600000    -0.7287200000
   40      GH      1.7184500000     2.5818600000    -2.1568600000
   41      GH      0.5991900000     3.3047800000    -1.0265000000
   42      GH      0.0792500000     1.9865300000    -2.0487400000
   43      GH      0.8169300000    -0.4890500000     2.0488700000
   44      GH     -0.1252400000    -1.1535600000     0.8184300000
   45      GH     -0.7467300000     1.0681100000     0.1336500000
   46      GH      0.1555200000     1.7261700000     1.4082800000
 ----------------------------------------------------------------

   12    -388.6334097460      6.96E-09 Convergence criterion met
 Total energy in the final basis set = -388.63340975

                    Orbital Energies (a.u.)
 --------------------------------------------------------------

 Alpha MOs
 -- Occupied --
-19.115 -10.224 -10.221 -10.166 -10.165 -10.162 -10.161 -10.160
-10.151  -1.049  -0.799  -0.789  -0.749  -0.717  -0.652  -0.616
 -0.562  -0.555  -0.486  -0.474  -0.464  -0.444  -0.420  -0.410
 -0.406  -0.402  -0.384  -0.360  -0.346  -0.343  -0.340  -0.333
 -0.316  -0.299  -0.261

          Ground-State Mulliken Net Atomic Charges

     Atom                 Charge (a.u.)
  ----------------------------------------
      1 C                    -0.331809
      2 C                    -0.332592
      3 C                     0.129402
      4 C                    -0.577550
      5 C                    -0.521372
      6 C                     0.142243
      7 O                     0.046639
      8 H                     0.155863
      9 H                     0.138089
     10 H                     0.159081
     11 H                     0.135740
     12 C                    -0.238769
     13 C                    -0.318955
     14 H                     0.155033
     15 H                     0.149082
     16 H                     0.139760
     17 H                     0.150414
     18 H                     0.146622
     19 H                     0.127555
     20 H                     0.168365
     21 H                     0.157510
     22 H                     0.140709
     23 H                     0.181176
     24 GH                   -0.004042
     25 GH                    0.001362
     26 GH                   -0.048216
     27 GH                   -0.013327
     28 GH                    0.004825
     29 GH                   -0.048740
     30 GH                    0.000794
     31 GH                    0.013063
     32 GH                   -0.022046
     33 GH                    0.017690
     34 GH                   -0.019114
     35 GH                    0.007751
     36 GH                    0.001481
     37 GH                   -0.000857
     38 GH                    0.001411
     39 GH                    0.000130
     40 GH                   -0.000604
     41 GH                    0.001491
     42 GH                    0.000128
     43 GH                    0.002189
     44 GH                   -0.000126
     45 GH                   -0.000407
     46 GH                    0.002928
  ----------------------------------------
  Sum of atomic charges =     0.000000

                    Cartesian Multipole Moments
 -----------------------------------------------------------------
    Charge (ESU x 10^10)
                 0.0000
    Dipole Moment (Debye)
         X      -0.0327      Y       0.4297      Z       1.5035
       Tot       1.5640
    Quadrupole Moments (Debye-Ang)
        XX     -56.7242     XY       1.7504     YY     -53.0156
        XZ       8.1524     YZ       3.8180     ZZ     -50.8832

 Total job time:  291.21s(wall), 1150.86s(cpu)
        *  Thank you very much for using Q-Chem.  Have a nice day.  *
