 Q-Chem 5.0, Q-Chem, Inc., Pleasanton, CA (2017)
 Q-Chem 5.0.1 for Intel X86 EM64T Linux

User input:
--------------------------------------------------------------
$molecule
0  1
--
0  1
C        -0.54444000        -0.68370000        -0.06689000
C        -0.55709000        +0.71878000        +0.05493000
C        -1.74320000        -1.41616000        -0.12552000
C        -2.93952000        -0.70056000        -0.05285000
C        -2.95313000        +0.68255000        +0.06934000
C        -1.77161000        +1.42404000        +0.12810000
H        -3.90354000        +1.20325000        +0.11710000
H        -3.87892000        -1.24211000        -0.08988000
C        -1.83960000        +2.92746000        +0.24839000
H        -1.24214000        +3.42352000        -0.52065000
H        -1.45503000        +3.26427000        +1.21284000
H        -2.87211000        +3.26623000        +0.14638000
H        -1.73878000        -2.44393000        -0.21875000
H        +0.35825000        -1.18166000        -0.11386000
H        +0.33551000        +1.23549000        +0.09097000
--
0  1
C        -0.50866000        -1.13710000        +5.11318000
C        -0.52131000        +0.26538000        +5.23500000
C        -1.70742000        -1.86956000        +5.05455000
C        -2.90374000        -1.15396000        +5.12722000
C        -2.91735000        +0.22915000        +5.24941000
C        -1.73583000        +0.97064000        +5.30817000
H        -3.86776000        +0.74985000        +5.29717000
H        -3.84314000        -1.69551000        +5.09019000
C        -1.80382000        +2.47406000        +5.42846000
H        -1.20636000        +2.97012000        +4.65942000
H        -1.41925000        +2.81087000        +6.39291000
H        -2.83633000        +2.81283000        +5.32645000
H        -1.70300000        -2.89733000        +4.96132000
H        +0.39403000        -1.63506000        +5.06621000
H        +0.37129000        +0.78209000        +5.27104000
$end

$rem
JOBTYPE                   SP
METHOD                    B3LYP
DFT_D                     d3_op
BASIS                     6-311++G(d,p)
SYMMETRY                  False
THRESH                    12
SCF_CONVERGENCE           8
MAX_SUB_FILE_NUM          128
MEM_STATIC                400
MEM_TOTAL                 4000
$end
--------------------------------------------------------------

             Standard Nuclear Orientation (Angstroms)
    I     Atom           X                Y                Z
 ----------------------------------------------------------------
    1      C       2.5964192284    -1.2310392481     1.1901509283
    2      C       2.5986772458     0.1764904704     1.2185283521
    3      C       2.5986422975    -1.9305857371    -0.0295172371
    4      C       2.5975897538    -1.1768227818    -1.2044155861
    5      C       2.5977800073     0.2114813462    -1.1775732268
    6      C       2.5963424816     0.9205324123     0.0251296407
    7      H       2.6026670601     0.7618266156    -2.1123378372
    8      H       2.5933083941    -1.6919340575    -2.1592778940
    9      C       2.6093986070     2.4300424025     0.0011891407
   10      H       3.4149679098     2.8386974311     0.6164254067
   11      H       1.6757097291     2.8392911666     0.3913678072
   12      H       2.7480182628     2.7884213011    -1.0203769165
   13      H       2.6009632626    -2.9622641950    -0.0551436888
   14      H       2.5930794819    -1.7572831867     2.0778872303
   15      H       2.6020822772     0.6681450645     2.1258800102
   16      C      -2.6035765359    -1.2264589812     1.1899358808
   17      C      -2.6013185184     0.1810707373     1.2183133045
   18      C      -2.6013534668    -1.9260054702    -0.0297322846
   19      C      -2.6024060105    -1.1722425148    -1.2046306337
   20      C      -2.6022157569     0.2160616132    -1.1777882743
   21      C      -2.6036532827     0.9251126793     0.0249145931
   22      H      -2.5973287041     0.7664068826    -2.1125528847
   23      H      -2.6066873701    -1.6873537905    -2.1594929416
   24      C      -2.5905971572     2.4346226695     0.0009740932
   25      H      -1.7850278545     2.8432776980     0.6162103591
   26      H      -3.5242860352     2.8438714336     0.3911527597
   27      H      -2.4519775015     2.7930015681    -1.0205919640
   28      H      -2.5990325017    -2.9576839280    -0.0553587363
   29      H      -2.6069162823    -1.7527029197     2.0776721828
   30      H      -2.5979134871     0.6727253315     2.1256649627
 ----------------------------------------------------------------

   13    -543.2878460054      5.29E-09 Convergence criterion met
 Total energy in the final basis set = -543.28784601

                    Orbital Energies (a.u.)
 --------------------------------------------------------------

 Alpha MOs
 -- Occupied --
-10.182 -10.182 -10.171 -10.171 -10.169 -10.169 -10.168 -10.168
-10.168 -10.168 -10.166 -10.166 -10.166 -10.166  -0.855  -0.855
 -0.773  -0.773  -0.744  -0.744  -0.689  -0.689  -0.608  -0.608
 -0.588  -0.588  -0.518  -0.518  -0.462  -0.462  -0.460  -0.460
 -0.423  -0.421  -0.420  -0.420  -0.415  -0.415  -0.388  -0.388
 -0.356  -0.353  -0.348  -0.348  -0.340  -0.339  -0.252  -0.250
 -0.245  -0.243

          Ground-State Mulliken Net Atomic Charges

     Atom                 Charge (a.u.)
  ----------------------------------------
      1 C                    -0.060339
      2 C                    -0.423994
      3 C                    -0.316578
      4 C                    -0.109096
      5 C                    -0.624152
      6 C                     0.947344
      7 H                     0.143603
      8 H                     0.166629
      9 C                    -0.637262
     10 H                     0.146097
     11 H                     0.153950
     12 H                     0.144629
     13 H                     0.148813
     14 H                     0.156919
     15 H                     0.162979
     16 C                    -0.119975
     17 C                    -0.378520
     18 C                    -0.298639
     19 C                    -0.172020
     20 C                    -0.502379
     21 C                     0.887723
     22 H                     0.144223
     23 H                     0.168175
     24 C                    -0.648459
     25 H                     0.147889
     26 H                     0.157715
     27 H                     0.144581
     28 H                     0.148841
     29 H                     0.158405
     30 H                     0.162899
  ----------------------------------------
  Sum of atomic charges =     0.000000

                    Cartesian Multipole Moments
 -----------------------------------------------------------------
    Charge (ESU x 10^10)
                 0.0000
    Dipole Moment (Debye)
         X      -0.0068      Y       0.6606      Z       0.1312
       Tot       0.6735
    Quadrupole Moments (Debye-Ang)
        XX     -93.9429     XY       0.0412     YY     -77.1499
        XZ      -0.0304     YZ       0.0574     ZZ     -78.4052

 Total job time:  84.48s(wall), 336.87s(cpu)
        *  Thank you very much for using Q-Chem.  Have a nice day.  *
