 Q-Chem 5.0, Q-Chem, Inc., Pleasanton, CA (2017)
 Q-Chem 5.0.1 for Intel X86 EM64T Linux

User input:
--------------------------------------------------------------
$molecule
0  1
C        -0.55335000        -0.66344000        -0.04955000
C        -0.58369000        +0.72363000        +0.07143000
C        -1.74416000        -1.38805000        -0.12104000
C        -2.96100000        -0.71253000        -0.06974000
C        -2.98560000        +0.67733000        +0.05133000
C        -1.80096000        +1.41593000        +0.12202000
H        -3.93869000        +1.19496000        +0.09042000
H        -3.89285000        -1.26490000        -0.12448000
C        -1.82561000        +2.92062000        +0.24749000
H        -1.30124000        +3.39464000        -0.58804000
H        -1.33421000        +3.24931000        +1.16844000
H        -2.84892000        +3.30103000        +0.25949000
H        -1.72216000        -2.46788000        -0.21620000
H        +0.39889000        -1.18111000        -0.08841000
H        +0.34820000        +1.27792000        +0.12648000
@C        -0.57983000        -1.01129000        +3.93521000
@C        -0.61017000        +0.37578000        +4.05619000
@C        -1.77064000        -1.73590000        +3.86372000
@C        -2.98748000        -1.06038000        +3.91502000
@C        -3.01208000        +0.32948000        +4.03609000
@C        -1.82744000        +1.06808000        +4.10678000
@H        -3.96517000        +0.84711000        +4.07518000
@H        -3.91933000        -1.61275000        +3.86028000
@C        -1.85209000        +2.57277000        +4.23225000
@H        -1.32772000        +3.04679000        +3.39672000
@H        -1.36069000        +2.90146000        +5.15320000
@H        -2.87540000        +2.95318000        +4.24425000
@H        -1.74864000        -2.81573000        +3.76856000
@H        +0.37241000        -1.52896000        +3.89635000
@H        +0.32172000        +0.93007000        +4.11124000
$end

$rem
JOBTYPE                   SP
METHOD                    B3LYP
DFT_D                     d3_op
BASIS                     6-311++G(d,p)
SYMMETRY                  False
THRESH                    12
SCF_CONVERGENCE           8
MAX_SUB_FILE_NUM          128
MEM_STATIC                400
MEM_TOTAL                 4000
$end
--------------------------------------------------------------

             Standard Nuclear Orientation (Angstroms)
    I     Atom           X                Y                Z
 ----------------------------------------------------------------
    1      C      -0.5533500000    -0.6634400000    -0.0495500000
    2      C      -0.5836900000     0.7236300000     0.0714300000
    3      C      -1.7441600000    -1.3880500000    -0.1210400000
    4      C      -2.9610000000    -0.7125300000    -0.0697400000
    5      C      -2.9856000000     0.6773300000     0.0513300000
    6      C      -1.8009600000     1.4159300000     0.1220200000
    7      H      -3.9386900000     1.1949600000     0.0904200000
    8      H      -3.8928500000    -1.2649000000    -0.1244800000
    9      C      -1.8256100000     2.9206200000     0.2474900000
   10      H      -1.3012400000     3.3946400000    -0.5880400000
   11      H      -1.3342100000     3.2493100000     1.1684400000
   12      H      -2.8489200000     3.3010300000     0.2594900000
   13      H      -1.7221600000    -2.4678800000    -0.2162000000
   14      H       0.3988900000    -1.1811100000    -0.0884100000
   15      H       0.3482000000     1.2779200000     0.1264800000
   16      GH     -0.5798300000    -1.0112900000     3.9352100000
   17      GH     -0.6101700000     0.3757800000     4.0561900000
   18      GH     -1.7706400000    -1.7359000000     3.8637200000
   19      GH     -2.9874800000    -1.0603800000     3.9150200000
   20      GH     -3.0120800000     0.3294800000     4.0360900000
   21      GH     -1.8274400000     1.0680800000     4.1067800000
   22      GH     -3.9651700000     0.8471100000     4.0751800000
   23      GH     -3.9193300000    -1.6127500000     3.8602800000
   24      GH     -1.8520900000     2.5727700000     4.2322500000
   25      GH     -1.3277200000     3.0467900000     3.3967200000
   26      GH     -1.3606900000     2.9014600000     5.1532000000
   27      GH     -2.8754000000     2.9531800000     4.2442500000
   28      GH     -1.7486400000    -2.8157300000     3.7685600000
   29      GH      0.3724100000    -1.5289600000     3.8963500000
   30      GH      0.3217200000     0.9300700000     4.1112400000
 ----------------------------------------------------------------

   13    -271.6504562274      8.86E-10 Convergence criterion met
 Total energy in the final basis set = -271.65045623

                    Orbital Energies (a.u.)
 --------------------------------------------------------------

 Alpha MOs
 -- Occupied --
-10.185 -10.176 -10.175 -10.173 -10.173 -10.173 -10.170  -0.860
 -0.775  -0.748  -0.689  -0.608  -0.587  -0.515  -0.464  -0.457
 -0.424  -0.423  -0.412  -0.389  -0.359  -0.346  -0.343  -0.257
 -0.248

          Ground-State Mulliken Net Atomic Charges

     Atom                 Charge (a.u.)
  ----------------------------------------
      1 C                    -0.206238
      2 C                    -0.189185
      3 C                    -0.320344
      4 C                    -0.265131
      5 C                    -0.215447
      6 C                     0.600364
      7 H                     0.161574
      8 H                     0.173628
      9 C                    -0.726087
     10 H                     0.155288
     11 H                     0.170227
     12 H                     0.140098
     13 H                     0.153940
     14 H                     0.169418
     15 H                     0.180496
     16 GH                   -0.015148
     17 GH                    0.021093
     18 GH                    0.008884
     19 GH                   -0.008369
     20 GH                   -0.012464
     21 GH                   -0.006045
     22 GH                    0.004507
     23 GH                    0.003236
     24 GH                    0.015885
     25 GH                   -0.008634
     26 GH                   -0.000096
     27 GH                    0.001806
     28 GH                    0.003826
     29 GH                    0.003876
     30 GH                    0.005041
  ----------------------------------------
  Sum of atomic charges =    -0.000000

                    Cartesian Multipole Moments
 -----------------------------------------------------------------
    Charge (ESU x 10^10)
                -0.0000
    Dipole Moment (Debye)
         X       0.0351      Y       0.4010      Z       0.0427
       Tot       0.4048
    Quadrupole Moments (Debye-Ang)
        XX     -39.2788     XY      -0.6412     YY     -38.4328
        XZ      -0.0216     YZ       0.7039     ZZ     -46.4560

 Total job time:  101.49s(wall), 403.11s(cpu)
        *  Thank you very much for using Q-Chem.  Have a nice day.  *
