 Q-Chem 5.0, Q-Chem, Inc., Pleasanton, CA (2017)
 Q-Chem 5.0.1 for Intel X86 EM64T Linux

User input:
--------------------------------------------------------------
$molecule
0  1
--
0  1
C        -0.54444000        -0.68370000        -0.06689000
C        -0.55709000        +0.71878000        +0.05493000
C        -1.74320000        -1.41616000        -0.12552000
C        -2.93952000        -0.70056000        -0.05285000
C        -2.95313000        +0.68255000        +0.06934000
C        -1.77161000        +1.42404000        +0.12810000
H        -3.90354000        +1.20325000        +0.11710000
H        -3.87892000        -1.24211000        -0.08988000
C        -1.83960000        +2.92746000        +0.24839000
H        -1.24214000        +3.42352000        -0.52065000
H        -1.45503000        +3.26427000        +1.21284000
H        -2.87211000        +3.26623000        +0.14638000
H        -1.73878000        -2.44393000        -0.21875000
H        +0.35825000        -1.18166000        -0.11386000
H        +0.33551000        +1.23549000        +0.09097000
--
0  1
C        -0.68115000        -0.96969000        +3.92053000
C        -0.69380000        +0.43279000        +4.04235000
C        -1.87991000        -1.70215000        +3.86190000
C        -3.07623000        -0.98655000        +3.93457000
C        -3.08984000        +0.39656000        +4.05676000
C        -1.90832000        +1.13805000        +4.11552000
H        -4.04025000        +0.91726000        +4.10452000
H        -4.01563000        -1.52810000        +3.89754000
C        -1.97631000        +2.64147000        +4.23581000
H        -1.37885000        +3.13753000        +3.46677000
H        -1.59174000        +2.97828000        +5.20026000
H        -3.00882000        +2.98024000        +4.13380000
H        -1.87549000        -2.72992000        +3.76867000
H        +0.22154000        -1.46765000        +3.87356000
H        +0.19880000        +0.94950000        +4.07839000
$end

$rem
JOBTYPE                   SP
METHOD                    B3LYP
DFT_D                     d3_op
BASIS                     6-311++G(d,p)
SYMMETRY                  False
THRESH                    12
SCF_CONVERGENCE           8
MAX_SUB_FILE_NUM          128
MEM_STATIC                400
MEM_TOTAL                 4000
$end
--------------------------------------------------------------

             Standard Nuclear Orientation (Angstroms)
    I     Atom           X                Y                Z
 ----------------------------------------------------------------
    1      C       2.1101938021    -1.1801887903     1.1604491838
    2      C       2.0576862952     0.2263808275     1.1879293064
    3      C       2.0734761103    -1.8823986518    -0.0571360443
    4      C       1.9777978213    -1.1324722337    -1.2305932713
    5      C       1.9239123378     0.2548004722    -1.2045223221
    6      C       1.9601025477     0.9664925847    -0.0039248567
    7      H       1.8554755937     0.8023614101    -2.1384292271
    8      H       1.9417415915    -1.6499351075    -2.1835109519
    9      C       1.9114170463     2.4752497993    -0.0293297740
   10      H       2.7325349101     2.9174088544     0.5405099583
   11      H       0.9849188621     2.8479551203     0.4113409896
   12      H       1.9793220778     2.8361013367    -1.0571542375
   13      H       2.1156645909    -2.9132277585    -0.0823159402
   14      H       2.1766294142    -1.7037336485     2.0473012963
   15      H       2.0911997561     0.7202417908     2.0934684069
   16      C      -1.8884063004    -1.2691630321     1.2177114388
   17      C      -1.9409138072     0.1374065857     1.2451915614
   18      C      -1.9251239922    -1.9713728936     0.0001262107
   19      C      -2.0208022811    -1.2214464755    -1.1733310163
   20      C      -2.0746877646     0.1658262304    -1.1472600671
   21      C      -2.0384975547     0.8775183428     0.0533373983
   22      H      -2.1431245087     0.7133871683    -2.0811669721
   23      H      -2.0568585109    -1.7389093493    -2.1262486968
   24      C      -2.0871830561     2.3862755575     0.0279324810
   25      H      -1.2660651923     2.8284346126     0.5977722134
   26      H      -3.0136812403     2.7589808785     0.4686032446
   27      H      -2.0192780246     2.7471270949    -0.9998919825
   28      H      -1.8829355115    -3.0022020003    -0.0250536852
   29      H      -1.8219706882    -1.7927078903     2.1045635514
   30      H      -1.9074003463     0.6312675490     2.1507306619
 ----------------------------------------------------------------

   14    -543.2898766921      4.99E-09 Convergence criterion met
 Total energy in the final basis set = -543.28987669

                    Orbital Energies (a.u.)
 --------------------------------------------------------------

 Alpha MOs
 -- Occupied --
-10.181 -10.180 -10.169 -10.169 -10.168 -10.167 -10.167 -10.167
-10.166 -10.166 -10.165 -10.164 -10.164 -10.164  -0.854  -0.853
 -0.773  -0.771  -0.743  -0.742  -0.689  -0.687  -0.607  -0.606
 -0.587  -0.586  -0.517  -0.516  -0.461  -0.461  -0.459  -0.458
 -0.431  -0.419  -0.418  -0.415  -0.414  -0.412  -0.388  -0.386
 -0.360  -0.347  -0.346  -0.345  -0.338  -0.337  -0.256  -0.249
 -0.242  -0.236

          Ground-State Mulliken Net Atomic Charges

     Atom                 Charge (a.u.)
  ----------------------------------------
      1 C                    -0.213442
      2 C                    -0.274634
      3 C                    -0.284862
      4 C                    -0.254911
      5 C                    -0.228306
      6 C                     0.710832
      7 H                     0.157045
      8 H                     0.165522
      9 C                    -0.703824
     10 H                     0.149570
     11 H                     0.155461
     12 H                     0.142363
     13 H                     0.146767
     14 H                     0.158173
     15 H                     0.165105
     16 C                    -0.207509
     17 C                    -0.144931
     18 C                    -0.283173
     19 C                    -0.285308
     20 C                    -0.290781
     21 C                     0.630306
     22 H                     0.153542
     23 H                     0.171842
     24 C                    -0.650230
     25 H                     0.137931
     26 H                     0.159500
     27 H                     0.137265
     28 H                     0.143931
     29 H                     0.162130
     30 H                     0.174625
  ----------------------------------------
  Sum of atomic charges =     0.000000

                    Cartesian Multipole Moments
 -----------------------------------------------------------------
    Charge (ESU x 10^10)
                 0.0000
    Dipole Moment (Debye)
         X      -0.0325      Y       0.5789      Z       0.1135
       Tot       0.5908
    Quadrupole Moments (Debye-Ang)
        XX     -94.2494     XY      -0.5979     YY     -77.6255
        XZ       0.7243     YZ       0.0390     ZZ     -78.7031

 Total job time:  109.16s(wall), 434.64s(cpu)
        *  Thank you very much for using Q-Chem.  Have a nice day.  *
