 Q-Chem 5.0, Q-Chem, Inc., Pleasanton, CA (2017)
 Q-Chem 5.0.1 for Intel X86 EM64T Linux

User input:
--------------------------------------------------------------
$molecule
0  1
--
0  1
C        -0.54444000        -0.68370000        -0.06689000
C        -0.55709000        +0.71878000        +0.05493000
C        -1.74320000        -1.41616000        -0.12552000
C        -2.93952000        -0.70056000        -0.05285000
C        -2.95313000        +0.68255000        +0.06934000
C        -1.77161000        +1.42404000        +0.12810000
H        -3.90354000        +1.20325000        +0.11710000
H        -3.87892000        -1.24211000        -0.08988000
C        -1.83960000        +2.92746000        +0.24839000
H        -1.24214000        +3.42352000        -0.52065000
H        -1.45503000        +3.26427000        +1.21284000
H        -2.87211000        +3.26623000        +0.14638000
H        -1.73878000        -2.44393000        -0.21875000
H        +0.35825000        -1.18166000        -0.11386000
H        +0.33551000        +1.23549000        +0.09097000
--
0  1
C        -0.51691000        -1.03247000        +3.91778000
C        -0.52956000        +0.37001000        +4.03960000
C        -1.71567000        -1.76493000        +3.85915000
C        -2.91199000        -1.04933000        +3.93182000
C        -2.92560000        +0.33378000        +4.05401000
C        -1.74408000        +1.07527000        +4.11277000
H        -3.87601000        +0.85448000        +4.10177000
H        -3.85139000        -1.59088000        +3.89479000
C        -1.81207000        +2.57869000        +4.23306000
H        -1.21461000        +3.07475000        +3.46402000
H        -1.42750000        +2.91550000        +5.19751000
H        -2.84458000        +2.91746000        +4.13105000
H        -1.71125000        -2.79270000        +3.76592000
H        +0.38578000        -1.53043000        +3.87081000
H        +0.36304000        +0.88672000        +4.07564000
$end

$rem
JOBTYPE                   SP
METHOD                    B3LYP
DFT_D                     d3_op
BASIS                     6-311++G(d,p)
SYMMETRY                  False
THRESH                    12
SCF_CONVERGENCE           8
MAX_SUB_FILE_NUM          128
MEM_STATIC                400
MEM_TOTAL                 4000
$end
--------------------------------------------------------------

             Standard Nuclear Orientation (Angstroms)
    I     Atom           X                Y                Z
 ----------------------------------------------------------------
    1      C       1.9945254597    -1.2334998608     1.1902047347
    2      C       1.9988911828     0.1740249008     1.2185820323
    3      C       1.9957504307    -1.9330491599    -0.0294632298
    4      C       1.9958754193    -1.1792857284    -1.2043617382
    5      C       1.9981446385     0.2090165621    -1.1775195868
    6      C       1.9977201463     0.9180692470     0.0251831105
    7      H       2.0038945923     0.7593536889    -2.1122840815
    8      H       1.9908614442    -1.6943902183    -2.1592241408
    9      C       2.0130389058     2.4275579760     0.0012429114
   10      H       2.8191943512     2.8350057118     0.6165121510
   11      H       1.0799482437     2.8382052916     0.3913832220
   12      H       2.1522372531     2.7857285599    -1.0203175156
   13      H       1.9965267021    -2.9647299428    -0.0550894260
   14      H       1.9903608496    -1.7597380124     2.0779409807
   15      H       2.0029956344     0.6656740382     2.1259337529
   16      C      -2.0054623871    -1.2239843704     1.1898821608
   17      C      -2.0010966640     0.1835403913     1.2182594584
   18      C      -2.0042374161    -1.9235336695    -0.0297858037
   19      C      -2.0041124274    -1.1697702379    -1.2046843121
   20      C      -2.0018432082     0.2185320526    -1.1778421607
   21      C      -2.0022677005     0.9275847375     0.0248605366
   22      H      -1.9960932544     0.7688691794    -2.1126066554
   23      H      -2.0091264026    -1.6848747278    -2.1595467147
   24      C      -1.9869489410     2.4370734665     0.0009203376
   25      H      -1.1807934955     2.8445212023     0.6161895771
   26      H      -2.9200396031     2.8477207821     0.3910606481
   27      H      -1.8477505937     2.7952440504    -1.0206400895
   28      H      -2.0034611447    -2.9552144523    -0.0554119999
   29      H      -2.0096269971    -1.7502225219     2.0776184068
   30      H      -1.9969922123     0.6751895287     2.1256111790
 ----------------------------------------------------------------

   13    -543.2898789342      6.03E-09 Convergence criterion met
 Total energy in the final basis set = -543.28987893

                    Orbital Energies (a.u.)
 --------------------------------------------------------------

 Alpha MOs
 -- Occupied --
-10.181 -10.180 -10.169 -10.169 -10.168 -10.167 -10.167 -10.167
-10.166 -10.166 -10.165 -10.164 -10.164 -10.164  -0.854  -0.853
 -0.773  -0.771  -0.743  -0.742  -0.689  -0.687  -0.607  -0.606
 -0.587  -0.586  -0.517  -0.516  -0.461  -0.461  -0.459  -0.458
 -0.430  -0.419  -0.418  -0.415  -0.414  -0.412  -0.388  -0.386
 -0.360  -0.347  -0.346  -0.345  -0.338  -0.337  -0.256  -0.249
 -0.242  -0.236

          Ground-State Mulliken Net Atomic Charges

     Atom                 Charge (a.u.)
  ----------------------------------------
      1 C                    -0.157271
      2 C                    -0.335393
      3 C                    -0.260784
      4 C                    -0.316224
      5 C                    -0.207397
      6 C                     0.713486
      7 H                     0.158859
      8 H                     0.163069
      9 C                    -0.689270
     10 H                     0.149772
     11 H                     0.161604
     12 H                     0.141319
     13 H                     0.146914
     14 H                     0.159714
     15 H                     0.164986
     16 C                    -0.261469
     17 C                    -0.090704
     18 C                    -0.308190
     19 C                    -0.222020
     20 C                    -0.296575
     21 C                     0.608079
     22 H                     0.153868
     23 H                     0.173260
     24 C                    -0.656191
     25 H                     0.131182
     26 H                     0.159274
     27 H                     0.136573
     28 H                     0.143647
     29 H                     0.160824
     30 H                     0.175058
  ----------------------------------------
  Sum of atomic charges =     0.000000

                    Cartesian Multipole Moments
 -----------------------------------------------------------------
    Charge (ESU x 10^10)
                 0.0000
    Dipole Moment (Debye)
         X      -0.0163      Y       0.5784      Z       0.1147
       Tot       0.5899
    Quadrupole Moments (Debye-Ang)
        XX     -94.3140     XY       0.0489     YY     -77.6046
        XZ      -0.0313     YZ       0.0140     ZZ     -78.6594

 Total job time:  102.29s(wall), 407.83s(cpu)
        *  Thank you very much for using Q-Chem.  Have a nice day.  *
