 Q-Chem 5.0, Q-Chem, Inc., Pleasanton, CA (2017)
 Q-Chem 5.0.1 for Intel X86 EM64T Linux

User input:
--------------------------------------------------------------
$molecule
0  1
C        -0.72216000        -1.05549000        +5.11676000
C        -0.73481000        +0.34699000        +5.23858000
C        -1.92092000        -1.78795000        +5.05813000
C        -3.11724000        -1.07235000        +5.13080000
C        -3.13085000        +0.31076000        +5.25299000
C        -1.94933000        +1.05225000        +5.31175000
H        -4.08126000        +0.83146000        +5.30075000
H        -4.05664000        -1.61390000        +5.09377000
C        -2.01732000        +2.55567000        +5.43204000
H        -1.41986000        +3.05173000        +4.66300000
H        -1.63275000        +2.89248000        +6.39649000
H        -3.04983000        +2.89444000        +5.33003000
H        -1.91650000        -2.81572000        +4.96490000
H        +0.18053000        -1.55345000        +5.06979000
H        +0.15779000        +0.86370000        +5.27462000
@C        -0.54444000        -0.68370000        -0.06689000
@C        -0.55709000        +0.71878000        +0.05493000
@C        -1.74320000        -1.41616000        -0.12552000
@C        -2.93952000        -0.70056000        -0.05285000
@C        -2.95313000        +0.68255000        +0.06934000
@C        -1.77161000        +1.42404000        +0.12810000
@H        -3.90354000        +1.20325000        +0.11710000
@H        -3.87892000        -1.24211000        -0.08988000
@C        -1.83960000        +2.92746000        +0.24839000
@H        -1.24214000        +3.42352000        -0.52065000
@H        -1.45503000        +3.26427000        +1.21284000
@H        -2.87211000        +3.26623000        +0.14638000
@H        -1.73878000        -2.44393000        -0.21875000
@H        +0.35825000        -1.18166000        -0.11386000
@H        +0.33551000        +1.23549000        +0.09097000
$end

$rem
JOBTYPE                   SP
METHOD                    B3LYP
DFT_D                     d3_op
BASIS                     6-311++G(d,p)
SYMMETRY                  False
THRESH                    12
SCF_CONVERGENCE           8
MAX_SUB_FILE_NUM          128
MEM_STATIC                400
MEM_TOTAL                 4000
$end
--------------------------------------------------------------

             Standard Nuclear Orientation (Angstroms)
    I     Atom           X                Y                Z
 ----------------------------------------------------------------
    1      C      -0.7221600000    -1.0554900000     5.1167600000
    2      C      -0.7348100000     0.3469900000     5.2385800000
    3      C      -1.9209200000    -1.7879500000     5.0581300000
    4      C      -3.1172400000    -1.0723500000     5.1308000000
    5      C      -3.1308500000     0.3107600000     5.2529900000
    6      C      -1.9493300000     1.0522500000     5.3117500000
    7      H      -4.0812600000     0.8314600000     5.3007500000
    8      H      -4.0566400000    -1.6139000000     5.0937700000
    9      C      -2.0173200000     2.5556700000     5.4320400000
   10      H      -1.4198600000     3.0517300000     4.6630000000
   11      H      -1.6327500000     2.8924800000     6.3964900000
   12      H      -3.0498300000     2.8944400000     5.3300300000
   13      H      -1.9165000000    -2.8157200000     4.9649000000
   14      H       0.1805300000    -1.5534500000     5.0697900000
   15      H       0.1577900000     0.8637000000     5.2746200000
   16      GH     -0.5444400000    -0.6837000000    -0.0668900000
   17      GH     -0.5570900000     0.7187800000     0.0549300000
   18      GH     -1.7432000000    -1.4161600000    -0.1255200000
   19      GH     -2.9395200000    -0.7005600000    -0.0528500000
   20      GH     -2.9531300000     0.6825500000     0.0693400000
   21      GH     -1.7716100000     1.4240400000     0.1281000000
   22      GH     -3.9035400000     1.2032500000     0.1171000000
   23      GH     -3.8789200000    -1.2421100000    -0.0898800000
   24      GH     -1.8396000000     2.9274600000     0.2483900000
   25      GH     -1.2421400000     3.4235200000    -0.5206500000
   26      GH     -1.4550300000     3.2642700000     1.2128400000
   27      GH     -2.8721100000     3.2662300000     0.1463800000
   28      GH     -1.7387800000    -2.4439300000    -0.2187500000
   29      GH      0.3582500000    -1.1816600000    -0.1138600000
   30      GH      0.3355100000     1.2354900000     0.0909700000
 ----------------------------------------------------------------

   12    -271.6437383779      9.67E-09 Convergence criterion met
 Total energy in the final basis set = -271.64373838

                    Orbital Energies (a.u.)
 --------------------------------------------------------------

 Alpha MOs
 -- Occupied --
-10.185 -10.174 -10.172 -10.171 -10.170 -10.169 -10.169  -0.858
 -0.776  -0.747  -0.691  -0.611  -0.591  -0.521  -0.465  -0.462
 -0.424  -0.423  -0.418  -0.390  -0.358  -0.350  -0.342  -0.255
 -0.247

          Ground-State Mulliken Net Atomic Charges

     Atom                 Charge (a.u.)
  ----------------------------------------
      1 C                    -0.115973
      2 C                    -0.375776
      3 C                    -0.315136
      4 C                    -0.160457
      5 C                    -0.509634
      6 C                     0.879104
      7 H                     0.146814
      8 H                     0.171854
      9 C                    -0.644473
     10 H                     0.152641
     11 H                     0.158667
     12 H                     0.145764
     13 H                     0.150106
     14 H                     0.161022
     15 H                     0.165755
     16 GH                   -0.014312
     17 GH                    0.010762
     18 GH                    0.014828
     19 GH                   -0.012347
     20 GH                   -0.004815
     21 GH                   -0.007924
     22 GH                   -0.000763
     23 GH                   -0.000384
     24 GH                    0.006253
     25 GH                   -0.000271
     26 GH                   -0.002079
     27 GH                    0.000763
     28 GH                    0.001359
     29 GH                   -0.000990
     30 GH                   -0.000357
  ----------------------------------------
  Sum of atomic charges =     0.000000

                    Cartesian Multipole Moments
 -----------------------------------------------------------------
    Charge (ESU x 10^10)
                 0.0000
    Dipole Moment (Debye)
         X       0.0623      Y       0.3870      Z       0.0343
       Tot       0.3935
    Quadrupole Moments (Debye-Ang)
        XX     -39.3801     XY      -0.7214     YY     -38.3618
        XZ       0.2290     YZ       2.7207     ZZ     -46.0609

 Total job time:  76.93s(wall), 305.85s(cpu)
        *  Thank you very much for using Q-Chem.  Have a nice day.  *
