 Q-Chem 5.0, Q-Chem, Inc., Pleasanton, CA (2017)
 Q-Chem 5.0.1 for Intel X86 EM64T Linux

User input:
--------------------------------------------------------------
$molecule
0  1
C        -0.54444000        -0.68370000        -0.06689000
C        -0.55709000        +0.71878000        +0.05493000
C        -1.74320000        -1.41616000        -0.12552000
C        -2.93952000        -0.70056000        -0.05285000
C        -2.95313000        +0.68255000        +0.06934000
C        -1.77161000        +1.42404000        +0.12810000
H        -3.90354000        +1.20325000        +0.11710000
H        -3.87892000        -1.24211000        -0.08988000
C        -1.83960000        +2.92746000        +0.24839000
H        -1.24214000        +3.42352000        -0.52065000
H        -1.45503000        +3.26427000        +1.21284000
H        -2.87211000        +3.26623000        +0.14638000
H        -1.73878000        -2.44393000        -0.21875000
H        +0.35825000        -1.18166000        -0.11386000
H        +0.33551000        +1.23549000        +0.09097000
@C        -0.51691000        -1.03247000        +3.91778000
@C        -0.52956000        +0.37001000        +4.03960000
@C        -1.71567000        -1.76493000        +3.85915000
@C        -2.91199000        -1.04933000        +3.93182000
@C        -2.92560000        +0.33378000        +4.05401000
@C        -1.74408000        +1.07527000        +4.11277000
@H        -3.87601000        +0.85448000        +4.10177000
@H        -3.85139000        -1.59088000        +3.89479000
@C        -1.81207000        +2.57869000        +4.23306000
@H        -1.21461000        +3.07475000        +3.46402000
@H        -1.42750000        +2.91550000        +5.19751000
@H        -2.84458000        +2.91746000        +4.13105000
@H        -1.71125000        -2.79270000        +3.76592000
@H        +0.38578000        -1.53043000        +3.87081000
@H        +0.36304000        +0.88672000        +4.07564000
$end

$rem
JOBTYPE                   SP
METHOD                    B3LYP
DFT_D                     d3_op
BASIS                     6-311++G(d,p)
SYMMETRY                  False
THRESH                    12
SCF_CONVERGENCE           8
MAX_SUB_FILE_NUM          128
MEM_STATIC                400
MEM_TOTAL                 4000
$end
--------------------------------------------------------------

             Standard Nuclear Orientation (Angstroms)
    I     Atom           X                Y                Z
 ----------------------------------------------------------------
    1      C      -0.5444400000    -0.6837000000    -0.0668900000
    2      C      -0.5570900000     0.7187800000     0.0549300000
    3      C      -1.7432000000    -1.4161600000    -0.1255200000
    4      C      -2.9395200000    -0.7005600000    -0.0528500000
    5      C      -2.9531300000     0.6825500000     0.0693400000
    6      C      -1.7716100000     1.4240400000     0.1281000000
    7      H      -3.9035400000     1.2032500000     0.1171000000
    8      H      -3.8789200000    -1.2421100000    -0.0898800000
    9      C      -1.8396000000     2.9274600000     0.2483900000
   10      H      -1.2421400000     3.4235200000    -0.5206500000
   11      H      -1.4550300000     3.2642700000     1.2128400000
   12      H      -2.8721100000     3.2662300000     0.1463800000
   13      H      -1.7387800000    -2.4439300000    -0.2187500000
   14      H       0.3582500000    -1.1816600000    -0.1138600000
   15      H       0.3355100000     1.2354900000     0.0909700000
   16      GH     -0.5169100000    -1.0324700000     3.9177800000
   17      GH     -0.5295600000     0.3700100000     4.0396000000
   18      GH     -1.7156700000    -1.7649300000     3.8591500000
   19      GH     -2.9119900000    -1.0493300000     3.9318200000
   20      GH     -2.9256000000     0.3337800000     4.0540100000
   21      GH     -1.7440800000     1.0752700000     4.1127700000
   22      GH     -3.8760100000     0.8544800000     4.1017700000
   23      GH     -3.8513900000    -1.5908800000     3.8947900000
   24      GH     -1.8120700000     2.5786900000     4.2330600000
   25      GH     -1.2146100000     3.0747500000     3.4640200000
   26      GH     -1.4275000000     2.9155000000     5.1975100000
   27      GH     -2.8445800000     2.9174600000     4.1310500000
   28      GH     -1.7112500000    -2.7927000000     3.7659200000
   29      GH      0.3857800000    -1.5304300000     3.8708100000
   30      GH      0.3630400000     0.8867200000     4.0756400000
 ----------------------------------------------------------------

   13    -271.6436708577      1.50E-09 Convergence criterion met
 Total energy in the final basis set = -271.64367086

                    Orbital Energies (a.u.)
 --------------------------------------------------------------

 Alpha MOs
 -- Occupied --
-10.185 -10.174 -10.172 -10.171 -10.170 -10.169 -10.169  -0.858
 -0.776  -0.747  -0.691  -0.611  -0.591  -0.521  -0.465  -0.462
 -0.424  -0.423  -0.418  -0.390  -0.358  -0.350  -0.342  -0.255
 -0.247

          Ground-State Mulliken Net Atomic Charges

     Atom                 Charge (a.u.)
  ----------------------------------------
      1 C                    -0.180661
      2 C                    -0.268958
      3 C                    -0.278180
      4 C                    -0.288820
      5 C                    -0.224871
      6 C                     0.666643
      7 H                     0.159069
      8 H                     0.167745
      9 C                    -0.721626
     10 H                     0.151175
     11 H                     0.173714
     12 H                     0.141477
     13 H                     0.147906
     14 H                     0.161073
     15 H                     0.170808
     16 GH                   -0.024076
     17 GH                    0.053044
     18 GH                    0.002125
     19 GH                    0.010797
     20 GH                   -0.040592
     21 GH                   -0.015610
     22 GH                    0.002850
     23 GH                    0.005569
     24 GH                    0.021893
     25 GH                   -0.008166
     26 GH                   -0.000211
     27 GH                    0.001515
     28 GH                    0.002936
     29 GH                    0.004052
     30 GH                    0.007381
  ----------------------------------------
  Sum of atomic charges =     0.000000

                    Cartesian Multipole Moments
 -----------------------------------------------------------------
    Charge (ESU x 10^10)
                 0.0000
    Dipole Moment (Debye)
         X       0.0611      Y       0.3878      Z       0.0458
       Tot       0.3953
    Quadrupole Moments (Debye-Ang)
        XX     -39.4025     XY      -0.6307     YY     -38.1241
        XZ      -0.1127     YZ       0.7181     ZZ     -46.3621

 Total job time:  95.74s(wall), 381.83s(cpu)
        *  Thank you very much for using Q-Chem.  Have a nice day.  *
