 Q-Chem 5.0, Q-Chem, Inc., Pleasanton, CA (2017)
 Q-Chem 5.0.1 for Intel X86 EM64T Linux

User input:
--------------------------------------------------------------
$molecule
0  1
C        -0.54444000        -0.68370000        -0.06689000
C        -0.55709000        +0.71878000        +0.05493000
C        -1.74320000        -1.41616000        -0.12552000
C        -2.93952000        -0.70056000        -0.05285000
C        -2.95313000        +0.68255000        +0.06934000
C        -1.77161000        +1.42404000        +0.12810000
H        -3.90354000        +1.20325000        +0.11710000
H        -3.87892000        -1.24211000        -0.08988000
C        -1.83960000        +2.92746000        +0.24839000
H        -1.24214000        +3.42352000        -0.52065000
H        -1.45503000        +3.26427000        +1.21284000
H        -2.87211000        +3.26623000        +0.14638000
H        -1.73878000        -2.44393000        -0.21875000
H        +0.35825000        -1.18166000        -0.11386000
H        +0.33551000        +1.23549000        +0.09097000
@C        -0.50866000        -1.13710000        +5.11318000
@C        -0.52131000        +0.26538000        +5.23500000
@C        -1.70742000        -1.86956000        +5.05455000
@C        -2.90374000        -1.15396000        +5.12722000
@C        -2.91735000        +0.22915000        +5.24941000
@C        -1.73583000        +0.97064000        +5.30817000
@H        -3.86776000        +0.74985000        +5.29717000
@H        -3.84314000        -1.69551000        +5.09019000
@C        -1.80382000        +2.47406000        +5.42846000
@H        -1.20636000        +2.97012000        +4.65942000
@H        -1.41925000        +2.81087000        +6.39291000
@H        -2.83633000        +2.81283000        +5.32645000
@H        -1.70300000        -2.89733000        +4.96132000
@H        +0.39403000        -1.63506000        +5.06621000
@H        +0.37129000        +0.78209000        +5.27104000
$end

$rem
JOBTYPE                   SP
METHOD                    B3LYP
DFT_D                     d3_op
BASIS                     6-311++G(d,p)
SYMMETRY                  False
THRESH                    12
SCF_CONVERGENCE           8
MAX_SUB_FILE_NUM          128
MEM_STATIC                400
MEM_TOTAL                 4000
$end
--------------------------------------------------------------

             Standard Nuclear Orientation (Angstroms)
    I     Atom           X                Y                Z
 ----------------------------------------------------------------
    1      C      -0.5444400000    -0.6837000000    -0.0668900000
    2      C      -0.5570900000     0.7187800000     0.0549300000
    3      C      -1.7432000000    -1.4161600000    -0.1255200000
    4      C      -2.9395200000    -0.7005600000    -0.0528500000
    5      C      -2.9531300000     0.6825500000     0.0693400000
    6      C      -1.7716100000     1.4240400000     0.1281000000
    7      H      -3.9035400000     1.2032500000     0.1171000000
    8      H      -3.8789200000    -1.2421100000    -0.0898800000
    9      C      -1.8396000000     2.9274600000     0.2483900000
   10      H      -1.2421400000     3.4235200000    -0.5206500000
   11      H      -1.4550300000     3.2642700000     1.2128400000
   12      H      -2.8721100000     3.2662300000     0.1463800000
   13      H      -1.7387800000    -2.4439300000    -0.2187500000
   14      H       0.3582500000    -1.1816600000    -0.1138600000
   15      H       0.3355100000     1.2354900000     0.0909700000
   16      GH     -0.5086600000    -1.1371000000     5.1131800000
   17      GH     -0.5213100000     0.2653800000     5.2350000000
   18      GH     -1.7074200000    -1.8695600000     5.0545500000
   19      GH     -2.9037400000    -1.1539600000     5.1272200000
   20      GH     -2.9173500000     0.2291500000     5.2494100000
   21      GH     -1.7358300000     0.9706400000     5.3081700000
   22      GH     -3.8677600000     0.7498500000     5.2971700000
   23      GH     -3.8431400000    -1.6955100000     5.0901900000
   24      GH     -1.8038200000     2.4740600000     5.4284600000
   25      GH     -1.2063600000     2.9701200000     4.6594200000
   26      GH     -1.4192500000     2.8108700000     6.3929100000
   27      GH     -2.8363300000     2.8128300000     5.3264500000
   28      GH     -1.7030000000    -2.8973300000     4.9613200000
   29      GH      0.3940300000    -1.6350600000     5.0662100000
   30      GH      0.3712900000     0.7820900000     5.2710400000
 ----------------------------------------------------------------

   12    -271.6437315111      9.75E-09 Convergence criterion met
 Total energy in the final basis set = -271.64373151

                    Orbital Energies (a.u.)
 --------------------------------------------------------------

 Alpha MOs
 -- Occupied --
-10.185 -10.174 -10.172 -10.171 -10.170 -10.169 -10.169  -0.858
 -0.776  -0.747  -0.691  -0.611  -0.591  -0.521  -0.465  -0.462
 -0.424  -0.423  -0.418  -0.390  -0.358  -0.350  -0.342  -0.255
 -0.247

          Ground-State Mulliken Net Atomic Charges

     Atom                 Charge (a.u.)
  ----------------------------------------
      1 C                    -0.053677
      2 C                    -0.424925
      3 C                    -0.336109
      4 C                    -0.095318
      5 C                    -0.622648
      6 C                     0.935123
      7 H                     0.146581
      8 H                     0.170110
      9 C                    -0.637342
     10 H                     0.146910
     11 H                     0.159692
     12 H                     0.144688
     13 H                     0.149773
     14 H                     0.160448
     15 H                     0.166246
     16 GH                   -0.010631
     17 GH                    0.017472
     18 GH                    0.015053
     19 GH                   -0.013606
     20 GH                   -0.010557
     21 GH                   -0.005757
     22 GH                   -0.000943
     23 GH                   -0.000343
     24 GH                   -0.001194
     25 GH                   -0.000456
     26 GH                   -0.000301
     27 GH                    0.001158
     28 GH                    0.001202
     29 GH                   -0.000634
     30 GH                   -0.000014
  ----------------------------------------
  Sum of atomic charges =     0.000000

                    Cartesian Multipole Moments
 -----------------------------------------------------------------
    Charge (ESU x 10^10)
                 0.0000
    Dipole Moment (Debye)
         X       0.0621      Y       0.3876      Z       0.0356
       Tot       0.3941
    Quadrupole Moments (Debye-Ang)
        XX     -39.3581     XY      -0.6308     YY     -38.0745
        XZ      -0.0937     YZ       0.7299     ZZ     -46.4146

 Total job time:  77.29s(wall), 307.88s(cpu)
        *  Thank you very much for using Q-Chem.  Have a nice day.  *
