 Q-Chem 5.0, Q-Chem, Inc., Pleasanton, CA (2017)
 Q-Chem 5.0.1 for Intel X86 EM64T Linux

User input:
--------------------------------------------------------------
$molecule
0  1
--
0  1
C        -0.55335000        -0.66344000        -0.04955000
C        -0.58369000        +0.72363000        +0.07143000
C        -1.74416000        -1.38805000        -0.12104000
C        -2.96100000        -0.71253000        -0.06974000
C        -2.98560000        +0.67733000        +0.05133000
C        -1.80096000        +1.41593000        +0.12202000
H        -3.93869000        +1.19496000        +0.09042000
H        -3.89285000        -1.26490000        -0.12448000
C        -1.82561000        +2.92062000        +0.24749000
H        -1.30124000        +3.39464000        -0.58804000
H        -1.33421000        +3.24931000        +1.16844000
H        -2.84892000        +3.30103000        +0.25949000
H        -1.72216000        -2.46788000        -0.21620000
H        +0.39889000        -1.18111000        -0.08841000
H        +0.34820000        +1.27792000        +0.12648000
--
0  1
C        -0.57983000        -1.01129000        +3.93521000
C        -0.61017000        +0.37578000        +4.05619000
C        -1.77064000        -1.73590000        +3.86372000
C        -2.98748000        -1.06038000        +3.91502000
C        -3.01208000        +0.32948000        +4.03609000
C        -1.82744000        +1.06808000        +4.10678000
H        -3.96517000        +0.84711000        +4.07518000
H        -3.91933000        -1.61275000        +3.86028000
C        -1.85209000        +2.57277000        +4.23225000
H        -1.32772000        +3.04679000        +3.39672000
H        -1.36069000        +2.90146000        +5.15320000
H        -2.87540000        +2.95318000        +4.24425000
H        -1.74864000        -2.81573000        +3.76856000
H        +0.37241000        -1.52896000        +3.89635000
H        +0.32172000        +0.93007000        +4.11124000
$end

$rem
JOBTYPE                   SP
METHOD                    B3LYP
DFT_D                     d3_op
BASIS                     6-311++G(d,p)
SYMMETRY                  False
THRESH                    12
SCF_CONVERGENCE           8
MAX_SUB_FILE_NUM          128
MEM_STATIC                400
MEM_TOTAL                 4000
$end
--------------------------------------------------------------

             Standard Nuclear Orientation (Angstroms)
    I     Atom           X                Y                Z
 ----------------------------------------------------------------
    1      C       1.9957085086    -1.1996745443     1.2062306216
    2      C       1.9986476451     0.1929764764     1.2003691585
    3      C       1.9945017234    -1.9067109132     0.0027784850
    4      C       1.9956237178    -1.2080048427    -1.2019900049
    5      C       1.9987596090     0.1873317064    -1.2020644976
    6      C       2.0019696320     0.9083377108    -0.0045508221
    7      H       1.9997023174     0.7230724259    -2.1459026118
    8      H       1.9947876940    -1.7465762308    -2.1434748258
    9      C       2.0109579956     2.4184231733    -0.0026948151
   10      H       2.8888404038     2.8068961356     0.5228339407
   11      H       1.1262194163     2.8190835549     0.5016551462
   12      H       2.0261900503     2.8163339242    -1.0192842814
   13      H       1.9931764801    -2.9909442270     0.0057143722
   14      H       1.9945275707    -1.7354196746     2.1492200737
   15      H       1.9993463085     0.7334868342     2.1419290046
   16      C      -2.0042836206    -1.1909547580     1.2061842387
   17      C      -2.0013444841     0.2016962627     1.2003227757
   18      C      -2.0054904058    -1.8979911269     0.0027321021
   19      C      -2.0043684114    -1.1992850564    -1.2020363877
   20      C      -2.0012325202     0.1960514927    -1.2021108804
   21      C      -1.9980224972     0.9170574971    -0.0045972049
   22      H      -2.0002898118     0.7317922122    -2.1459489947
   23      H      -2.0052044352    -1.7378564445    -2.1435212086
   24      C      -1.9890341336     2.4271429596    -0.0027411979
   25      H      -1.1111517254     2.8156159218     0.5227875579
   26      H      -2.8737727129     2.8278033412     0.5016087634
   27      H      -1.9738020789     2.8250537105    -1.0193306642
   28      H      -2.0068156491    -2.9822244407     0.0056679894
   29      H      -2.0054645585    -1.7266998883     2.1491736909
   30      H      -2.0006458207     0.7422066205     2.1418826218
 ----------------------------------------------------------------

   13    -543.3034494466      6.18E-09 Convergence criterion met
 Total energy in the final basis set = -543.30344945

                    Orbital Energies (a.u.)
 --------------------------------------------------------------

 Alpha MOs
 -- Occupied --
-10.181 -10.181 -10.171 -10.171 -10.170 -10.170 -10.168 -10.168
-10.168 -10.168 -10.168 -10.168 -10.168 -10.168  -0.856  -0.855
 -0.772  -0.770  -0.743  -0.742  -0.687  -0.684  -0.604  -0.603
 -0.584  -0.582  -0.511  -0.510  -0.461  -0.460  -0.454  -0.453
 -0.431  -0.419  -0.418  -0.414  -0.409  -0.407  -0.388  -0.385
 -0.362  -0.347  -0.343  -0.342  -0.340  -0.339  -0.258  -0.249
 -0.245  -0.236

          Ground-State Mulliken Net Atomic Charges

     Atom                 Charge (a.u.)
  ----------------------------------------
      1 C                    -0.209321
      2 C                    -0.204766
      3 C                    -0.304580
      4 C                    -0.275745
      5 C                    -0.212740
      6 C                     0.624512
      7 H                     0.160244
      8 H                     0.170789
      9 C                    -0.687112
     10 H                     0.153985
     11 H                     0.147659
     12 H                     0.139670
     13 H                     0.152219
     14 H                     0.167651
     15 H                     0.177050
     16 C                    -0.224683
     17 C                    -0.169959
     18 C                    -0.302337
     19 C                    -0.264682
     20 C                    -0.236872
     21 C                     0.625133
     22 H                     0.159786
     23 H                     0.171094
     24 C                    -0.691679
     25 H                     0.142507
     26 H                     0.154696
     27 H                     0.139253
     28 H                     0.152124
     29 H                     0.167248
     30 H                     0.178856
  ----------------------------------------
  Sum of atomic charges =     0.000000

                    Cartesian Multipole Moments
 -----------------------------------------------------------------
    Charge (ESU x 10^10)
                -0.0000
    Dipole Moment (Debye)
         X       0.0076      Y       0.6062      Z       0.0496
       Tot       0.6083
    Quadrupole Moments (Debye-Ang)
        XX     -94.4719     XY       0.0376     YY     -78.2426
        XZ      -0.0024     YZ       0.0515     ZZ     -78.6105

 Total job time:  104.68s(wall), 416.28s(cpu)
        *  Thank you very much for using Q-Chem.  Have a nice day.  *
