 Q-Chem 5.0, Q-Chem, Inc., Pleasanton, CA (2017)
 Q-Chem 5.0.1 for Intel X86 EM64T Linux

User input:
--------------------------------------------------------------
$molecule
0  1
--
0  1
C        -0.54444000        -0.68370000        -0.06689000
C        -0.55709000        +0.71878000        +0.05493000
C        -1.74320000        -1.41616000        -0.12552000
C        -2.93952000        -0.70056000        -0.05285000
C        -2.95313000        +0.68255000        +0.06934000
C        -1.77161000        +1.42404000        +0.12810000
H        -3.90354000        +1.20325000        +0.11710000
H        -3.87892000        -1.24211000        -0.08988000
C        -1.83960000        +2.92746000        +0.24839000
H        -1.24214000        +3.42352000        -0.52065000
H        -1.45503000        +3.26427000        +1.21284000
H        -2.87211000        +3.26623000        +0.14638000
H        -1.73878000        -2.44393000        -0.21875000
H        +0.35825000        -1.18166000        -0.11386000
H        +0.33551000        +1.23549000        +0.09097000
--
0  1
C        -0.72216000        -1.05549000        +5.11676000
C        -0.73481000        +0.34699000        +5.23858000
C        -1.92092000        -1.78795000        +5.05813000
C        -3.11724000        -1.07235000        +5.13080000
C        -3.13085000        +0.31076000        +5.25299000
C        -1.94933000        +1.05225000        +5.31175000
H        -4.08126000        +0.83146000        +5.30075000
H        -4.05664000        -1.61390000        +5.09377000
C        -2.01732000        +2.55567000        +5.43204000
H        -1.41986000        +3.05173000        +4.66300000
H        -1.63275000        +2.89248000        +6.39649000
H        -3.04983000        +2.89444000        +5.33003000
H        -1.91650000        -2.81572000        +4.96490000
H        +0.18053000        -1.55345000        +5.06979000
H        +0.15779000        +0.86370000        +5.27462000
$end

$rem
JOBTYPE                   SP
METHOD                    B3LYP
DFT_D                     d3_op
BASIS                     6-311++G(d,p)
SYMMETRY                  False
THRESH                    12
SCF_CONVERGENCE           8
MAX_SUB_FILE_NUM          128
MEM_STATIC                400
MEM_TOTAL                 4000
$end
--------------------------------------------------------------

             Standard Nuclear Orientation (Angstroms)
    I     Atom           X                Y                Z
 ----------------------------------------------------------------
    1      C       2.6853664393    -1.2049356536     1.1701522073
    2      C       2.6523573932     0.2022242676     1.1977501151
    3      C       2.6472433624    -1.9062640913    -0.0478977586
    4      C       2.5701814732    -1.1547841844    -1.2217313269
    5      C       2.5355343386     0.2331003457    -1.1955586791
    6      C       2.5733801039     0.9439216559     0.0055035304
    7      H       2.4812231901     0.7817945721    -2.1297286961
    8      H       2.5334755105    -1.6714579342    -2.1750523075
    9      C       2.5459880485     2.4532186513    -0.0197209775
   10      H       3.3692541914     2.8837030630     0.5559286782
   11      H       1.6217719702     2.8387456217     0.4146664753
   12      H       2.6260386309     2.8133367177    -1.0469283254
   13      H       2.6751764453    -2.9375764606    -0.0731382439
   14      H       2.7383380034    -1.7295766011     2.0572629491
   15      H       2.6865181241     0.6953456306     2.1036680096
   16      C      -2.5143176815    -1.2478636758     1.2086457592
   17      C      -2.5473267276     0.1592962453     1.2362436670
   18      C      -2.5524407585    -1.9491921136    -0.0094042067
   19      C      -2.6295026476    -1.1977122067    -1.1832377750
   20      C      -2.6641497822     0.1901723234    -1.1570651272
   21      C      -2.6263040169     0.9009936337     0.0439970822
   22      H      -2.7184609307     0.7388665499    -2.0912351442
   23      H      -2.6662086103    -1.7143859564    -2.1365587556
   24      C      -2.6536960723     2.4102906290     0.0187725744
   25      H      -1.8304299295     2.8407750408     0.5944222301
   26      H      -3.5779121506     2.7958175995     0.4531600272
   27      H      -2.5736454900     2.7704086954    -1.0084347735
   28      H      -2.5245076755    -2.9805044828    -0.0346446920
   29      H      -2.4613461174    -1.7725046233     2.0957565010
   30      H      -2.5131659968     0.6524176083     2.1421615615
 ----------------------------------------------------------------

   13    -543.2878446022      6.13E-09 Convergence criterion met
 Total energy in the final basis set = -543.28784460

                    Orbital Energies (a.u.)
 --------------------------------------------------------------

 Alpha MOs
 -- Occupied --
-10.182 -10.182 -10.171 -10.171 -10.169 -10.169 -10.168 -10.168
-10.168 -10.168 -10.166 -10.166 -10.166 -10.166  -0.855  -0.855
 -0.773  -0.773  -0.744  -0.744  -0.689  -0.689  -0.608  -0.608
 -0.588  -0.588  -0.518  -0.518  -0.462  -0.462  -0.460  -0.460
 -0.423  -0.421  -0.420  -0.420  -0.415  -0.415  -0.388  -0.388
 -0.356  -0.353  -0.348  -0.348  -0.340  -0.339  -0.252  -0.250
 -0.245  -0.243

          Ground-State Mulliken Net Atomic Charges

     Atom                 Charge (a.u.)
  ----------------------------------------
      1 C                    -0.056546
      2 C                    -0.428069
      3 C                    -0.323880
      4 C                    -0.102798
      5 C                    -0.626295
      6 C                     0.959773
      7 H                     0.142871
      8 H                     0.166828
      9 C                    -0.645805
     10 H                     0.145764
     11 H                     0.153425
     12 H                     0.144865
     13 H                     0.148673
     14 H                     0.157279
     15 H                     0.162998
     16 C                    -0.120643
     17 C                    -0.363150
     18 C                    -0.296246
     19 C                    -0.174615
     20 C                    -0.516087
     21 C                     0.884230
     22 H                     0.143767
     23 H                     0.168723
     24 C                    -0.646225
     25 H                     0.148203
     26 H                     0.157796
     27 H                     0.145293
     28 H                     0.148869
     29 H                     0.157987
     30 H                     0.163017
  ----------------------------------------
  Sum of atomic charges =     0.000000

                    Cartesian Multipole Moments
 -----------------------------------------------------------------
    Charge (ESU x 10^10)
                 0.0000
    Dipole Moment (Debye)
         X      -0.0193      Y       0.6609      Z       0.1304
       Tot       0.6739
    Quadrupole Moments (Debye-Ang)
        XX     -93.9012     XY      -0.3676     YY     -77.1577
        XZ       0.6436     YZ       0.0716     ZZ     -78.4379

 Total job time:  83.18s(wall), 330.91s(cpu)
        *  Thank you very much for using Q-Chem.  Have a nice day.  *
