 Q-Chem 5.0, Q-Chem, Inc., Pleasanton, CA (2017)
 Q-Chem 5.0.1 for Intel X86 EM64T Linux

User input:
--------------------------------------------------------------
$molecule
0  1
C        -0.68115000        -0.96969000        +3.92053000
C        -0.69380000        +0.43279000        +4.04235000
C        -1.87991000        -1.70215000        +3.86190000
C        -3.07623000        -0.98655000        +3.93457000
C        -3.08984000        +0.39656000        +4.05676000
C        -1.90832000        +1.13805000        +4.11552000
H        -4.04025000        +0.91726000        +4.10452000
H        -4.01563000        -1.52810000        +3.89754000
C        -1.97631000        +2.64147000        +4.23581000
H        -1.37885000        +3.13753000        +3.46677000
H        -1.59174000        +2.97828000        +5.20026000
H        -3.00882000        +2.98024000        +4.13380000
H        -1.87549000        -2.72992000        +3.76867000
H        +0.22154000        -1.46765000        +3.87356000
H        +0.19880000        +0.94950000        +4.07839000
@C        -0.54444000        -0.68370000        -0.06689000
@C        -0.55709000        +0.71878000        +0.05493000
@C        -1.74320000        -1.41616000        -0.12552000
@C        -2.93952000        -0.70056000        -0.05285000
@C        -2.95313000        +0.68255000        +0.06934000
@C        -1.77161000        +1.42404000        +0.12810000
@H        -3.90354000        +1.20325000        +0.11710000
@H        -3.87892000        -1.24211000        -0.08988000
@C        -1.83960000        +2.92746000        +0.24839000
@H        -1.24214000        +3.42352000        -0.52065000
@H        -1.45503000        +3.26427000        +1.21284000
@H        -2.87211000        +3.26623000        +0.14638000
@H        -1.73878000        -2.44393000        -0.21875000
@H        +0.35825000        -1.18166000        -0.11386000
@H        +0.33551000        +1.23549000        +0.09097000
$end

$rem
JOBTYPE                   SP
METHOD                    B3LYP
DFT_D                     d3_op
BASIS                     6-311++G(d,p)
SYMMETRY                  False
THRESH                    12
SCF_CONVERGENCE           8
MAX_SUB_FILE_NUM          128
MEM_STATIC                400
MEM_TOTAL                 4000
$end
--------------------------------------------------------------

             Standard Nuclear Orientation (Angstroms)
    I     Atom           X                Y                Z
 ----------------------------------------------------------------
    1      C      -0.6811500000    -0.9696900000     3.9205300000
    2      C      -0.6938000000     0.4327900000     4.0423500000
    3      C      -1.8799100000    -1.7021500000     3.8619000000
    4      C      -3.0762300000    -0.9865500000     3.9345700000
    5      C      -3.0898400000     0.3965600000     4.0567600000
    6      C      -1.9083200000     1.1380500000     4.1155200000
    7      H      -4.0402500000     0.9172600000     4.1045200000
    8      H      -4.0156300000    -1.5281000000     3.8975400000
    9      C      -1.9763100000     2.6414700000     4.2358100000
   10      H      -1.3788500000     3.1375300000     3.4667700000
   11      H      -1.5917400000     2.9782800000     5.2002600000
   12      H      -3.0088200000     2.9802400000     4.1338000000
   13      H      -1.8754900000    -2.7299200000     3.7686700000
   14      H       0.2215400000    -1.4676500000     3.8735600000
   15      H       0.1988000000     0.9495000000     4.0783900000
   16      GH     -0.5444400000    -0.6837000000    -0.0668900000
   17      GH     -0.5570900000     0.7187800000     0.0549300000
   18      GH     -1.7432000000    -1.4161600000    -0.1255200000
   19      GH     -2.9395200000    -0.7005600000    -0.0528500000
   20      GH     -2.9531300000     0.6825500000     0.0693400000
   21      GH     -1.7716100000     1.4240400000     0.1281000000
   22      GH     -3.9035400000     1.2032500000     0.1171000000
   23      GH     -3.8789200000    -1.2421100000    -0.0898800000
   24      GH     -1.8396000000     2.9274600000     0.2483900000
   25      GH     -1.2421400000     3.4235200000    -0.5206500000
   26      GH     -1.4550300000     3.2642700000     1.2128400000
   27      GH     -2.8721100000     3.2662300000     0.1463800000
   28      GH     -1.7387800000    -2.4439300000    -0.2187500000
   29      GH      0.3582500000    -1.1816600000    -0.1138600000
   30      GH      0.3355100000     1.2354900000     0.0909700000
 ----------------------------------------------------------------

   12    -271.6436635256      9.94E-09 Convergence criterion met
 Total energy in the final basis set = -271.64366353

                    Orbital Energies (a.u.)
 --------------------------------------------------------------

 Alpha MOs
 -- Occupied --
-10.185 -10.174 -10.172 -10.171 -10.170 -10.169 -10.169  -0.858
 -0.776  -0.747  -0.691  -0.611  -0.591  -0.521  -0.465  -0.462
 -0.424  -0.423  -0.418  -0.390  -0.358  -0.350  -0.342  -0.255
 -0.247

          Ground-State Mulliken Net Atomic Charges

     Atom                 Charge (a.u.)
  ----------------------------------------
      1 C                    -0.221479
      2 C                    -0.170750
      3 C                    -0.304679
      4 C                    -0.264497
      5 C                    -0.254226
      6 C                     0.623195
      7 H                     0.157490
      8 H                     0.173664
      9 C                    -0.693893
     10 H                     0.159070
     11 H                     0.160909
     12 H                     0.138551
     13 H                     0.146143
     14 H                     0.162070
     15 H                     0.173425
     16 GH                   -0.020904
     17 GH                   -0.006181
     18 GH                    0.003891
     19 GH                    0.000205
     20 GH                    0.002258
     21 GH                    0.007214
     22 GH                    0.006359
     23 GH                    0.003186
     24 GH                    0.010261
     25 GH                    0.000309
     26 GH                   -0.001352
     27 GH                    0.001893
     28 GH                    0.004437
     29 GH                    0.001952
     30 GH                    0.001477
  ----------------------------------------
  Sum of atomic charges =     0.000000

                    Cartesian Multipole Moments
 -----------------------------------------------------------------
    Charge (ESU x 10^10)
                 0.0000
    Dipole Moment (Debye)
         X       0.0637      Y       0.3886      Z       0.0233
       Tot       0.3945
    Quadrupole Moments (Debye-Ang)
        XX     -39.4291     XY      -0.7048     YY     -38.3458
        XZ       0.1830     YZ       2.2604     ZZ     -46.1786

 Total job time:  90.61s(wall), 360.62s(cpu)
        *  Thank you very much for using Q-Chem.  Have a nice day.  *
