 Q-Chem 5.0, Q-Chem, Inc., Pleasanton, CA (2017)
 Q-Chem 5.0.1 for Intel X86 EM64T Linux

User input:
--------------------------------------------------------------
$molecule
0  1
C        -0.54444000        -0.68370000        -0.06689000
C        -0.55709000        +0.71878000        +0.05493000
C        -1.74320000        -1.41616000        -0.12552000
C        -2.93952000        -0.70056000        -0.05285000
C        -2.95313000        +0.68255000        +0.06934000
C        -1.77161000        +1.42404000        +0.12810000
H        -3.90354000        +1.20325000        +0.11710000
H        -3.87892000        -1.24211000        -0.08988000
C        -1.83960000        +2.92746000        +0.24839000
C        -1.78103000        -2.92226000        -0.24590000
H        -1.39752000        -3.25223000        -1.21323000
H        -2.80572000        -3.28175000        -0.13627000
H        -1.16958000        -3.40777000        +0.51926000
H        -1.24214000        +3.42352000        -0.52065000
H        -1.45503000        +3.26427000        +1.21284000
H        -2.87211000        +3.26623000        +0.14638000
H        +0.35825000        -1.18166000        -0.11386000
H        +0.33551000        +1.23549000        +0.09097000
@C        -1.76348000        -0.02293000        +3.68509000
@C        -1.77613000        +1.37955000        +3.80691000
@C        -2.96224000        -0.75539000        +3.62646000
@C        -4.15856000        -0.03979000        +3.69913000
@C        -4.17217000        +1.34332000        +3.82132000
@C        -2.99065000        +2.08481000        +3.88008000
@H        -5.12258000        +1.86402000        +3.86908000
@H        -5.09796000        -0.58134000        +3.66210000
@C        -3.05864000        +3.58823000        +4.00037000
@C        -3.00007000        -2.26149000        +3.50608000
@H        -2.61656000        -2.59146000        +2.53875000
@H        -4.02476000        -2.62098000        +3.61571000
@H        -2.38862000        -2.74700000        +4.27124000
@H        -2.46118000        +4.08429000        +3.23133000
@H        -2.67407000        +3.92504000        +4.96482000
@H        -4.09115000        +3.92700000        +3.89836000
@H        -0.86079000        -0.52089000        +3.63812000
@H        -0.88353000        +1.89626000        +3.84295000
$end

$rem
JOBTYPE                   SP
METHOD                    B3LYP
DFT_D                     d3_op
BASIS                     6-311++G(d,p)
SYMMETRY                  False
THRESH                    12
SCF_CONVERGENCE           8
MAX_SUB_FILE_NUM          128
MEM_STATIC                400
MEM_TOTAL                 4000
$end
--------------------------------------------------------------

             Standard Nuclear Orientation (Angstroms)
    I     Atom           X                Y                Z
 ----------------------------------------------------------------
    1      C      -0.5444400000    -0.6837000000    -0.0668900000
    2      C      -0.5570900000     0.7187800000     0.0549300000
    3      C      -1.7432000000    -1.4161600000    -0.1255200000
    4      C      -2.9395200000    -0.7005600000    -0.0528500000
    5      C      -2.9531300000     0.6825500000     0.0693400000
    6      C      -1.7716100000     1.4240400000     0.1281000000
    7      H      -3.9035400000     1.2032500000     0.1171000000
    8      H      -3.8789200000    -1.2421100000    -0.0898800000
    9      C      -1.8396000000     2.9274600000     0.2483900000
   10      C      -1.7810300000    -2.9222600000    -0.2459000000
   11      H      -1.3975200000    -3.2522300000    -1.2132300000
   12      H      -2.8057200000    -3.2817500000    -0.1362700000
   13      H      -1.1695800000    -3.4077700000     0.5192600000
   14      H      -1.2421400000     3.4235200000    -0.5206500000
   15      H      -1.4550300000     3.2642700000     1.2128400000
   16      H      -2.8721100000     3.2662300000     0.1463800000
   17      H       0.3582500000    -1.1816600000    -0.1138600000
   18      H       0.3355100000     1.2354900000     0.0909700000
   19      GH     -1.7634800000    -0.0229300000     3.6850900000
   20      GH     -1.7761300000     1.3795500000     3.8069100000
   21      GH     -2.9622400000    -0.7553900000     3.6264600000
   22      GH     -4.1585600000    -0.0397900000     3.6991300000
   23      GH     -4.1721700000     1.3433200000     3.8213200000
   24      GH     -2.9906500000     2.0848100000     3.8800800000
   25      GH     -5.1225800000     1.8640200000     3.8690800000
   26      GH     -5.0979600000    -0.5813400000     3.6621000000
   27      GH     -3.0586400000     3.5882300000     4.0003700000
   28      GH     -3.0000700000    -2.2614900000     3.5060800000
   29      GH     -2.6165600000    -2.5914600000     2.5387500000
   30      GH     -4.0247600000    -2.6209800000     3.6157100000
   31      GH     -2.3886200000    -2.7470000000     4.2712400000
   32      GH     -2.4611800000     4.0842900000     3.2313300000
   33      GH     -2.6740700000     3.9250400000     4.9648200000
   34      GH     -4.0911500000     3.9270000000     3.8983600000
   35      GH     -0.8607900000    -0.5208900000     3.6381200000
   36      GH     -0.8835300000     1.8962600000     3.8429500000
 ----------------------------------------------------------------

   13    -310.9764379586      1.32E-09 Convergence criterion met
 Total energy in the final basis set = -310.97643796

                    Orbital Energies (a.u.)
 --------------------------------------------------------------

 Alpha MOs
 -- Occupied --
-10.180 -10.180 -10.168 -10.168 -10.168 -10.167 -10.167 -10.167
 -0.859  -0.787  -0.745  -0.721  -0.658  -0.612  -0.577  -0.496
 -0.472  -0.460  -0.425  -0.421  -0.417  -0.404  -0.397  -0.376
 -0.345  -0.342  -0.339  -0.252  -0.236

          Ground-State Mulliken Net Atomic Charges

     Atom                 Charge (a.u.)
  ----------------------------------------
      1 C                    -0.284663
      2 C                    -0.339209
      3 C                     0.487198
      4 C                    -0.373577
      5 C                    -0.365738
      6 C                     0.575658
      7 H                     0.156616
      8 H                     0.151945
      9 C                    -0.657776
     10 C                    -0.662727
     11 H                     0.162437
     12 H                     0.137452
     13 H                     0.161905
     14 H                     0.155092
     15 H                     0.179254
     16 H                     0.133651
     17 H                     0.168200
     18 H                     0.168553
     19 GH                   -0.130645
     20 GH                   -0.065361
     21 GH                    0.064097
     22 GH                    0.125585
     23 GH                   -0.067450
     24 GH                    0.110620
     25 GH                   -0.006514
     26 GH                    0.008603
     27 GH                    0.015159
     28 GH                   -0.058074
     29 GH                    0.042837
     30 GH                   -0.007270
     31 GH                    0.001567
     32 GH                    0.004226
     33 GH                   -0.000764
     34 GH                    0.000031
     35 GH                   -0.006027
     36 GH                    0.015108
  ----------------------------------------
  Sum of atomic charges =    -0.000000

                    Cartesian Multipole Moments
 -----------------------------------------------------------------
    Charge (ESU x 10^10)
                -0.0000
    Dipole Moment (Debye)
         X       0.0866      Y       0.0024      Z       0.0048
       Tot       0.0867
    Quadrupole Moments (Debye-Ang)
        XX     -46.3327     XY      -0.0054     YY     -44.7678
        XZ      -0.0600     YZ       0.6646     ZZ     -52.6564

 Total job time:  164.31s(wall), 654.07s(cpu)
        *  Thank you very much for using Q-Chem.  Have a nice day.  *
