 Q-Chem 5.0, Q-Chem, Inc., Pleasanton, CA (2017)
 Q-Chem 5.0.1 for Intel X86 EM64T Linux

User input:
--------------------------------------------------------------
$molecule
0  1
C        -0.54836000        -1.05824000        +3.90605000
C        -0.56233000        +0.32652000        +4.03957000
C        -1.74015000        -1.79258000        +3.84897000
C        -2.94210000        -1.08656000        +3.92538000
C        -2.95626000        +0.30209000        +4.05868000
C        -1.76895000        +1.03419000        +4.11601000
H        -3.90760000        +0.82173000        +4.11743000
H        -3.88246000        -1.62742000        +3.88127000
C        -1.77928000        +2.53942000        +4.23098000
C        -1.72114000        -3.29857000        +3.73509000
H        -0.99542000        -3.63453000        +2.98914000
H        -2.70094000        -3.68868000        +3.45044000
H        -1.44595000        -3.76208000        +4.68874000
H        -1.50388000        +3.00796000        +3.28002000
H        -1.06601000        +2.88723000        +4.98357000
H        -2.76847000        +2.91077000        +4.50761000
H        +0.40219000        -1.57976000        +3.84634000
H        +0.37794000        +0.86767000        +4.08381000
@C        -0.58454000        -0.67556000        -0.07544000
@C        -0.59851000        +0.70920000        +0.05808000
@C        -1.77633000        -1.40990000        -0.13252000
@C        -2.97828000        -0.70388000        -0.05611000
@C        -2.99244000        +0.68477000        +0.07719000
@C        -1.80513000        +1.41687000        +0.13452000
@H        -3.94378000        +1.20441000        +0.13594000
@H        -3.91864000        -1.24474000        -0.10022000
@C        -1.81546000        +2.92210000        +0.24949000
@C        -1.75732000        -2.91589000        -0.24640000
@H        -1.03160000        -3.25185000        -0.99235000
@H        -2.73712000        -3.30600000        -0.53105000
@H        -1.48213000        -3.37940000        +0.70725000
@H        -1.54006000        +3.39064000        -0.70147000
@H        -1.10219000        +3.26991000        +1.00208000
@H        -2.80465000        +3.29345000        +0.52612000
@H        +0.36601000        -1.19708000        -0.13515000
@H        +0.34176000        +1.25035000        +0.10232000
$end

$rem
JOBTYPE                   SP
METHOD                    B3LYP
DFT_D                     d3_op
BASIS                     6-311++G(d,p)
SYMMETRY                  False
THRESH                    12
SCF_CONVERGENCE           8
MAX_SUB_FILE_NUM          128
MEM_STATIC                400
MEM_TOTAL                 4000
$end
--------------------------------------------------------------

             Standard Nuclear Orientation (Angstroms)
    I     Atom           X                Y                Z
 ----------------------------------------------------------------
    1      C      -0.5483600000    -1.0582400000     3.9060500000
    2      C      -0.5623300000     0.3265200000     4.0395700000
    3      C      -1.7401500000    -1.7925800000     3.8489700000
    4      C      -2.9421000000    -1.0865600000     3.9253800000
    5      C      -2.9562600000     0.3020900000     4.0586800000
    6      C      -1.7689500000     1.0341900000     4.1160100000
    7      H      -3.9076000000     0.8217300000     4.1174300000
    8      H      -3.8824600000    -1.6274200000     3.8812700000
    9      C      -1.7792800000     2.5394200000     4.2309800000
   10      C      -1.7211400000    -3.2985700000     3.7350900000
   11      H      -0.9954200000    -3.6345300000     2.9891400000
   12      H      -2.7009400000    -3.6886800000     3.4504400000
   13      H      -1.4459500000    -3.7620800000     4.6887400000
   14      H      -1.5038800000     3.0079600000     3.2800200000
   15      H      -1.0660100000     2.8872300000     4.9835700000
   16      H      -2.7684700000     2.9107700000     4.5076100000
   17      H       0.4021900000    -1.5797600000     3.8463400000
   18      H       0.3779400000     0.8676700000     4.0838100000
   19      GH     -0.5845400000    -0.6755600000    -0.0754400000
   20      GH     -0.5985100000     0.7092000000     0.0580800000
   21      GH     -1.7763300000    -1.4099000000    -0.1325200000
   22      GH     -2.9782800000    -0.7038800000    -0.0561100000
   23      GH     -2.9924400000     0.6847700000     0.0771900000
   24      GH     -1.8051300000     1.4168700000     0.1345200000
   25      GH     -3.9437800000     1.2044100000     0.1359400000
   26      GH     -3.9186400000    -1.2447400000    -0.1002200000
   27      GH     -1.8154600000     2.9221000000     0.2494900000
   28      GH     -1.7573200000    -2.9158900000    -0.2464000000
   29      GH     -1.0316000000    -3.2518500000    -0.9923500000
   30      GH     -2.7371200000    -3.3060000000    -0.5310500000
   31      GH     -1.4821300000    -3.3794000000     0.7072500000
   32      GH     -1.5400600000     3.3906400000    -0.7014700000
   33      GH     -1.1021900000     3.2699100000     1.0020800000
   34      GH     -2.8046500000     3.2934500000     0.5261200000
   35      GH      0.3660100000    -1.1970800000    -0.1351500000
   36      GH      0.3417600000     1.2503500000     0.1023200000
 ----------------------------------------------------------------

   13    -310.9810443339      9.78E-10 Convergence criterion met
 Total energy in the final basis set = -310.98104433

                    Orbital Energies (a.u.)
 --------------------------------------------------------------

 Alpha MOs
 -- Occupied --
-10.180 -10.180 -10.171 -10.170 -10.170 -10.170 -10.167 -10.167
 -0.860  -0.787  -0.744  -0.721  -0.657  -0.608  -0.575  -0.494
 -0.473  -0.452  -0.425  -0.418  -0.417  -0.402  -0.398  -0.375
 -0.346  -0.342  -0.337  -0.254  -0.237

          Ground-State Mulliken Net Atomic Charges

     Atom                 Charge (a.u.)
  ----------------------------------------
      1 C                    -0.316261
      2 C                    -0.381403
      3 C                     0.625850
      4 C                    -0.356346
      5 C                    -0.440679
      6 C                     0.557950
      7 H                     0.169555
      8 H                     0.161258
      9 C                    -0.700060
     10 C                    -0.587743
     11 H                     0.139793
     12 H                     0.136396
     13 H                     0.163783
     14 H                     0.183193
     15 H                     0.143615
     16 H                     0.137666
     17 H                     0.176020
     18 H                     0.177673
     19 GH                   -0.012306
     20 GH                    0.011252
     21 GH                   -0.077871
     22 GH                    0.024741
     23 GH                    0.004244
     24 GH                   -0.018131
     25 GH                    0.003532
     26 GH                    0.006736
     27 GH                    0.034702
     28 GH                    0.011657
     29 GH                   -0.000352
     30 GH                   -0.001052
     31 GH                    0.017322
     32 GH                   -0.000604
     33 GH                   -0.003289
     34 GH                    0.000681
     35 GH                    0.003512
     36 GH                    0.004964
  ----------------------------------------
  Sum of atomic charges =     0.000000

                    Cartesian Multipole Moments
 -----------------------------------------------------------------
    Charge (ESU x 10^10)
                 0.0000
    Dipole Moment (Debye)
         X       0.0595      Y       0.0013      Z      -0.0140
       Tot       0.0611
    Quadrupole Moments (Debye-Ang)
        XX     -46.3235     XY      -0.0294     YY     -44.8492
        XZ       0.2057     YZ       0.6232     ZZ     -52.8262

 Total job time:  171.12s(wall), 680.25s(cpu)
        *  Thank you very much for using Q-Chem.  Have a nice day.  *
