 Q-Chem 5.0, Q-Chem, Inc., Pleasanton, CA (2017)
 Q-Chem 5.0.1 for Intel X86 EM64T Linux

User input:
--------------------------------------------------------------
$molecule
0  1
C        -1.76348000        -0.02293000        +3.68509000
C        -1.77613000        +1.37955000        +3.80691000
C        -2.96224000        -0.75539000        +3.62646000
C        -4.15856000        -0.03979000        +3.69913000
C        -4.17217000        +1.34332000        +3.82132000
C        -2.99065000        +2.08481000        +3.88008000
H        -5.12258000        +1.86402000        +3.86908000
H        -5.09796000        -0.58134000        +3.66210000
C        -3.05864000        +3.58823000        +4.00037000
C        -3.00007000        -2.26149000        +3.50608000
H        -2.61656000        -2.59146000        +2.53875000
H        -4.02476000        -2.62098000        +3.61571000
H        -2.38862000        -2.74700000        +4.27124000
H        -2.46118000        +4.08429000        +3.23133000
H        -2.67407000        +3.92504000        +4.96482000
H        -4.09115000        +3.92700000        +3.89836000
H        -0.86079000        -0.52089000        +3.63812000
H        -0.88353000        +1.89626000        +3.84295000
@C        -0.54444000        -0.68370000        -0.06689000
@C        -0.55709000        +0.71878000        +0.05493000
@C        -1.74320000        -1.41616000        -0.12552000
@C        -2.93952000        -0.70056000        -0.05285000
@C        -2.95313000        +0.68255000        +0.06934000
@C        -1.77161000        +1.42404000        +0.12810000
@H        -3.90354000        +1.20325000        +0.11710000
@H        -3.87892000        -1.24211000        -0.08988000
@C        -1.83960000        +2.92746000        +0.24839000
@C        -1.78103000        -2.92226000        -0.24590000
@H        -1.39752000        -3.25223000        -1.21323000
@H        -2.80572000        -3.28175000        -0.13627000
@H        -1.16958000        -3.40777000        +0.51926000
@H        -1.24214000        +3.42352000        -0.52065000
@H        -1.45503000        +3.26427000        +1.21284000
@H        -2.87211000        +3.26623000        +0.14638000
@H        +0.35825000        -1.18166000        -0.11386000
@H        +0.33551000        +1.23549000        +0.09097000
$end

$rem
JOBTYPE                   SP
METHOD                    B3LYP
DFT_D                     d3_op
BASIS                     6-311++G(d,p)
SYMMETRY                  False
THRESH                    12
SCF_CONVERGENCE           8
MAX_SUB_FILE_NUM          128
MEM_STATIC                400
MEM_TOTAL                 4000
$end
--------------------------------------------------------------

             Standard Nuclear Orientation (Angstroms)
    I     Atom           X                Y                Z
 ----------------------------------------------------------------
    1      C      -1.7634800000    -0.0229300000     3.6850900000
    2      C      -1.7761300000     1.3795500000     3.8069100000
    3      C      -2.9622400000    -0.7553900000     3.6264600000
    4      C      -4.1585600000    -0.0397900000     3.6991300000
    5      C      -4.1721700000     1.3433200000     3.8213200000
    6      C      -2.9906500000     2.0848100000     3.8800800000
    7      H      -5.1225800000     1.8640200000     3.8690800000
    8      H      -5.0979600000    -0.5813400000     3.6621000000
    9      C      -3.0586400000     3.5882300000     4.0003700000
   10      C      -3.0000700000    -2.2614900000     3.5060800000
   11      H      -2.6165600000    -2.5914600000     2.5387500000
   12      H      -4.0247600000    -2.6209800000     3.6157100000
   13      H      -2.3886200000    -2.7470000000     4.2712400000
   14      H      -2.4611800000     4.0842900000     3.2313300000
   15      H      -2.6740700000     3.9250400000     4.9648200000
   16      H      -4.0911500000     3.9270000000     3.8983600000
   17      H      -0.8607900000    -0.5208900000     3.6381200000
   18      H      -0.8835300000     1.8962600000     3.8429500000
   19      GH     -0.5444400000    -0.6837000000    -0.0668900000
   20      GH     -0.5570900000     0.7187800000     0.0549300000
   21      GH     -1.7432000000    -1.4161600000    -0.1255200000
   22      GH     -2.9395200000    -0.7005600000    -0.0528500000
   23      GH     -2.9531300000     0.6825500000     0.0693400000
   24      GH     -1.7716100000     1.4240400000     0.1281000000
   25      GH     -3.9035400000     1.2032500000     0.1171000000
   26      GH     -3.8789200000    -1.2421100000    -0.0898800000
   27      GH     -1.8396000000     2.9274600000     0.2483900000
   28      GH     -1.7810300000    -2.9222600000    -0.2459000000
   29      GH     -1.3975200000    -3.2522300000    -1.2132300000
   30      GH     -2.8057200000    -3.2817500000    -0.1362700000
   31      GH     -1.1695800000    -3.4077700000     0.5192600000
   32      GH     -1.2421400000     3.4235200000    -0.5206500000
   33      GH     -1.4550300000     3.2642700000     1.2128400000
   34      GH     -2.8721100000     3.2662300000     0.1463800000
   35      GH      0.3582500000    -1.1816600000    -0.1138600000
   36      GH      0.3355100000     1.2354900000     0.0909700000
 ----------------------------------------------------------------

   13    -310.9763884459      1.20E-09 Convergence criterion met
 Total energy in the final basis set = -310.97638845

                    Orbital Energies (a.u.)
 --------------------------------------------------------------

 Alpha MOs
 -- Occupied --
-10.180 -10.180 -10.168 -10.168 -10.168 -10.167 -10.167 -10.167
 -0.859  -0.787  -0.745  -0.721  -0.658  -0.612  -0.577  -0.496
 -0.472  -0.460  -0.425  -0.421  -0.417  -0.404  -0.397  -0.376
 -0.345  -0.342  -0.339  -0.252  -0.236

          Ground-State Mulliken Net Atomic Charges

     Atom                 Charge (a.u.)
  ----------------------------------------
      1 C                    -0.408817
      2 C                    -0.213615
      3 C                     0.555103
      4 C                    -0.334456
      5 C                    -0.528213
      6 C                     0.566083
      7 H                     0.153398
      8 H                     0.164188
      9 C                    -0.622494
     10 C                    -0.632407
     11 H                     0.191263
     12 H                     0.136480
     13 H                     0.152750
     14 H                     0.160610
     15 H                     0.165662
     16 H                     0.138583
     17 H                     0.158587
     18 H                     0.165415
     19 GH                   -0.121055
     20 GH                    0.029234
     21 GH                   -0.057632
     22 GH                    0.056656
     23 GH                   -0.022768
     24 GH                    0.171835
     25 GH                   -0.011220
     26 GH                    0.009158
     27 GH                   -0.019836
     28 GH                    0.002667
     29 GH                    0.000006
     30 GH                   -0.005349
     31 GH                    0.005091
     32 GH                   -0.000472
     33 GH                   -0.008194
     34 GH                    0.006004
     35 GH                   -0.005830
     36 GH                    0.003582
  ----------------------------------------
  Sum of atomic charges =    -0.000000

                    Cartesian Multipole Moments
 -----------------------------------------------------------------
    Charge (ESU x 10^10)
                -0.0000
    Dipole Moment (Debye)
         X       0.0919      Y       0.0028      Z      -0.0062
       Tot       0.0921
    Quadrupole Moments (Debye-Ang)
        XX     -46.5707     XY       0.0519     YY     -44.7672
        XZ       0.3251     YZ       0.6687     ZZ     -52.7073

 Total job time:  165.61s(wall), 658.70s(cpu)
        *  Thank you very much for using Q-Chem.  Have a nice day.  *
