 Q-Chem 5.0, Q-Chem, Inc., Pleasanton, CA (2017)
 Q-Chem 5.0.1 for Intel X86 EM64T Linux

User input:
--------------------------------------------------------------
$molecule
0  1
--
0  1
C        -0.54444000        -0.68370000        -0.06689000
C        -0.55709000        +0.71878000        +0.05493000
C        -1.74320000        -1.41616000        -0.12552000
C        -2.93952000        -0.70056000        -0.05285000
C        -2.95313000        +0.68255000        +0.06934000
C        -1.77161000        +1.42404000        +0.12810000
H        -3.90354000        +1.20325000        +0.11710000
H        -3.87892000        -1.24211000        -0.08988000
C        -1.83960000        +2.92746000        +0.24839000
C        -1.78103000        -2.92226000        -0.24590000
H        -1.39752000        -3.25223000        -1.21323000
H        -2.80572000        -3.28175000        -0.13627000
H        -1.16958000        -3.40777000        +0.51926000
H        -1.24214000        +3.42352000        -0.52065000
H        -1.45503000        +3.26427000        +1.21284000
H        -2.87211000        +3.26623000        +0.14638000
H        +0.35825000        -1.18166000        -0.11386000
H        +0.33551000        +1.23549000        +0.09097000
--
0  1
C        -1.76348000        -0.02293000        +3.68509000
C        -1.77613000        +1.37955000        +3.80691000
C        -2.96224000        -0.75539000        +3.62646000
C        -4.15856000        -0.03979000        +3.69913000
C        -4.17217000        +1.34332000        +3.82132000
C        -2.99065000        +2.08481000        +3.88008000
H        -5.12258000        +1.86402000        +3.86908000
H        -5.09796000        -0.58134000        +3.66210000
C        -3.05864000        +3.58823000        +4.00037000
C        -3.00007000        -2.26149000        +3.50608000
H        -2.61656000        -2.59146000        +2.53875000
H        -4.02476000        -2.62098000        +3.61571000
H        -2.38862000        -2.74700000        +4.27124000
H        -2.46118000        +4.08429000        +3.23133000
H        -2.67407000        +3.92504000        +4.96482000
H        -4.09115000        +3.92700000        +3.89836000
H        -0.86079000        -0.52089000        +3.63812000
H        -0.88353000        +1.89626000        +3.84295000
$end

$rem
JOBTYPE                   SP
METHOD                    B3LYP
DFT_D                     d3_op
BASIS                     6-311++G(d,p)
SYMMETRY                  False
THRESH                    12
SCF_CONVERGENCE           8
MAX_SUB_FILE_NUM          128
MEM_STATIC                400
MEM_TOTAL                 4000
$end
--------------------------------------------------------------

             Standard Nuclear Orientation (Angstroms)
    I     Atom           X                Y                Z
 ----------------------------------------------------------------
    1      C       2.5500972694     0.8773327322     0.9588354327
    2      C       1.5599840804     1.8772865092     0.9173794079
    3      C       2.7326964425    -0.0058708866    -0.1198533898
    4      C       1.8933039547     0.1448300745    -1.2249575945
    5      C       0.9150832736     1.1294640558    -1.2660565243
    6      C       0.7218673184     2.0143817962    -0.2035887105
    7      H       0.2860329680     1.2182988058    -2.1453134696
    8      H       2.0092080223    -0.5275539474    -2.0685131396
    9      C      -0.3470712736     3.0760140678    -0.3019311066
   10      C       3.7743662908    -1.1009420089    -0.1181718533
   11      H       4.7843720720    -0.6871287005    -0.1364562067
   12      H       3.6450210125    -1.7430900145    -0.9911879648
   13      H       3.7053112027    -1.7277657235     0.7747919275
   14      H       0.0498926172     4.0722964546    -0.0914612231
   15      H      -1.1485311055     2.8972778182     0.4172450571
   16      H      -0.7746824113     3.0867563528    -1.3060632550
   17      H       3.1508982515     0.7912714097     1.7934917736
   18      H       1.4478697810     2.5173221757     1.7191322347
   19      C      -0.8967081287    -1.1217246014     1.3100216498
   20      C      -1.8868213178    -0.1217708244     1.2685656250
   21      C      -0.7141089557    -2.0049282201     0.2313328273
   22      C      -1.5535014435    -1.8542272591    -0.8737713774
   23      C      -2.5317221246    -0.8695932777    -0.9148703072
   24      C      -2.7249380798     0.0153244627     0.1475975067
   25      H      -3.1607724302    -0.7807585277    -1.7941272525
   26      H      -1.4375973759    -2.5266112809    -1.7173269225
   27      C      -3.7938766718     1.0769567343     0.0492551105
   28      C       0.3275608926    -3.0999993424     0.2330143638
   29      H       1.3375666738    -2.6861860340     0.2147300105
   30      H       0.1982156143    -3.7421473480    -0.6400017477
   31      H       0.2585058045    -3.7268230570     1.1259781446
   32      H      -3.3969127809     2.0732391211     0.2597249940
   33      H      -4.5953365037     0.8982204847     0.7684312742
   34      H      -4.2214878095     1.0876990193    -0.9548770378
   35      H      -0.2959071467    -1.2077859238     2.1446779907
   36      H      -1.9989356172     0.5182648421     2.0703184518
 ----------------------------------------------------------------

   14    -621.9591367312      5.21E-09 Convergence criterion met
 Total energy in the final basis set = -621.95913673

                    Orbital Energies (a.u.)
 --------------------------------------------------------------

 Alpha MOs
 -- Occupied --
-10.177 -10.176 -10.176 -10.176 -10.167 -10.165 -10.164 -10.164
-10.164 -10.164 -10.164 -10.164 -10.163 -10.163 -10.163 -10.162
 -0.856  -0.854  -0.785  -0.783  -0.742  -0.741  -0.719  -0.717
 -0.656  -0.654  -0.609  -0.608  -0.574  -0.573  -0.493  -0.492
 -0.469  -0.468  -0.457  -0.456  -0.431  -0.423  -0.417  -0.417
 -0.413  -0.408  -0.402  -0.400  -0.395  -0.394  -0.374  -0.373
 -0.348  -0.340  -0.339  -0.336  -0.335  -0.334  -0.252  -0.244
 -0.235  -0.230

          Ground-State Mulliken Net Atomic Charges

     Atom                 Charge (a.u.)
  ----------------------------------------
      1 C                    -0.393308
      2 C                    -0.326195
      3 C                     0.380271
      4 C                    -0.319113
      5 C                    -0.325391
      6 C                     0.729845
      7 H                     0.143309
      8 H                     0.158255
      9 C                    -0.653245
     10 C                    -0.638295
     11 H                     0.162333
     12 H                     0.132284
     13 H                     0.159981
     14 H                     0.151890
     15 H                     0.157631
     16 H                     0.137581
     17 H                     0.160121
     18 H                     0.167525
     19 C                    -0.470459
     20 C                    -0.266813
     21 C                     0.600585
     22 C                    -0.222687
     23 C                    -0.593671
     24 C                     0.633496
     25 H                     0.143730
     26 H                     0.167547
     27 C                    -0.583676
     28 C                    -0.686948
     29 H                     0.236712
     30 H                     0.126209
     31 H                     0.151168
     32 H                     0.152612
     33 H                     0.163819
     34 H                     0.138526
     35 H                     0.150200
     36 H                     0.174169
  ----------------------------------------
  Sum of atomic charges =    -0.000000

                    Cartesian Multipole Moments
 -----------------------------------------------------------------
    Charge (ESU x 10^10)
                -0.0000
    Dipole Moment (Debye)
         X       0.0844      Y       0.0725      Z       0.1192
       Tot       0.1630
    Quadrupole Moments (Debye-Ang)
        XX     -98.1615     XY      -6.8646     YY     -97.1987
        XZ       3.5474     YZ       3.2798     ZZ     -94.5255

 Total job time:  186.19s(wall), 741.03s(cpu)
        *  Thank you very much for using Q-Chem.  Have a nice day.  *
