 Q-Chem 5.0, Q-Chem, Inc., Pleasanton, CA (2017)
 Q-Chem 5.0.1 for Intel X86 EM64T Linux

User input:
--------------------------------------------------------------
$molecule
0  1
C        -0.54444000        -0.68370000        -0.06689000
C        -0.55709000        +0.71878000        +0.05493000
C        -1.74320000        -1.41616000        -0.12552000
C        -2.93952000        -0.70056000        -0.05285000
C        -2.95313000        +0.68255000        +0.06934000
C        -1.77161000        +1.42404000        +0.12810000
H        -3.90354000        +1.20325000        +0.11710000
H        -3.87892000        -1.24211000        -0.08988000
C        -1.83960000        +2.92746000        +0.24839000
C        -1.78103000        -2.92226000        -0.24590000
H        -1.39752000        -3.25223000        -1.21323000
H        -2.80572000        -3.28175000        -0.13627000
H        -1.16958000        -3.40777000        +0.51926000
H        -1.24214000        +3.42352000        -0.52065000
H        -1.45503000        +3.26427000        +1.21284000
H        -2.87211000        +3.26623000        +0.14638000
H        +0.35825000        -1.18166000        -0.11386000
H        +0.33551000        +1.23549000        +0.09097000
@C        -2.12919000        +0.17530000        +4.81068000
@C        -2.14184000        +1.57778000        +4.93250000
@C        -3.32795000        -0.55716000        +4.75205000
@C        -4.52427000        +0.15844000        +4.82472000
@C        -4.53788000        +1.54155000        +4.94691000
@C        -3.35636000        +2.28304000        +5.00567000
@H        -5.48829000        +2.06225000        +4.99467000
@H        -5.46367000        -0.38311000        +4.78769000
@C        -3.42435000        +3.78646000        +5.12596000
@C        -3.36578000        -2.06326000        +4.63167000
@H        -2.98227000        -2.39323000        +3.66434000
@H        -4.39047000        -2.42275000        +4.74130000
@H        -2.75433000        -2.54877000        +5.39683000
@H        -2.82689000        +4.28252000        +4.35692000
@H        -3.03978000        +4.12327000        +6.09041000
@H        -4.45686000        +4.12523000        +5.02395000
@H        -1.22650000        -0.32266000        +4.76371000
@H        -1.24924000        +2.09449000        +4.96854000
$end

$rem
JOBTYPE                   SP
METHOD                    B3LYP
DFT_D                     d3_op
BASIS                     6-311++G(d,p)
SYMMETRY                  False
THRESH                    12
SCF_CONVERGENCE           8
MAX_SUB_FILE_NUM          128
MEM_STATIC                400
MEM_TOTAL                 4000
$end
--------------------------------------------------------------

             Standard Nuclear Orientation (Angstroms)
    I     Atom           X                Y                Z
 ----------------------------------------------------------------
    1      C      -0.5444400000    -0.6837000000    -0.0668900000
    2      C      -0.5570900000     0.7187800000     0.0549300000
    3      C      -1.7432000000    -1.4161600000    -0.1255200000
    4      C      -2.9395200000    -0.7005600000    -0.0528500000
    5      C      -2.9531300000     0.6825500000     0.0693400000
    6      C      -1.7716100000     1.4240400000     0.1281000000
    7      H      -3.9035400000     1.2032500000     0.1171000000
    8      H      -3.8789200000    -1.2421100000    -0.0898800000
    9      C      -1.8396000000     2.9274600000     0.2483900000
   10      C      -1.7810300000    -2.9222600000    -0.2459000000
   11      H      -1.3975200000    -3.2522300000    -1.2132300000
   12      H      -2.8057200000    -3.2817500000    -0.1362700000
   13      H      -1.1695800000    -3.4077700000     0.5192600000
   14      H      -1.2421400000     3.4235200000    -0.5206500000
   15      H      -1.4550300000     3.2642700000     1.2128400000
   16      H      -2.8721100000     3.2662300000     0.1463800000
   17      H       0.3582500000    -1.1816600000    -0.1138600000
   18      H       0.3355100000     1.2354900000     0.0909700000
   19      GH     -2.1291900000     0.1753000000     4.8106800000
   20      GH     -2.1418400000     1.5777800000     4.9325000000
   21      GH     -3.3279500000    -0.5571600000     4.7520500000
   22      GH     -4.5242700000     0.1584400000     4.8247200000
   23      GH     -4.5378800000     1.5415500000     4.9469100000
   24      GH     -3.3563600000     2.2830400000     5.0056700000
   25      GH     -5.4882900000     2.0622500000     4.9946700000
   26      GH     -5.4636700000    -0.3831100000     4.7876900000
   27      GH     -3.4243500000     3.7864600000     5.1259600000
   28      GH     -3.3657800000    -2.0632600000     4.6316700000
   29      GH     -2.9822700000    -2.3932300000     3.6643400000
   30      GH     -4.3904700000    -2.4227500000     4.7413000000
   31      GH     -2.7543300000    -2.5487700000     5.3968300000
   32      GH     -2.8268900000     4.2825200000     4.3569200000
   33      GH     -3.0397800000     4.1232700000     6.0904100000
   34      GH     -4.4568600000     4.1252300000     5.0239500000
   35      GH     -1.2265000000    -0.3226600000     4.7637100000
   36      GH     -1.2492400000     2.0944900000     4.9685400000
 ----------------------------------------------------------------

   12    -310.9759482112      6.70E-09 Convergence criterion met
 Total energy in the final basis set = -310.97594821

                    Orbital Energies (a.u.)
 --------------------------------------------------------------

 Alpha MOs
 -- Occupied --
-10.180 -10.180 -10.168 -10.168 -10.168 -10.167 -10.167 -10.167
 -0.858  -0.787  -0.745  -0.721  -0.658  -0.612  -0.577  -0.496
 -0.472  -0.460  -0.425  -0.421  -0.417  -0.404  -0.397  -0.376
 -0.345  -0.342  -0.339  -0.252  -0.236

          Ground-State Mulliken Net Atomic Charges

     Atom                 Charge (a.u.)
  ----------------------------------------
      1 C                    -0.166592
      2 C                    -0.343097
      3 C                     0.567006
      4 C                    -0.464886
      5 C                    -0.407514
      6 C                     0.599215
      7 H                     0.155532
      8 H                     0.146103
      9 C                    -0.655040
     10 C                    -0.650645
     11 H                     0.155965
     12 H                     0.145613
     13 H                     0.149704
     14 H                     0.145260
     15 H                     0.171850
     16 H                     0.136783
     17 H                     0.164875
     18 H                     0.169370
     19 GH                   -0.048201
     20 GH                   -0.021132
     21 GH                    0.023407
     22 GH                    0.007710
     23 GH                   -0.005563
     24 GH                    0.019374
     25 GH                   -0.001260
     26 GH                   -0.000889
     27 GH                    0.006589
     28 GH                    0.008458
     29 GH                   -0.008655
     30 GH                    0.000368
     31 GH                   -0.000294
     32 GH                    0.000125
     33 GH                   -0.000178
     34 GH                    0.000406
     35 GH                   -0.001879
     36 GH                    0.002112
  ----------------------------------------
  Sum of atomic charges =     0.000000

                    Cartesian Multipole Moments
 -----------------------------------------------------------------
    Charge (ESU x 10^10)
                 0.0000
    Dipole Moment (Debye)
         X       0.0894      Y       0.0003      Z       0.0101
       Tot       0.0899
    Quadrupole Moments (Debye-Ang)
        XX     -46.2777     XY       0.0029     YY     -44.7061
        XZ      -0.0723     YZ       0.6766     ZZ     -52.7000

 Total job time:  129.28s(wall), 514.53s(cpu)
        *  Thank you very much for using Q-Chem.  Have a nice day.  *
