 Q-Chem 5.0, Q-Chem, Inc., Pleasanton, CA (2017)
 Q-Chem 5.0.1 for Intel X86 EM64T Linux

User input:
--------------------------------------------------------------
$molecule
0  1
--
0  1
C        -0.58454000        -0.67556000        -0.07544000
C        -0.59851000        +0.70920000        +0.05808000
C        -1.77633000        -1.40990000        -0.13252000
C        -2.97828000        -0.70388000        -0.05611000
C        -2.99244000        +0.68477000        +0.07719000
C        -1.80513000        +1.41687000        +0.13452000
H        -3.94378000        +1.20441000        +0.13594000
H        -3.91864000        -1.24474000        -0.10022000
C        -1.81546000        +2.92210000        +0.24949000
C        -1.75732000        -2.91589000        -0.24640000
H        -1.03160000        -3.25185000        -0.99235000
H        -2.73712000        -3.30600000        -0.53105000
H        -1.48213000        -3.37940000        +0.70725000
H        -1.54006000        +3.39064000        -0.70147000
H        -1.10219000        +3.26991000        +1.00208000
H        -2.80465000        +3.29345000        +0.52612000
H        +0.36601000        -1.19708000        -0.13515000
H        +0.34176000        +1.25035000        +0.10232000
--
0  1
C        -0.54836000        -1.05824000        +3.90605000
C        -0.56233000        +0.32652000        +4.03957000
C        -1.74015000        -1.79258000        +3.84897000
C        -2.94210000        -1.08656000        +3.92538000
C        -2.95626000        +0.30209000        +4.05868000
C        -1.76895000        +1.03419000        +4.11601000
H        -3.90760000        +0.82173000        +4.11743000
H        -3.88246000        -1.62742000        +3.88127000
C        -1.77928000        +2.53942000        +4.23098000
C        -1.72114000        -3.29857000        +3.73509000
H        -0.99542000        -3.63453000        +2.98914000
H        -2.70094000        -3.68868000        +3.45044000
H        -1.44595000        -3.76208000        +4.68874000
H        -1.50388000        +3.00796000        +3.28002000
H        -1.06601000        +2.88723000        +4.98357000
H        -2.76847000        +2.91077000        +4.50761000
H        +0.40219000        -1.57976000        +3.84634000
H        +0.37794000        +0.86767000        +4.08381000
$end

$rem
JOBTYPE                   SP
METHOD                    B3LYP
DFT_D                     d3_op
BASIS                     6-311++G(d,p)
SYMMETRY                  False
THRESH                    12
SCF_CONVERGENCE           8
MAX_SUB_FILE_NUM          128
MEM_STATIC                400
MEM_TOTAL                 4000
$end
--------------------------------------------------------------

             Standard Nuclear Orientation (Angstroms)
    I     Atom           X                Y                Z
 ----------------------------------------------------------------
    1      C       1.9354974066    -0.8591899849     1.1967454095
    2      C       2.0511850105     0.5272440070     1.1963291410
    3      C       1.8724306982    -1.5812292178    -0.0022369518
    4      C       1.9349579894    -0.8621681649    -1.1972382368
    5      C       2.0515575706     0.5280557158    -1.1978016124
    6      C       2.1140229087     1.2479756980    -0.0033245403
    7      H       2.0957631453     1.0583393669    -2.1440416476
    8      H       1.8911587420    -1.3937770580    -2.1428733525
    9      C       2.2694081692     2.7496001511     0.0013214747
   10      C       1.7157521189    -3.0834847240     0.0017794346
   11      H       2.3826700520    -3.5536207464     0.7299089791
   12      H       1.9358947346    -3.5093281061    -0.9797571757
   13      H       0.6920767592    -3.3718701199     0.2643475209
   14      H       3.2859215680     3.0384835912     0.2893261296
   15      H       1.5839251855     3.2196929097     0.7121262822
   16      H       2.0731659981     3.1731882981    -0.9860912696
   17      H       1.8919089320    -1.3914875916     2.1421834031
   18      H       2.0949089438     1.0591622343     2.1418762789
   19      C      -2.0505807069    -0.5257280422     1.1967298971
   20      C      -1.9348931031     0.8607059498     1.1963136286
   21      C      -2.1136474153    -1.2477672750    -0.0022524642
   22      C      -2.0511201242    -0.5287062221    -1.1972537491
   23      C      -1.9345205430     0.8615176586    -1.1978171248
   24      C      -1.8720552048     1.5814376408    -0.0033400527
   25      H      -1.8903149683     1.3918013097    -2.1440571600
   26      H      -2.0949193716    -1.0603151152    -2.1428888648
   27      C      -1.7166699444     3.0830620939     0.0013059623
   28      C      -2.2703259946    -2.7500227812     0.0017639222
   29      H      -1.6034080615    -3.2201588036     0.7298934667
   30      H      -2.0501833790    -3.1758661633    -0.9797726881
   31      H      -3.2940013544    -3.0384081771     0.2643320086
   32      H      -0.7001565456     3.3719455340     0.2893106172
   33      H      -2.4021529281     3.5531548525     0.7121107698
   34      H      -1.9129121154     3.5066502409    -0.9861067819
   35      H      -2.0941691815    -1.0580256488     2.1421678908
   36      H      -1.8911691698     1.3926241771     2.1418607665
 ----------------------------------------------------------------

   13    -621.9659504184      7.16E-09 Convergence criterion met
 Total energy in the final basis set = -621.96595042

                    Orbital Energies (a.u.)
 --------------------------------------------------------------

 Alpha MOs
 -- Occupied --
-10.176 -10.176 -10.176 -10.176 -10.166 -10.166 -10.166 -10.166
-10.166 -10.166 -10.166 -10.166 -10.165 -10.165 -10.165 -10.165
 -0.856  -0.855  -0.785  -0.783  -0.741  -0.739  -0.719  -0.717
 -0.656  -0.653  -0.605  -0.604  -0.572  -0.571  -0.491  -0.490
 -0.470  -0.469  -0.450  -0.448  -0.431  -0.424  -0.415  -0.414
 -0.414  -0.407  -0.401  -0.398  -0.396  -0.394  -0.374  -0.372
 -0.349  -0.339  -0.338  -0.335  -0.334  -0.333  -0.255  -0.242
 -0.238  -0.226

          Ground-State Mulliken Net Atomic Charges

     Atom                 Charge (a.u.)
  ----------------------------------------
      1 C                    -0.405428
      2 C                    -0.295647
      3 C                     0.528569
      4 C                    -0.409012
      5 C                    -0.343894
      6 C                     0.575039
      7 H                     0.159147
      8 H                     0.170525
      9 C                    -0.526674
     10 C                    -0.687849
     11 H                     0.140677
     12 H                     0.135863
     13 H                     0.186489
     14 H                     0.162388
     15 H                     0.125798
     16 H                     0.134459
     17 H                     0.173926
     18 H                     0.175559
     19 C                    -0.296497
     20 C                    -0.404202
     21 C                     0.586238
     22 C                    -0.347018
     23 C                    -0.409071
     24 C                     0.516794
     25 H                     0.170058
     26 H                     0.159651
     27 C                    -0.682702
     28 C                    -0.527538
     29 H                     0.125715
     30 H                     0.134369
     31 H                     0.162733
     32 H                     0.185215
     33 H                     0.141388
     34 H                     0.135446
     35 H                     0.175058
     36 H                     0.174431
  ----------------------------------------
  Sum of atomic charges =     0.000000

                    Cartesian Multipole Moments
 -----------------------------------------------------------------
    Charge (ESU x 10^10)
                 0.0000
    Dipole Moment (Debye)
         X      -0.0054      Y       0.0005      Z       0.0730
       Tot       0.0732
    Quadrupole Moments (Debye-Ang)
        XX    -106.7644     XY       1.7032     YY     -91.0307
        XZ       0.0001     YZ       0.0071     ZZ     -92.4805

 Total job time:  182.37s(wall), 725.02s(cpu)
        *  Thank you very much for using Q-Chem.  Have a nice day.  *
