 Q-Chem 5.0, Q-Chem, Inc., Pleasanton, CA (2017)
 Q-Chem 5.0.1 for Intel X86 EM64T Linux

User input:
--------------------------------------------------------------
$molecule
0  1
--
0  1
C        -0.54444000        -0.68370000        -0.06689000
C        -0.55709000        +0.71878000        +0.05493000
C        -1.74320000        -1.41616000        -0.12552000
C        -2.93952000        -0.70056000        -0.05285000
C        -2.95313000        +0.68255000        +0.06934000
C        -1.77161000        +1.42404000        +0.12810000
H        -3.90354000        +1.20325000        +0.11710000
H        -3.87892000        -1.24211000        -0.08988000
C        -1.83960000        +2.92746000        +0.24839000
C        -1.78103000        -2.92226000        -0.24590000
H        -1.39752000        -3.25223000        -1.21323000
H        -2.80572000        -3.28175000        -0.13627000
H        -1.16958000        -3.40777000        +0.51926000
H        -1.24214000        +3.42352000        -0.52065000
H        -1.45503000        +3.26427000        +1.21284000
H        -2.87211000        +3.26623000        +0.14638000
H        +0.35825000        -1.18166000        -0.11386000
H        +0.33551000        +1.23549000        +0.09097000
--
0  1
C        -2.12919000        +0.17530000        +4.81068000
C        -2.14184000        +1.57778000        +4.93250000
C        -3.32795000        -0.55716000        +4.75205000
C        -4.52427000        +0.15844000        +4.82472000
C        -4.53788000        +1.54155000        +4.94691000
C        -3.35636000        +2.28304000        +5.00567000
H        -5.48829000        +2.06225000        +4.99467000
H        -5.46367000        -0.38311000        +4.78769000
C        -3.42435000        +3.78646000        +5.12596000
C        -3.36578000        -2.06326000        +4.63167000
H        -2.98227000        -2.39323000        +3.66434000
H        -4.39047000        -2.42275000        +4.74130000
H        -2.75433000        -2.54877000        +5.39683000
H        -2.82689000        +4.28252000        +4.35692000
H        -3.03978000        +4.12327000        +6.09041000
H        -4.45686000        +4.12523000        +5.02395000
H        -1.22650000        -0.32266000        +4.76371000
H        -1.24924000        +2.09449000        +4.96854000
$end

$rem
JOBTYPE                   SP
METHOD                    B3LYP
DFT_D                     d3_op
BASIS                     6-311++G(d,p)
SYMMETRY                  False
THRESH                    12
SCF_CONVERGENCE           8
MAX_SUB_FILE_NUM          128
MEM_STATIC                400
MEM_TOTAL                 4000
$end
--------------------------------------------------------------

             Standard Nuclear Orientation (Angstroms)
    I     Atom           X                Y                Z
 ----------------------------------------------------------------
    1      C       3.2455799973     0.1475561572     1.0288520959
    2      C       2.6159104524     1.4061300573     0.9906645641
    3      C       3.1850894286    -0.7259242451    -0.0712995045
    4      C       2.4746006072    -0.2989829406    -1.1944524720
    5      C       1.8514748492     0.9413320386    -1.2324253921
    6      C       1.9030016436     1.8200769633    -0.1487270878
    7      H       1.3134324173     1.2394496327    -2.1259156926
    8      H       2.4074091125    -0.9563225997    -2.0549812972
    9      C       1.2196110089     3.1629299686    -0.2440531970
   10      C       3.8357526598    -2.0900677978    -0.0743639057
   11      H       4.9242082869    -2.0099881843    -0.0511463868
   12      H       3.5459725268    -2.6419146804    -0.9703180818
   13      H       3.5434187553    -2.6830144945     0.7962772324
   14      H       1.8975421297     3.9821044253     0.0085712311
   15      H       0.3764553610     3.2268474408     0.4462380268
   16      H       0.8533583037     3.3269045515    -1.2590504114
   17      H       3.7592706819    -0.1382221818     1.8770691673
   18      H       2.6782166159     2.0324252597     1.8085246543
   19      C      -1.8332271776    -0.9406014420     1.2771128184
   20      C      -2.4628967225     0.3179724580     1.2389252865
   21      C      -1.8937177463    -1.8140818444     0.1769612180
   22      C      -2.6042065678    -1.3871405398    -0.9461917495
   23      C      -3.2273323257    -0.1468255607    -0.9841646696
   24      C      -3.1758055313     0.7319193641     0.0995336347
   25      H      -3.7653747577     0.1512920334    -1.8776549701
   26      H      -2.6713980625    -2.0444801989    -1.8067205747
   27      C      -3.8591961661     2.0747723694     0.0042075254
   28      C      -1.2430545151    -3.1782253971     0.1738968168
   29      H      -0.1545988880    -3.0981457836     0.1971143357
   30      H      -1.5328346482    -3.7300722797    -0.7220573593
   31      H      -1.5353884197    -3.7711720937     1.0445379549
   32      H      -3.1812650452     2.8939468261     0.2568319536
   33      H      -4.7023518140     2.1386898416     0.6944987492
   34      H      -4.2254488712     2.2387469522    -1.0107896889
   35      H      -1.3195364930    -1.2263797810     2.1253298898
   36      H      -2.4005905591     0.9442676604     2.0567853767
 ----------------------------------------------------------------

   13    -621.9535022786      6.56E-09 Convergence criterion met
 Total energy in the final basis set = -621.95350228

                    Orbital Energies (a.u.)
 --------------------------------------------------------------

 Alpha MOs
 -- Occupied --
-10.178 -10.178 -10.177 -10.177 -10.166 -10.166 -10.166 -10.166
-10.165 -10.165 -10.165 -10.165 -10.165 -10.164 -10.164 -10.164
 -0.856  -0.856  -0.785  -0.785  -0.743  -0.742  -0.719  -0.718
 -0.656  -0.656  -0.610  -0.609  -0.575  -0.574  -0.494  -0.493
 -0.470  -0.469  -0.458  -0.457  -0.424  -0.421  -0.418  -0.418
 -0.416  -0.414  -0.402  -0.402  -0.395  -0.395  -0.374  -0.374
 -0.344  -0.342  -0.340  -0.340  -0.336  -0.336  -0.250  -0.249
 -0.234  -0.234

          Ground-State Mulliken Net Atomic Charges

     Atom                 Charge (a.u.)
  ----------------------------------------
      1 C                    -0.174656
      2 C                    -0.368916
      3 C                     0.540357
      4 C                    -0.462347
      5 C                    -0.383845
      6 C                     0.645209
      7 H                     0.150516
      8 H                     0.142678
      9 C                    -0.672187
     10 C                    -0.645711
     11 H                     0.156102
     12 H                     0.143637
     13 H                     0.149160
     14 H                     0.142653
     15 H                     0.166367
     16 H                     0.138372
     17 H                     0.162354
     18 H                     0.166936
     19 C                    -0.322837
     20 C                    -0.205547
     21 C                     0.660657
     22 C                    -0.506625
     23 C                    -0.498480
     24 C                     0.611210
     25 H                     0.147341
     26 H                     0.153902
     27 C                    -0.624246
     28 C                    -0.648541
     29 H                     0.179091
     30 H                     0.138133
     31 H                     0.145624
     32 H                     0.149981
     33 H                     0.159225
     34 H                     0.143340
     35 H                     0.158672
     36 H                     0.162422
  ----------------------------------------
  Sum of atomic charges =     0.000000

                    Cartesian Multipole Moments
 -----------------------------------------------------------------
    Charge (ESU x 10^10)
                 0.0000
    Dipole Moment (Debye)
         X       0.0720      Y       0.0386      Z       0.1482
       Tot       0.1693
    Quadrupole Moments (Debye-Ang)
        XX    -102.0956     XY      -5.5867     YY     -92.6001
        XZ       4.1023     YZ       1.9123     ZZ     -93.9150

 Total job time:  141.35s(wall), 562.45s(cpu)
        *  Thank you very much for using Q-Chem.  Have a nice day.  *
