 Q-Chem 5.0, Q-Chem, Inc., Pleasanton, CA (2017)
 Q-Chem 5.0.1 for Intel X86 EM64T Linux

User input:
--------------------------------------------------------------
$molecule
0  1
--
0  1
C        +0.22270000        +1.04488000        +0.58595000
C        +0.62626000        -0.41353000        +0.99871000
C        -1.18200000        +1.23223000        +0.04377000
C        -0.37457000        -1.51643000        +0.72333000
O        -2.09172000        +0.78832000        +0.93966000
O        -1.47336000        +1.75939000        -0.99882000
O        -0.91364000        -1.42792000        -0.50620000
O        -0.62208000        -2.40877000        +1.49911000
C        -1.86134000        -2.44741000        -0.86560000
C        -3.47068000        +0.87492000        +0.53920000
C        +1.33008000        +1.39974000        -0.43491000
C        +2.63070000        +1.71700000        +0.32855000
C        +3.04336000        +0.29351000        +0.80300000
C        +1.94423000        -0.59299000        +0.15262000
O        +1.62840000        +0.13663000        -1.04376000
H        +0.27811000        +1.68786000        +1.46900000
H        +0.83923000        -0.48042000        +2.06408000
H        -2.68749000        -2.46677000        -0.15296000
H        -3.76076000        +1.91522000        +0.38406000
H        +3.37234000        +2.13782000        -0.35195000
H        +2.48236000        +2.42488000        +1.14651000
H        +4.02182000        +0.00994000        +0.41161000
H        +3.07359000        +0.18738000        +1.88928000
H        -2.21148000        -2.17765000        -1.85937000
H        -1.38062000        -3.42697000        -0.88096000
H        -4.03855000        +0.43623000        +1.35671000
H        -3.63120000        +0.31700000        -0.38495000
H        +1.03270000        +2.19943000        -1.08064000
H        +2.24339000        -1.61496000        +0.04786000
--
0  1
C        +0.24565000        +2.34504000        +4.78941000
C        +0.64921000        +0.88663000        +5.20217000
C        -1.15905000        +2.53239000        +4.24723000
C        -0.35162000        -0.21627000        +4.92679000
O        -2.06877000        +2.08848000        +5.14312000
O        -1.45041000        +3.05955000        +3.20464000
O        -0.89069000        -0.12776000        +3.69726000
O        -0.59913000        -1.10861000        +5.70257000
C        -1.83839000        -1.14725000        +3.33786000
C        -3.44773000        +2.17508000        +4.74266000
C        +1.35303000        +2.69990000        +3.76855000
C        +2.65365000        +3.01716000        +4.53201000
C        +3.06631000        +1.59367000        +5.00646000
C        +1.96718000        +0.70717000        +4.35608000
O        +1.65135000        +1.43679000        +3.15970000
H        +0.30106000        +2.98802000        +5.67246000
H        +0.86218000        +0.81974000        +6.26754000
H        -2.66454000        -1.16661000        +4.05050000
H        -3.73781000        +3.21538000        +4.58752000
H        +3.39529000        +3.43798000        +3.85151000
H        +2.50531000        +3.72504000        +5.34997000
H        +4.04477000        +1.31010000        +4.61507000
H        +3.09654000        +1.48754000        +6.09274000
H        -2.18853000        -0.87749000        +2.34409000
H        -1.35767000        -2.12681000        +3.32250000
H        -4.01560000        +1.73639000        +5.56017000
H        -3.60825000        +1.61716000        +3.81851000
H        +1.05565000        +3.49959000        +3.12282000
H        +2.26634000        -0.31480000        +4.25132000
$end

$rem
JOBTYPE                   SP
METHOD                    B3LYP
DFT_D                     d3_op
BASIS                     6-311++G(d,p)
SYMMETRY                  False
THRESH                    12
SCF_CONVERGENCE           8
MAX_SUB_FILE_NUM          128
MEM_STATIC                400
MEM_TOTAL                 4000
$end
--------------------------------------------------------------

             Standard Nuclear Orientation (Angstroms)
    I     Atom           X                Y                Z
 ----------------------------------------------------------------
    1      C      -1.3544591176     0.6976642890     0.8890391859
    2      C      -1.4862077612     0.8044449466    -0.6702655968
    3      C      -1.9724712427    -0.5257957091     1.5397679399
    4      C      -2.3038852959    -0.2588476359    -1.3736115832
    5      O      -1.4548661272    -1.6527909739     1.0019649311
    6      O      -2.7594555910    -0.5208528871     2.4510381672
    7      O      -3.4656231793    -0.5151483527    -0.7452410406
    8      O      -1.9767184305    -0.7806156645    -2.4128836605
    9      C      -4.3201757719    -1.4982323994    -1.3534754804
   10      C      -1.9790989863    -2.8943255113     1.5051252983
   11      C      -1.9927972044     2.0298279629     1.3497295985
   12      C      -0.9923814394     3.1755954111     1.1016918684
   13      C      -1.0531185903     3.2832171972    -0.4495796770
   14      C      -2.1425843370     2.2316521992    -0.8020546307
   15      O      -2.9948126341     2.2722696334     0.3535734199
   16      H      -0.2930560056     0.6567105899     1.1498400283
   17      H      -0.5113070994     0.7816443425    -1.1538899986
   18      H      -3.7936212691    -2.4484897356    -1.4559730528
   19      H      -1.7584805177    -3.0014056160     2.5682810999
   20      H      -1.3461018118     4.0921085808     1.5761232332
   21      H       0.0063305716     2.9595285844     1.4864604445
   22      H      -1.3828096347     4.2733708523    -0.7687686541
   23      H      -0.0998879497     3.0736907429    -0.9391015652
   24      H      -5.1704864469    -1.5954414217    -0.6823052694
   25      H      -4.6460417401    -1.1629459312    -2.3395078311
   26      H      -1.4831284164    -3.6732088330     0.9301454570
   27      H      -3.0597386225    -2.9351180500     1.3579907853
   28      H      -2.3134494534     1.9841625203     2.3695349701
   29      H      -2.5917225519     2.4037045435    -1.7578615667
   30      C       2.9830564460     0.0292009607     0.5741833235
   31      C       2.8513078024     0.1359816183    -0.9851214592
   32      C       2.3650443209    -1.1942590374     1.2249120775
   33      C       2.0336302676    -0.9273109642    -1.6884674456
   34      O       2.8826494364    -2.3212543022     0.6871090688
   35      O       1.5780599726    -1.1893162154     2.1361823049
   36      O       0.8718923843    -1.1836116810    -1.0600969030
   37      O       2.3607971331    -1.4490789928    -2.7277395228
   38      C       0.0173397917    -2.1666957277    -1.6683313427
   39      C       2.3584165772    -3.5627888396     1.1902694359
   40      C       2.3447183592     1.3613646346     1.0348737361
   41      C       3.3451341242     2.5071320828     0.7868360061
   42      C       3.2843969733     2.6147538689    -0.7644355394
   43      C       2.1949312266     1.5631888709    -1.1169104930
   44      O       1.3427029295     1.6038063051     0.0387175576
   45      H       4.0444595580    -0.0117527384     0.8349841660
   46      H       3.8262084642     0.1131810142    -1.4687458609
   47      H       0.5438942945    -3.1169530639    -1.7708289151
   48      H       2.5790350458    -3.6698689443     2.2534252375
   49      H       2.9914137518     3.4236452525     1.2612673708
   50      H       4.3438461351     2.2910652561     1.1716045822
   51      H       2.9547059289     3.6049075240    -1.0836245165
   52      H       4.2376276139     2.4052274146    -1.2539574275
   53      H      -0.8329708833    -2.2639047500    -0.9971611318
   54      H      -0.3085261765    -1.8314092595    -2.6543636934
   55      H       2.8543871472    -4.3416721613     0.6152895946
   56      H       1.2777769411    -3.6035813783     1.0431349229
   57      H       2.0240661102     1.3156991920     2.0546791077
   58      H       1.7457930117     1.7352412152    -2.0727174290
 ----------------------------------------------------------------

   15   -1531.7149085675      4.95E-09 Convergence criterion met
 Total energy in the final basis set = -1531.71490857

                    Orbital Energies (a.u.)
 --------------------------------------------------------------

 Alpha MOs
 -- Occupied --
-19.181 -19.170 -19.169 -19.167 -19.153 -19.127 -19.122 -19.114
-19.113 -19.108 -10.317 -10.305 -10.301 -10.297 -10.254 -10.245
-10.236 -10.229 -10.228 -10.228 -10.216 -10.216 -10.213 -10.204
-10.193 -10.191 -10.189 -10.185 -10.166 -10.164  -1.124  -1.115
 -1.111  -1.106  -1.083  -1.051  -1.038  -1.028  -1.024  -1.021
 -0.843  -0.817  -0.795  -0.788  -0.771  -0.765  -0.744  -0.732
 -0.725  -0.722  -0.664  -0.647  -0.619  -0.609  -0.599  -0.587
 -0.582  -0.573  -0.568  -0.561  -0.556  -0.542  -0.528  -0.517
 -0.512  -0.501  -0.500  -0.493  -0.490  -0.487  -0.480  -0.479
 -0.476  -0.473  -0.468  -0.466  -0.463  -0.450  -0.449  -0.433
 -0.431  -0.425  -0.424  -0.415  -0.414  -0.408  -0.401  -0.393
 -0.386  -0.380  -0.378  -0.376  -0.370  -0.369  -0.368  -0.365
 -0.357  -0.354  -0.350  -0.348  -0.344  -0.339  -0.325  -0.324
 -0.319  -0.316  -0.306  -0.301  -0.298  -0.294  -0.281  -0.281
 -0.274  -0.261

          Ground-State Mulliken Net Atomic Charges

     Atom                 Charge (a.u.)
  ----------------------------------------
      1 C                     0.164515
      2 C                     0.774073
      3 C                    -0.679508
      4 C                    -0.601862
      5 O                    -0.003086
      6 O                    -0.158372
      7 O                     0.055765
      8 O                    -0.054749
      9 C                    -0.160245
     10 C                    -0.299926
     11 C                    -0.564218
     12 C                    -0.162264
     13 C                    -0.465787
     14 C                    -0.515464
     15 O                    -0.104243
     16 H                     0.258442
     17 H                     0.434100
     18 H                     0.182385
     19 H                     0.205051
     20 H                     0.201977
     21 H                     0.118779
     22 H                     0.191179
     23 H                     0.072955
     24 H                     0.180684
     25 H                     0.172019
     26 H                     0.116196
     27 H                     0.197747
     28 H                     0.265069
     29 H                     0.251265
     30 C                    -0.048376
     31 C                     0.163466
     32 C                    -0.634291
     33 C                    -0.439284
     34 O                     0.068826
     35 O                    -0.098016
     36 O                     0.006092
     37 O                    -0.130858
     38 C                    -0.429131
     39 C                    -0.166789
     40 C                    -0.113495
     41 C                    -0.721856
     42 C                    -0.511628
     43 C                    -0.085586
     44 O                     0.249991
     45 H                     0.247774
     46 H                     0.300293
     47 H                     0.213927
     48 H                     0.167720
     49 H                     0.175905
     50 H                     0.144676
     51 H                     0.180016
     52 H                     0.134605
     53 H                     0.099026
     54 H                     0.254853
     55 H                     0.173360
     56 H                     0.189757
     57 H                     0.277642
     58 H                     0.258903
  ----------------------------------------
  Sum of atomic charges =     0.000000

                    Cartesian Multipole Moments
 -----------------------------------------------------------------
    Charge (ESU x 10^10)
                 0.0000
    Dipole Moment (Debye)
         X       3.6300      Y      -0.3025      Z       0.4734
       Tot       3.6732
    Quadrupole Moments (Debye-Ang)
        XX    -173.1514     XY      16.7008     YY    -158.2716
        XZ      16.5158     YZ      -8.7170     ZZ    -194.6884

 Total job time:  8211.84s(wall), 8192.31s(cpu)
        *  Thank you very much for using Q-Chem.  Have a nice day.  *
