 Q-Chem 5.0, Q-Chem, Inc., Pleasanton, CA (2017)
 Q-Chem 5.0.1 for Intel X86 EM64T Linux

User input:
--------------------------------------------------------------
$molecule
0  1
C        +0.22270000        +1.04488000        +0.58595000
C        +0.62626000        -0.41353000        +0.99871000
C        -1.18200000        +1.23223000        +0.04377000
C        -0.37457000        -1.51643000        +0.72333000
O        -2.09172000        +0.78832000        +0.93966000
O        -1.47336000        +1.75939000        -0.99882000
O        -0.91364000        -1.42792000        -0.50620000
O        -0.62208000        -2.40877000        +1.49911000
C        -1.86134000        -2.44741000        -0.86560000
C        -3.47068000        +0.87492000        +0.53920000
C        +1.33008000        +1.39974000        -0.43491000
C        +2.63070000        +1.71700000        +0.32855000
C        +3.04336000        +0.29351000        +0.80300000
C        +1.94423000        -0.59299000        +0.15262000
O        +1.62840000        +0.13663000        -1.04376000
H        +0.27811000        +1.68786000        +1.46900000
H        +0.83923000        -0.48042000        +2.06408000
H        -2.68749000        -2.46677000        -0.15296000
H        -3.76076000        +1.91522000        +0.38406000
H        +3.37234000        +2.13782000        -0.35195000
H        +2.48236000        +2.42488000        +1.14651000
H        +4.02182000        +0.00994000        +0.41161000
H        +3.07359000        +0.18738000        +1.88928000
H        -2.21148000        -2.17765000        -1.85937000
H        -1.38062000        -3.42697000        -0.88096000
H        -4.03855000        +0.43623000        +1.35671000
H        -3.63120000        +0.31700000        -0.38495000
H        +1.03270000        +2.19943000        -1.08064000
H        +2.24339000        -1.61496000        +0.04786000
@C        +0.24565000        +2.34504000        +4.78941000
@C        +0.64921000        +0.88663000        +5.20217000
@C        -1.15905000        +2.53239000        +4.24723000
@C        -0.35162000        -0.21627000        +4.92679000
@O        -2.06877000        +2.08848000        +5.14312000
@O        -1.45041000        +3.05955000        +3.20464000
@O        -0.89069000        -0.12776000        +3.69726000
@O        -0.59913000        -1.10861000        +5.70257000
@C        -1.83839000        -1.14725000        +3.33786000
@C        -3.44773000        +2.17508000        +4.74266000
@C        +1.35303000        +2.69990000        +3.76855000
@C        +2.65365000        +3.01716000        +4.53201000
@C        +3.06631000        +1.59367000        +5.00646000
@C        +1.96718000        +0.70717000        +4.35608000
@O        +1.65135000        +1.43679000        +3.15970000
@H        +0.30106000        +2.98802000        +5.67246000
@H        +0.86218000        +0.81974000        +6.26754000
@H        -2.66454000        -1.16661000        +4.05050000
@H        -3.73781000        +3.21538000        +4.58752000
@H        +3.39529000        +3.43798000        +3.85151000
@H        +2.50531000        +3.72504000        +5.34997000
@H        +4.04477000        +1.31010000        +4.61507000
@H        +3.09654000        +1.48754000        +6.09274000
@H        -2.18853000        -0.87749000        +2.34409000
@H        -1.35767000        -2.12681000        +3.32250000
@H        -4.01560000        +1.73639000        +5.56017000
@H        -3.60825000        +1.61716000        +3.81851000
@H        +1.05565000        +3.49959000        +3.12282000
@H        +2.26634000        -0.31480000        +4.25132000
$end

$rem
JOBTYPE                   SP
METHOD                    B3LYP
DFT_D                     d3_op
BASIS                     6-311++G(d,p)
SYMMETRY                  False
THRESH                    12
SCF_CONVERGENCE           8
MAX_SUB_FILE_NUM          128
MEM_STATIC                400
MEM_TOTAL                 4000
$end
--------------------------------------------------------------

             Standard Nuclear Orientation (Angstroms)
    I     Atom           X                Y                Z
 ----------------------------------------------------------------
    1      C       0.2227000000     1.0448800000     0.5859500000
    2      C       0.6262600000    -0.4135300000     0.9987100000
    3      C      -1.1820000000     1.2322300000     0.0437700000
    4      C      -0.3745700000    -1.5164300000     0.7233300000
    5      O      -2.0917200000     0.7883200000     0.9396600000
    6      O      -1.4733600000     1.7593900000    -0.9988200000
    7      O      -0.9136400000    -1.4279200000    -0.5062000000
    8      O      -0.6220800000    -2.4087700000     1.4991100000
    9      C      -1.8613400000    -2.4474100000    -0.8656000000
   10      C      -3.4706800000     0.8749200000     0.5392000000
   11      C       1.3300800000     1.3997400000    -0.4349100000
   12      C       2.6307000000     1.7170000000     0.3285500000
   13      C       3.0433600000     0.2935100000     0.8030000000
   14      C       1.9442300000    -0.5929900000     0.1526200000
   15      O       1.6284000000     0.1366300000    -1.0437600000
   16      H       0.2781100000     1.6878600000     1.4690000000
   17      H       0.8392300000    -0.4804200000     2.0640800000
   18      H      -2.6874900000    -2.4667700000    -0.1529600000
   19      H      -3.7607600000     1.9152200000     0.3840600000
   20      H       3.3723400000     2.1378200000    -0.3519500000
   21      H       2.4823600000     2.4248800000     1.1465100000
   22      H       4.0218200000     0.0099400000     0.4116100000
   23      H       3.0735900000     0.1873800000     1.8892800000
   24      H      -2.2114800000    -2.1776500000    -1.8593700000
   25      H      -1.3806200000    -3.4269700000    -0.8809600000
   26      H      -4.0385500000     0.4362300000     1.3567100000
   27      H      -3.6312000000     0.3170000000    -0.3849500000
   28      H       1.0327000000     2.1994300000    -1.0806400000
   29      H       2.2433900000    -1.6149600000     0.0478600000
   30      GH      0.2456500000     2.3450400000     4.7894100000
   31      GH      0.6492100000     0.8866300000     5.2021700000
   32      GH     -1.1590500000     2.5323900000     4.2472300000
   33      GH     -0.3516200000    -0.2162700000     4.9267900000
   34      GH     -2.0687700000     2.0884800000     5.1431200000
   35      GH     -1.4504100000     3.0595500000     3.2046400000
   36      GH     -0.8906900000    -0.1277600000     3.6972600000
   37      GH     -0.5991300000    -1.1086100000     5.7025700000
   38      GH     -1.8383900000    -1.1472500000     3.3378600000
   39      GH     -3.4477300000     2.1750800000     4.7426600000
   40      GH      1.3530300000     2.6999000000     3.7685500000
   41      GH      2.6536500000     3.0171600000     4.5320100000
   42      GH      3.0663100000     1.5936700000     5.0064600000
   43      GH      1.9671800000     0.7071700000     4.3560800000
   44      GH      1.6513500000     1.4367900000     3.1597000000
   45      GH      0.3010600000     2.9880200000     5.6724600000
   46      GH      0.8621800000     0.8197400000     6.2675400000
   47      GH     -2.6645400000    -1.1666100000     4.0505000000
   48      GH     -3.7378100000     3.2153800000     4.5875200000
   49      GH      3.3952900000     3.4379800000     3.8515100000
   50      GH      2.5053100000     3.7250400000     5.3499700000
   51      GH      4.0447700000     1.3101000000     4.6150700000
   52      GH      3.0965400000     1.4875400000     6.0927400000
   53      GH     -2.1885300000    -0.8774900000     2.3440900000
   54      GH     -1.3576700000    -2.1268100000     3.3225000000
   55      GH     -4.0156000000     1.7363900000     5.5601700000
   56      GH     -3.6082500000     1.6171600000     3.8185100000
   57      GH      1.0556500000     3.4995900000     3.1228200000
   58      GH      2.2663400000    -0.3148000000     4.2513200000
 ----------------------------------------------------------------

   14    -765.8597626200      6.75E-09 Convergence criterion met
 Total energy in the final basis set = -765.85976262

                    Orbital Energies (a.u.)
 --------------------------------------------------------------

 Alpha MOs
 -- Occupied --
-19.176 -19.174 -19.136 -19.120 -19.116 -10.310 -10.306 -10.242
-10.232 -10.232 -10.230 -10.207 -10.206 -10.182 -10.180  -1.120
 -1.113  -1.065  -1.031  -1.027  -0.833  -0.785  -0.778  -0.740
 -0.729  -0.659  -0.610  -0.596  -0.580  -0.567  -0.551  -0.520
 -0.506  -0.496  -0.489  -0.484  -0.475  -0.473  -0.462  -0.439
 -0.427  -0.425  -0.418  -0.399  -0.385  -0.376  -0.371  -0.368
 -0.362  -0.356  -0.337  -0.334  -0.320  -0.313  -0.290  -0.282
 -0.276

          Ground-State Mulliken Net Atomic Charges

     Atom                 Charge (a.u.)
  ----------------------------------------
      1 C                    -0.087603
      2 C                     0.745546
      3 C                    -0.519645
      4 C                    -0.495700
      5 O                     0.016805
      6 O                    -0.148830
      7 O                     0.043490
      8 O                    -0.074692
      9 C                    -0.158966
     10 C                    -0.320229
     11 C                    -0.507955
     12 C                    -0.243303
     13 C                    -0.491408
     14 C                    -0.448232
     15 O                    -0.094355
     16 H                     0.230955
     17 H                     0.404875
     18 H                     0.186244
     19 H                     0.195885
     20 H                     0.214983
     21 H                     0.125442
     22 H                     0.204668
     23 H                     0.109958
     24 H                     0.179283
     25 H                     0.172281
     26 H                     0.131644
     27 H                     0.197377
     28 H                     0.273641
     29 H                     0.264650
     30 GH                    0.025174
     31 GH                   -0.012345
     32 GH                   -0.032616
     33 GH                    0.028020
     34 GH                    0.001921
     35 GH                   -0.014808
     36 GH                    0.029177
     37 GH                    0.001892
     38 GH                   -0.051076
     39 GH                    0.008372
     40 GH                   -0.072644
     41 GH                   -0.003977
     42 GH                    0.005699
     43 GH                   -0.051254
     44 GH                    0.007981
     45 GH                   -0.000068
     46 GH                    0.000139
     47 GH                   -0.004417
     48 GH                    0.001019
     49 GH                    0.001423
     50 GH                   -0.000226
     51 GH                    0.002815
     52 GH                   -0.000415
     53 GH                    0.030819
     54 GH                    0.004190
     55 GH                   -0.000277
     56 GH                   -0.011818
     57 GH                    0.003302
     58 GH                   -0.002810
  ----------------------------------------
  Sum of atomic charges =     0.000000

                    Cartesian Multipole Moments
 -----------------------------------------------------------------
    Charge (ESU x 10^10)
                 0.0000
    Dipole Moment (Debye)
         X      -0.0048      Y       0.7227      Z       1.2233
       Tot       1.4209
    Quadrupole Moments (Debye-Ang)
        XX     -75.2625     XY       2.9681     YY     -89.6961
        XZ       3.3242     YZ      10.6695     ZZ     -95.7732

 Total job time:  7606.69s(wall), 7572.83s(cpu)
        *  Thank you very much for using Q-Chem.  Have a nice day.  *
