 Q-Chem 5.0, Q-Chem, Inc., Pleasanton, CA (2017)
 Q-Chem 5.0.1 for Intel X86 EM64T Linux

User input:
--------------------------------------------------------------
$molecule
0  1
--
0  1
C        -0.54444000        -0.68370000        -0.06689000
C        -0.55709000        +0.71878000        +0.05493000
C        +0.74969000        -1.43776000        -0.09374000
C        +0.72843000        +1.48436000        +0.06598000
O        +1.53645000        -1.09176000        +0.94813000
O        +1.04702000        -2.28405000        -0.90088000
O        +1.53784000        +1.08301000        -0.93877000
O        +1.01035000        +2.37097000        +0.83478000
C        +2.83449000        +1.70121000        -0.99358000
C        +2.82316000        -1.73208000        +1.00475000
C        -1.74320000        -1.41616000        -0.12552000
C        -2.93952000        -0.70056000        -0.05285000
C        -2.95313000        +0.68255000        +0.06934000
C        -1.77161000        +1.42404000        +0.12810000
H        +2.73835000        +2.77989000        -1.12464000
H        +2.70778000        -2.81319000        +1.09555000
H        -3.90354000        +1.20325000        +0.11710000
H        +3.38998000        +1.50093000        -0.07544000
H        +3.33184000        +1.25269000        -1.85067000
H        +3.31095000        -1.32281000        +1.88650000
H        +3.39889000        -1.50934000        +0.10459000
H        -3.87892000        -1.24211000        -0.08988000
H        -1.78886000        +2.45164000        +0.22176000
H        -1.73878000        -2.44393000        -0.21875000
--
0  1
C        -0.51416000        -1.06734000        +4.31625000
C        -0.52681000        +0.33514000        +4.43807000
C        +0.77997000        -1.82140000        +4.28940000
C        +0.75871000        +1.10072000        +4.44912000
O        +1.56673000        -1.47540000        +5.33127000
O        +1.07730000        -2.66769000        +3.48226000
O        +1.56812000        +0.69937000        +3.44437000
O        +1.04063000        +1.98733000        +5.21792000
C        +2.86477000        +1.31757000        +3.38956000
C        +2.85344000        -2.11572000        +5.38789000
C        -1.71292000        -1.79980000        +4.25762000
C        -2.90924000        -1.08420000        +4.33029000
C        -2.92285000        +0.29891000        +4.45248000
C        -1.74133000        +1.04040000        +4.51124000
H        +2.76863000        +2.39625000        +3.25850000
H        +2.73806000        -3.19683000        +5.47869000
H        -3.87326000        +0.81961000        +4.50024000
H        +3.42026000        +1.11729000        +4.30770000
H        +3.36212000        +0.86905000        +2.53247000
H        +3.34123000        -1.70645000        +6.26964000
H        +3.42917000        -1.89298000        +4.48773000
H        -3.84864000        -1.62575000        +4.29326000
H        -1.75858000        +2.06800000        +4.60490000
H        -1.70850000        -2.82757000        +4.16439000
$end

$rem
JOBTYPE                   SP
METHOD                    B3LYP
DFT_D                     d3_op
BASIS                     6-311++G(d,p)
SYMMETRY                  False
THRESH                    12
SCF_CONVERGENCE           8
MAX_SUB_FILE_NUM          128
MEM_STATIC                400
MEM_TOTAL                 4000
$end
--------------------------------------------------------------

             Standard Nuclear Orientation (Angstroms)
    I     Atom           X                Y                Z
 ----------------------------------------------------------------
    1      C      -2.1481726747     0.7959278714     0.8853170542
    2      C      -2.2701584580     0.8156178834    -0.5170673643
    3      C      -2.0227739002    -0.5010901191     1.6243159329
    4      C      -2.3695242373    -0.4668322146    -1.2814263750
    5      O      -1.0430000356    -1.2680151160     1.0988926578
    6      O      -2.6668140167    -0.8156493417     2.5950639416
    7      O      -3.2762329194    -1.2953491642    -0.7182319476
    8      O      -1.7604090911    -0.7319687594    -2.2890428546
    9      C      -3.4148708416    -2.5906097250    -1.3261432938
   10      C      -0.8551239287    -2.5557363208     1.7115220876
   11      C      -2.0999111280     1.9909024153     1.6246866024
   12      C      -2.1719005152     3.1908063526     0.9150430999
   13      C      -2.2901992255     3.2113953975    -0.4683188942
   14      C      -2.3401805217     2.0336917511    -1.2164937797
   15      H      -3.7315105596    -2.4930606547    -2.3654669361
   16      H      -0.5812902463    -2.4425234588     2.7615477914
   17      H      -2.3489721223     4.1643092458    -0.9832845435
   18      H      -2.4666996010    -3.1304002100    -1.2906495057
   19      H      -4.1732921366    -3.1046595683    -0.7399007000
   20      H      -0.0490069456    -3.0263637546     1.1533023212
   21      H      -1.7703478806    -3.1465831566     1.6434684292
   22      H      -2.1308917586     4.1275110638     1.4609575155
   23      H      -2.4253588906     2.0561768547    -2.2447304177
   24      H      -2.0144967010     1.9812522556     2.6530998425
   25      C       2.2353647357     0.8421584731     0.5078580622
   26      C       2.1133789524     0.8618484851    -0.8945263564
   27      C       2.3607635103    -0.4548595175     1.2468569408
   28      C       2.0140131731    -0.4206016130    -1.6588853671
   29      O       3.3405373748    -1.2217845144     0.7214336658
   30      O       1.7167233937    -0.7694187401     2.2176049495
   31      O       1.1073044910    -1.2491185626    -1.0956909397
   32      O       2.6231283193    -0.6857381578    -2.6665018466
   33      C       0.9686665688    -2.5443791234    -1.7036022859
   34      C       3.5284134817    -2.5095057191     1.3340630955
   35      C       2.2836262824     2.0371330169     1.2472276104
   36      C       2.2116368952     3.2370369542     0.5375841079
   37      C       2.0933381849     3.2576259991    -0.8457778862
   38      C       2.0433568887     2.0799223527    -1.5939527717
   39      H       0.6520268508    -2.4468300531    -2.7429259282
   40      H       3.8022471641    -2.3962928572     2.3840887994
   41      H       2.0345652881     4.2105398474    -1.3607435356
   42      H       1.9168378094    -3.0841696084    -1.6681084977
   43      H       0.2102452738    -3.0584289667    -1.1173596921
   44      H       4.3345304648    -2.9801331530     0.7758433291
   45      H       2.6131895298    -3.1003525550     1.2660094371
   46      H       2.2526456518     4.1737416655     1.0834985235
   47      H       1.9581785198     2.1024074564    -2.6221894097
   48      H       2.3690407094     2.0274828573     2.2756408504
 ----------------------------------------------------------------

   15   -1376.4296074223      7.19E-09 Convergence criterion met
 Total energy in the final basis set = -1376.42960742

                    Orbital Energies (a.u.)
 --------------------------------------------------------------

 Alpha MOs
 -- Occupied --
-19.178 -19.177 -19.169 -19.167 -19.121 -19.121 -19.114 -19.113
-10.313 -10.313 -10.307 -10.306 -10.235 -10.234 -10.226 -10.224
-10.211 -10.211 -10.210 -10.210 -10.195 -10.195 -10.195 -10.194
-10.194 -10.194 -10.194 -10.193  -1.121  -1.120  -1.110  -1.109
 -1.032  -1.032  -1.024  -1.023  -0.884  -0.883  -0.796  -0.796
 -0.783  -0.783  -0.741  -0.740  -0.729  -0.727  -0.653  -0.652
 -0.642  -0.642  -0.593  -0.592  -0.575  -0.574  -0.552  -0.549
 -0.521  -0.519  -0.514  -0.510  -0.492  -0.491  -0.487  -0.486
 -0.484  -0.478  -0.477  -0.470  -0.468  -0.468  -0.465  -0.462
 -0.440  -0.436  -0.430  -0.423  -0.413  -0.413  -0.404  -0.402
 -0.386  -0.386  -0.385  -0.382  -0.381  -0.377  -0.366  -0.366
 -0.363  -0.355  -0.322  -0.320  -0.309  -0.307  -0.299  -0.297
 -0.293  -0.290  -0.274  -0.271  -0.268  -0.265

          Ground-State Mulliken Net Atomic Charges

     Atom                 Charge (a.u.)
  ----------------------------------------
      1 C                     0.775292
      2 C                     0.655702
      3 C                    -0.619685
      4 C                    -0.750536
      5 O                     0.117303
      6 O                    -0.161039
      7 O                     0.117010
      8 O                    -0.126301
      9 C                    -0.155074
     10 C                    -0.381635
     11 C                    -0.188321
     12 C                    -0.318180
     13 C                    -0.281163
     14 C                    -0.463214
     15 H                     0.170141
     16 H                     0.231058
     17 H                     0.180125
     18 H                     0.182743
     19 H                     0.172380
     20 H                     0.072874
     21 H                     0.190009
     22 H                     0.177396
     23 H                     0.198536
     24 H                     0.209372
     25 C                     0.620364
     26 C                     0.834728
     27 C                    -0.817620
     28 C                    -0.596181
     29 O                     0.124877
     30 O                    -0.116020
     31 O                     0.096109
     32 O                    -0.162081
     33 C                    -0.387649
     34 C                    -0.143110
     35 C                    -0.452804
     36 C                    -0.279178
     37 C                    -0.319233
     38 C                    -0.190822
     39 H                     0.232729
     40 H                     0.168859
     41 H                     0.177499
     42 H                     0.194811
     43 H                     0.069366
     44 H                     0.172965
     45 H                     0.181004
     46 H                     0.180198
     47 H                     0.209609
     48 H                     0.196791
  ----------------------------------------
  Sum of atomic charges =    -0.000000

                    Cartesian Multipole Moments
 -----------------------------------------------------------------
    Charge (ESU x 10^10)
                -0.0000
    Dipole Moment (Debye)
         X       0.1990      Y       0.2435      Z       0.1992
       Tot       0.3723
    Quadrupole Moments (Debye-Ang)
        XX    -168.9119     XY      -1.0379     YY    -125.8579
        XZ      18.6949     YZ       0.6351     ZZ    -175.2609

 Total job time:  1363.64s(wall), 2715.59s(cpu)
        *  Thank you very much for using Q-Chem.  Have a nice day.  *
