 Q-Chem 5.0, Q-Chem, Inc., Pleasanton, CA (2017)
 Q-Chem 5.0.1 for Intel X86 EM64T Linux

User input:
--------------------------------------------------------------
$molecule
0  1
C        -0.51416000        -1.06734000        +4.31625000
C        -0.52681000        +0.33514000        +4.43807000
C        +0.77997000        -1.82140000        +4.28940000
C        +0.75871000        +1.10072000        +4.44912000
O        +1.56673000        -1.47540000        +5.33127000
O        +1.07730000        -2.66769000        +3.48226000
O        +1.56812000        +0.69937000        +3.44437000
O        +1.04063000        +1.98733000        +5.21792000
C        +2.86477000        +1.31757000        +3.38956000
C        +2.85344000        -2.11572000        +5.38789000
C        -1.71292000        -1.79980000        +4.25762000
C        -2.90924000        -1.08420000        +4.33029000
C        -2.92285000        +0.29891000        +4.45248000
C        -1.74133000        +1.04040000        +4.51124000
H        +2.76863000        +2.39625000        +3.25850000
H        +2.73806000        -3.19683000        +5.47869000
H        -3.87326000        +0.81961000        +4.50024000
H        +3.42026000        +1.11729000        +4.30770000
H        +3.36212000        +0.86905000        +2.53247000
H        +3.34123000        -1.70645000        +6.26964000
H        +3.42917000        -1.89298000        +4.48773000
H        -3.84864000        -1.62575000        +4.29326000
H        -1.75858000        +2.06800000        +4.60490000
H        -1.70850000        -2.82757000        +4.16439000
@C        -0.54444000        -0.68370000        -0.06689000
@C        -0.55709000        +0.71878000        +0.05493000
@C        +0.74969000        -1.43776000        -0.09374000
@C        +0.72843000        +1.48436000        +0.06598000
@O        +1.53645000        -1.09176000        +0.94813000
@O        +1.04702000        -2.28405000        -0.90088000
@O        +1.53784000        +1.08301000        -0.93877000
@O        +1.01035000        +2.37097000        +0.83478000
@C        +2.83449000        +1.70121000        -0.99358000
@C        +2.82316000        -1.73208000        +1.00475000
@C        -1.74320000        -1.41616000        -0.12552000
@C        -2.93952000        -0.70056000        -0.05285000
@C        -2.95313000        +0.68255000        +0.06934000
@C        -1.77161000        +1.42404000        +0.12810000
@H        +2.73835000        +2.77989000        -1.12464000
@H        +2.70778000        -2.81319000        +1.09555000
@H        -3.90354000        +1.20325000        +0.11710000
@H        +3.38998000        +1.50093000        -0.07544000
@H        +3.33184000        +1.25269000        -1.85067000
@H        +3.31095000        -1.32281000        +1.88650000
@H        +3.39889000        -1.50934000        +0.10459000
@H        -3.87892000        -1.24211000        -0.08988000
@H        -1.78886000        +2.45164000        +0.22176000
@H        -1.73878000        -2.44393000        -0.21875000
$end

$rem
JOBTYPE                   SP
METHOD                    B3LYP
DFT_D                     d3_op
BASIS                     6-311++G(d,p)
SYMMETRY                  False
THRESH                    12
SCF_CONVERGENCE           8
MAX_SUB_FILE_NUM          128
MEM_STATIC                400
MEM_TOTAL                 4000
$end
--------------------------------------------------------------

             Standard Nuclear Orientation (Angstroms)
    I     Atom           X                Y                Z
 ----------------------------------------------------------------
    1      C      -0.5141600000    -1.0673400000     4.3162500000
    2      C      -0.5268100000     0.3351400000     4.4380700000
    3      C       0.7799700000    -1.8214000000     4.2894000000
    4      C       0.7587100000     1.1007200000     4.4491200000
    5      O       1.5667300000    -1.4754000000     5.3312700000
    6      O       1.0773000000    -2.6676900000     3.4822600000
    7      O       1.5681200000     0.6993700000     3.4443700000
    8      O       1.0406300000     1.9873300000     5.2179200000
    9      C       2.8647700000     1.3175700000     3.3895600000
   10      C       2.8534400000    -2.1157200000     5.3878900000
   11      C      -1.7129200000    -1.7998000000     4.2576200000
   12      C      -2.9092400000    -1.0842000000     4.3302900000
   13      C      -2.9228500000     0.2989100000     4.4524800000
   14      C      -1.7413300000     1.0404000000     4.5112400000
   15      H       2.7686300000     2.3962500000     3.2585000000
   16      H       2.7380600000    -3.1968300000     5.4786900000
   17      H      -3.8732600000     0.8196100000     4.5002400000
   18      H       3.4202600000     1.1172900000     4.3077000000
   19      H       3.3621200000     0.8690500000     2.5324700000
   20      H       3.3412300000    -1.7064500000     6.2696400000
   21      H       3.4291700000    -1.8929800000     4.4877300000
   22      H      -3.8486400000    -1.6257500000     4.2932600000
   23      H      -1.7585800000     2.0680000000     4.6049000000
   24      H      -1.7085000000    -2.8275700000     4.1643900000
   25      GH     -0.5444400000    -0.6837000000    -0.0668900000
   26      GH     -0.5570900000     0.7187800000     0.0549300000
   27      GH      0.7496900000    -1.4377600000    -0.0937400000
   28      GH      0.7284300000     1.4843600000     0.0659800000
   29      GH      1.5364500000    -1.0917600000     0.9481300000
   30      GH      1.0470200000    -2.2840500000    -0.9008800000
   31      GH      1.5378400000     1.0830100000    -0.9387700000
   32      GH      1.0103500000     2.3709700000     0.8347800000
   33      GH      2.8344900000     1.7012100000    -0.9935800000
   34      GH      2.8231600000    -1.7320800000     1.0047500000
   35      GH     -1.7432000000    -1.4161600000    -0.1255200000
   36      GH     -2.9395200000    -0.7005600000    -0.0528500000
   37      GH     -2.9531300000     0.6825500000     0.0693400000
   38      GH     -1.7716100000     1.4240400000     0.1281000000
   39      GH      2.7383500000     2.7798900000    -1.1246400000
   40      GH      2.7077800000    -2.8131900000     1.0955500000
   41      GH     -3.9035400000     1.2032500000     0.1171000000
   42      GH      3.3899800000     1.5009300000    -0.0754400000
   43      GH      3.3318400000     1.2526900000    -1.8506700000
   44      GH      3.3109500000    -1.3228100000     1.8865000000
   45      GH      3.3988900000    -1.5093400000     0.1045900000
   46      GH     -3.8789200000    -1.2421100000    -0.0898800000
   47      GH     -1.7888600000     2.4516400000     0.2217600000
   48      GH     -1.7387800000    -2.4439300000    -0.2187500000
 ----------------------------------------------------------------

   14    -688.2118355803      5.73E-09 Convergence criterion met
 Total energy in the final basis set = -688.21183558

                    Orbital Energies (a.u.)
 --------------------------------------------------------------

 Alpha MOs
 -- Occupied --
-19.179 -19.178 -19.122 -19.122 -10.314 -10.314 -10.233 -10.233
-10.215 -10.214 -10.198 -10.198 -10.197 -10.197  -1.123  -1.116
 -1.033  -1.032  -0.887  -0.800  -0.787  -0.744  -0.733  -0.656
 -0.646  -0.596  -0.579  -0.555  -0.524  -0.516  -0.493  -0.492
 -0.485  -0.479  -0.472  -0.468  -0.440  -0.431  -0.416  -0.408
 -0.389  -0.387  -0.384  -0.369  -0.366  -0.324  -0.315  -0.301
 -0.297  -0.275  -0.272

          Ground-State Mulliken Net Atomic Charges

     Atom                 Charge (a.u.)
  ----------------------------------------
      1 C                     0.698001
      2 C                     0.922571
      3 C                    -0.871236
      4 C                    -0.615412
      5 O                     0.117490
      6 O                    -0.103405
      7 O                     0.077361
      8 O                    -0.156908
      9 C                    -0.407904
     10 C                    -0.144459
     11 C                    -0.475212
     12 C                    -0.294791
     13 C                    -0.314535
     14 C                    -0.225245
     15 H                     0.212347
     16 H                     0.168267
     17 H                     0.182340
     18 H                     0.200217
     19 H                     0.116192
     20 H                     0.172091
     21 H                     0.185464
     22 H                     0.184350
     23 H                     0.208127
     24 H                     0.201028
     25 GH                   -0.089703
     26 GH                   -0.052574
     27 GH                    0.003658
     28 GH                    0.070913
     29 GH                    0.008718
     30 GH                    0.001439
     31 GH                   -0.000076
     32 GH                   -0.004057
     33 GH                   -0.015869
     34 GH                   -0.008722
     35 GH                    0.024086
     36 GH                   -0.005529
     37 GH                    0.011540
     38 GH                    0.017405
     39 GH                    0.001294
     40 GH                    0.005701
     41 GH                    0.000786
     42 GH                    0.002720
     43 GH                   -0.001248
     44 GH                   -0.010292
     45 GH                    0.001299
     46 GH                   -0.000042
     47 GH                    0.000350
     48 GH                    0.001464
  ----------------------------------------
  Sum of atomic charges =     0.000000

                    Cartesian Multipole Moments
 -----------------------------------------------------------------
    Charge (ESU x 10^10)
                 0.0000
    Dipole Moment (Debye)
         X      -0.0474      Y      -0.1172      Z       0.0550
       Tot       0.1379
    Quadrupole Moments (Debye-Ang)
        XX     -61.3984     XY      -0.0514     YY     -84.2597
        XZ      -0.0843     YZ     -10.2333     ZZ     -86.5235

 Total job time:  1306.45s(wall), 2592.46s(cpu)
        *  Thank you very much for using Q-Chem.  Have a nice day.  *
