 Q-Chem 5.0, Q-Chem, Inc., Pleasanton, CA (2017)
 Q-Chem 5.0.1 for Intel X86 EM64T Linux

User input:
--------------------------------------------------------------
$molecule
0  1
C        +0.24565000        +2.34504000        +4.78941000
C        +0.64921000        +0.88663000        +5.20217000
C        -1.15905000        +2.53239000        +4.24723000
C        -0.35162000        -0.21627000        +4.92679000
O        -2.06877000        +2.08848000        +5.14312000
O        -1.45041000        +3.05955000        +3.20464000
O        -0.89069000        -0.12776000        +3.69726000
O        -0.59913000        -1.10861000        +5.70257000
C        -1.83839000        -1.14725000        +3.33786000
C        -3.44773000        +2.17508000        +4.74266000
C        +1.35303000        +2.69990000        +3.76855000
C        +2.65365000        +3.01716000        +4.53201000
C        +3.06631000        +1.59367000        +5.00646000
C        +1.96718000        +0.70717000        +4.35608000
O        +1.65135000        +1.43679000        +3.15970000
H        +0.30106000        +2.98802000        +5.67246000
H        +0.86218000        +0.81974000        +6.26754000
H        -2.66454000        -1.16661000        +4.05050000
H        -3.73781000        +3.21538000        +4.58752000
H        +3.39529000        +3.43798000        +3.85151000
H        +2.50531000        +3.72504000        +5.34997000
H        +4.04477000        +1.31010000        +4.61507000
H        +3.09654000        +1.48754000        +6.09274000
H        -2.18853000        -0.87749000        +2.34409000
H        -1.35767000        -2.12681000        +3.32250000
H        -4.01560000        +1.73639000        +5.56017000
H        -3.60825000        +1.61716000        +3.81851000
C        +2.37745000        -0.71251000        +4.03534000
H        +3.28606000        -0.70662000        +3.42980000
H        +2.57285000        -1.27043000        +4.95425000
H        +1.59630000        -1.22880000        +3.47474000
H        +1.05565000        +3.49959000        +3.12282000
@C        +0.22270000        +1.04488000        +0.58595000
@C        +0.62626000        -0.41353000        +0.99871000
@C        -1.18200000        +1.23223000        +0.04377000
@C        -0.37457000        -1.51643000        +0.72333000
@O        -2.09172000        +0.78832000        +0.93966000
@O        -1.47336000        +1.75939000        -0.99882000
@O        -0.91364000        -1.42792000        -0.50620000
@O        -0.62208000        -2.40877000        +1.49911000
@C        -1.86134000        -2.44741000        -0.86560000
@C        -3.47068000        +0.87492000        +0.53920000
@C        +1.33008000        +1.39974000        -0.43491000
@C        +2.63070000        +1.71700000        +0.32855000
@C        +3.04336000        +0.29351000        +0.80300000
@C        +1.94423000        -0.59299000        +0.15262000
@O        +1.62840000        +0.13663000        -1.04376000
@H        +0.27811000        +1.68786000        +1.46900000
@H        +0.83923000        -0.48042000        +2.06408000
@H        -2.68749000        -2.46677000        -0.15296000
@H        -3.76076000        +1.91522000        +0.38406000
@H        +3.37234000        +2.13782000        -0.35195000
@H        +2.48236000        +2.42488000        +1.14651000
@H        +4.02182000        +0.00994000        +0.41161000
@H        +3.07359000        +0.18738000        +1.88928000
@H        -2.21148000        -2.17765000        -1.85937000
@H        -1.38062000        -3.42697000        -0.88096000
@H        -4.03855000        +0.43623000        +1.35671000
@H        -3.63120000        +0.31700000        -0.38495000
@C        +2.35450000        -2.01267000        -0.16812000
@H        +3.26311000        -2.00678000        -0.77366000
@H        +2.54990000        -2.57059000        +0.75079000
@H        +1.57335000        -2.52896000        -0.72872000
@H        +1.03270000        +2.19943000        -1.08064000
$end

$rem
JOBTYPE                   SP
METHOD                    B3LYP
DFT_D                     d3_op
BASIS                     6-311++G(d,p)
SYMMETRY                  False
THRESH                    12
SCF_CONVERGENCE           8
MAX_SUB_FILE_NUM          128
MEM_STATIC                400
MEM_TOTAL                 4000
$end
--------------------------------------------------------------

             Standard Nuclear Orientation (Angstroms)
    I     Atom           X                Y                Z
 ----------------------------------------------------------------
    1      C       0.2456500000     2.3450400000     4.7894100000
    2      C       0.6492100000     0.8866300000     5.2021700000
    3      C      -1.1590500000     2.5323900000     4.2472300000
    4      C      -0.3516200000    -0.2162700000     4.9267900000
    5      O      -2.0687700000     2.0884800000     5.1431200000
    6      O      -1.4504100000     3.0595500000     3.2046400000
    7      O      -0.8906900000    -0.1277600000     3.6972600000
    8      O      -0.5991300000    -1.1086100000     5.7025700000
    9      C      -1.8383900000    -1.1472500000     3.3378600000
   10      C      -3.4477300000     2.1750800000     4.7426600000
   11      C       1.3530300000     2.6999000000     3.7685500000
   12      C       2.6536500000     3.0171600000     4.5320100000
   13      C       3.0663100000     1.5936700000     5.0064600000
   14      C       1.9671800000     0.7071700000     4.3560800000
   15      O       1.6513500000     1.4367900000     3.1597000000
   16      H       0.3010600000     2.9880200000     5.6724600000
   17      H       0.8621800000     0.8197400000     6.2675400000
   18      H      -2.6645400000    -1.1666100000     4.0505000000
   19      H      -3.7378100000     3.2153800000     4.5875200000
   20      H       3.3952900000     3.4379800000     3.8515100000
   21      H       2.5053100000     3.7250400000     5.3499700000
   22      H       4.0447700000     1.3101000000     4.6150700000
   23      H       3.0965400000     1.4875400000     6.0927400000
   24      H      -2.1885300000    -0.8774900000     2.3440900000
   25      H      -1.3576700000    -2.1268100000     3.3225000000
   26      H      -4.0156000000     1.7363900000     5.5601700000
   27      H      -3.6082500000     1.6171600000     3.8185100000
   28      C       2.3774500000    -0.7125100000     4.0353400000
   29      H       3.2860600000    -0.7066200000     3.4298000000
   30      H       2.5728500000    -1.2704300000     4.9542500000
   31      H       1.5963000000    -1.2288000000     3.4747400000
   32      H       1.0556500000     3.4995900000     3.1228200000
   33      GH      0.2227000000     1.0448800000     0.5859500000
   34      GH      0.6262600000    -0.4135300000     0.9987100000
   35      GH     -1.1820000000     1.2322300000     0.0437700000
   36      GH     -0.3745700000    -1.5164300000     0.7233300000
   37      GH     -2.0917200000     0.7883200000     0.9396600000
   38      GH     -1.4733600000     1.7593900000    -0.9988200000
   39      GH     -0.9136400000    -1.4279200000    -0.5062000000
   40      GH     -0.6220800000    -2.4087700000     1.4991100000
   41      GH     -1.8613400000    -2.4474100000    -0.8656000000
   42      GH     -3.4706800000     0.8749200000     0.5392000000
   43      GH      1.3300800000     1.3997400000    -0.4349100000
   44      GH      2.6307000000     1.7170000000     0.3285500000
   45      GH      3.0433600000     0.2935100000     0.8030000000
   46      GH      1.9442300000    -0.5929900000     0.1526200000
   47      GH      1.6284000000     0.1366300000    -1.0437600000
   48      GH      0.2781100000     1.6878600000     1.4690000000
   49      GH      0.8392300000    -0.4804200000     2.0640800000
   50      GH     -2.6874900000    -2.4667700000    -0.1529600000
   51      GH     -3.7607600000     1.9152200000     0.3840600000
   52      GH      3.3723400000     2.1378200000    -0.3519500000
   53      GH      2.4823600000     2.4248800000     1.1465100000
   54      GH      4.0218200000     0.0099400000     0.4116100000
   55      GH      3.0735900000     0.1873800000     1.8892800000
   56      GH     -2.2114800000    -2.1776500000    -1.8593700000
   57      GH     -1.3806200000    -3.4269700000    -0.8809600000
   58      GH     -4.0385500000     0.4362300000     1.3567100000
   59      GH     -3.6312000000     0.3170000000    -0.3849500000
   60      GH      2.3545000000    -2.0126700000    -0.1681200000
   61      GH      3.2631100000    -2.0067800000    -0.7736600000
   62      GH      2.5499000000    -2.5705900000     0.7507900000
   63      GH      1.5733500000    -2.5289600000    -0.7287200000
   64      GH      1.0327000000     2.1994300000    -1.0806400000
 ----------------------------------------------------------------

   14    -805.1982685888      6.72E-09 Convergence criterion met
 Total energy in the final basis set = -805.19826859

                    Orbital Energies (a.u.)
 --------------------------------------------------------------

 Alpha MOs
 -- Occupied --
-19.175 -19.174 -19.131 -19.119 -19.116 -10.309 -10.306 -10.246
-10.232 -10.230 -10.228 -10.205 -10.204 -10.179 -10.178 -10.171
 -1.120  -1.113  -1.063  -1.030  -1.027  -0.832  -0.796  -0.784
 -0.746  -0.729  -0.697  -0.655  -0.606  -0.590  -0.569  -0.562
 -0.534  -0.518  -0.510  -0.492  -0.490  -0.483  -0.476  -0.472
 -0.461  -0.443  -0.434  -0.425  -0.416  -0.405  -0.397  -0.389
 -0.381  -0.374  -0.369  -0.361  -0.355  -0.351  -0.333  -0.332
 -0.320  -0.313  -0.289  -0.281  -0.274

          Ground-State Mulliken Net Atomic Charges

     Atom                 Charge (a.u.)
  ----------------------------------------
      1 C                    -0.065599
      2 C                     0.206535
      3 C                    -0.695868
      4 C                    -0.728376
      5 O                     0.066851
      6 O                    -0.075235
      7 O                    -0.014335
      8 O                    -0.086165
      9 C                    -0.364998
     10 C                    -0.160295
     11 C                     0.087063
     12 C                    -0.775634
     13 C                    -0.190202
     14 C                    -0.226784
     15 O                     0.283418
     16 H                     0.243658
     17 H                     0.284726
     18 H                     0.241955
     19 H                     0.168616
     20 H                     0.171694
     21 H                     0.139182
     22 H                     0.171674
     23 H                     0.145711
     24 H                     0.103612
     25 H                     0.222183
     26 H                     0.170241
     27 H                     0.191579
     28 C                    -0.329669
     29 H                     0.206400
     30 H                     0.203180
     31 H                     0.222199
     32 H                     0.285749
     33 GH                    0.036680
     34 GH                    0.184568
     35 GH                    0.024328
     36 GH                    0.054709
     37 GH                   -0.033781
     38 GH                    0.000283
     39 GH                   -0.005703
     40 GH                   -0.033090
     41 GH                    0.005237
     42 GH                    0.007966
     43 GH                   -0.031585
     44 GH                   -0.031813
     45 GH                   -0.026662
     46 GH                   -0.039442
     47 GH                   -0.004867
     48 GH                   -0.034886
     49 GH                   -0.129537
     50 GH                    0.001799
     51 GH                    0.004041
     52 GH                   -0.002873
     53 GH                   -0.027657
     54 GH                   -0.007142
     55 GH                   -0.034259
     56 GH                    0.000225
     57 GH                   -0.000354
     58 GH                    0.001531
     59 GH                   -0.000407
     60 GH                    0.021866
     61 GH                    0.000321
     62 GH                   -0.003520
     63 GH                    0.000506
     64 GH                    0.000457
  ----------------------------------------
  Sum of atomic charges =     0.000000

                    Cartesian Multipole Moments
 -----------------------------------------------------------------
    Charge (ESU x 10^10)
                 0.0000
    Dipole Moment (Debye)
         X       0.0530      Y       0.4928      Z       1.0919
       Tot       1.1991
    Quadrupole Moments (Debye-Ang)
        XX     -81.7773     XY       2.6287     YY     -95.0168
        XZ       3.2975     YZ      14.3389     ZZ     -93.0017

 Total job time:  8510.90s(wall), 8490.93s(cpu)
        *  Thank you very much for using Q-Chem.  Have a nice day.  *
