 Q-Chem 5.0, Q-Chem, Inc., Pleasanton, CA (2017)
 Q-Chem 5.0.1 for Intel X86 EM64T Linux

User input:
--------------------------------------------------------------
$molecule
0  1
--
0  1
C        +0.22270000        +1.04488000        +0.58595000
C        +0.62626000        -0.41353000        +0.99871000
C        -1.18200000        +1.23223000        +0.04377000
C        -0.37457000        -1.51643000        +0.72333000
O        -2.09172000        +0.78832000        +0.93966000
O        -1.47336000        +1.75939000        -0.99882000
O        -0.91364000        -1.42792000        -0.50620000
O        -0.62208000        -2.40877000        +1.49911000
C        -1.86134000        -2.44741000        -0.86560000
C        -3.47068000        +0.87492000        +0.53920000
C        +1.33008000        +1.39974000        -0.43491000
C        +2.63070000        +1.71700000        +0.32855000
C        +3.04336000        +0.29351000        +0.80300000
C        +1.94423000        -0.59299000        +0.15262000
O        +1.62840000        +0.13663000        -1.04376000
H        +0.27811000        +1.68786000        +1.46900000
H        +0.83923000        -0.48042000        +2.06408000
H        -2.68749000        -2.46677000        -0.15296000
H        -3.76076000        +1.91522000        +0.38406000
H        +3.37234000        +2.13782000        -0.35195000
H        +2.48236000        +2.42488000        +1.14651000
H        +4.02182000        +0.00994000        +0.41161000
H        +3.07359000        +0.18738000        +1.88928000
H        -2.21148000        -2.17765000        -1.85937000
H        -1.38062000        -3.42697000        -0.88096000
H        -4.03855000        +0.43623000        +1.35671000
H        -3.63120000        +0.31700000        -0.38495000
C        +2.35450000        -2.01267000        -0.16812000
H        +3.26311000        -2.00678000        -0.77366000
H        +2.54990000        -2.57059000        +0.75079000
H        +1.57335000        -2.52896000        -0.72872000
H        +1.03270000        +2.19943000        -1.08064000
--
0  1
C        +0.24565000        +2.34504000        +4.78941000
C        +0.64921000        +0.88663000        +5.20217000
C        -1.15905000        +2.53239000        +4.24723000
C        -0.35162000        -0.21627000        +4.92679000
O        -2.06877000        +2.08848000        +5.14312000
O        -1.45041000        +3.05955000        +3.20464000
O        -0.89069000        -0.12776000        +3.69726000
O        -0.59913000        -1.10861000        +5.70257000
C        -1.83839000        -1.14725000        +3.33786000
C        -3.44773000        +2.17508000        +4.74266000
C        +1.35303000        +2.69990000        +3.76855000
C        +2.65365000        +3.01716000        +4.53201000
C        +3.06631000        +1.59367000        +5.00646000
C        +1.96718000        +0.70717000        +4.35608000
O        +1.65135000        +1.43679000        +3.15970000
H        +0.30106000        +2.98802000        +5.67246000
H        +0.86218000        +0.81974000        +6.26754000
H        -2.66454000        -1.16661000        +4.05050000
H        -3.73781000        +3.21538000        +4.58752000
H        +3.39529000        +3.43798000        +3.85151000
H        +2.50531000        +3.72504000        +5.34997000
H        +4.04477000        +1.31010000        +4.61507000
H        +3.09654000        +1.48754000        +6.09274000
H        -2.18853000        -0.87749000        +2.34409000
H        -1.35767000        -2.12681000        +3.32250000
H        -4.01560000        +1.73639000        +5.56017000
H        -3.60825000        +1.61716000        +3.81851000
C        +2.37745000        -0.71251000        +4.03534000
H        +3.28606000        -0.70662000        +3.42980000
H        +2.57285000        -1.27043000        +4.95425000
H        +1.59630000        -1.22880000        +3.47474000
H        +1.05565000        +3.49959000        +3.12282000
$end

$rem
JOBTYPE                   SP
METHOD                    B3LYP
DFT_D                     d3_op
BASIS                     6-311++G(d,p)
SYMMETRY                  False
THRESH                    12
SCF_CONVERGENCE           8
MAX_SUB_FILE_NUM          128
MEM_STATIC                400
MEM_TOTAL                 4000
$end
--------------------------------------------------------------

             Standard Nuclear Orientation (Angstroms)
    I     Atom           X                Y                Z
 ----------------------------------------------------------------
    1      C      -1.3042967162     0.2279663064     1.1522014131
    2      C      -1.5022700245     0.5958905308    -0.3596284562
    3      C      -1.7806419499    -1.1464601698     1.5838127486
    4      C      -2.2416837044    -0.4014260600    -1.2271019549
    5      O      -1.1795408090    -2.1035160265     0.8422016888
    6      O      -2.5308540968    -1.3809296074     2.4959465331
    7      O      -3.3505529444    -0.8785992761    -0.6330571448
    8      O      -1.9051304285    -0.6957868994    -2.3493541871
    9      C      -4.1307108548    -1.8178798302    -1.3918517057
   10      C      -1.5662697973    -3.4602150969     1.1236386718
   11      C      -2.0475803313     1.3876559013     1.8571983880
   12      C      -1.1687963760     2.6524264348     1.8003501598
   13      C      -1.2959048235     3.0267692171     0.2952170154
   14      C      -2.2940285466     1.9518802751    -0.2198809820
   15      O      -3.1035875581     1.7025817033     0.9402411954
   16      H      -0.2349301387     0.2465476295     1.3810697342
   17      H      -0.5478223746     0.7556470898    -0.8579769842
   18      H      -3.5214107928    -2.6781493256    -1.6737102365
   19      H      -1.2979468707    -3.7317058327     2.1457612199
   20      H      -1.5894080245     3.4308115271     2.4386307417
   21      H      -0.1408505887     2.4713689652     2.1208233454
   22      H      -1.7284656345     4.0203071428     0.1657736545
   23      H      -0.3457124751     3.0025891768    -0.2421203971
   24      H      -4.9431007068    -2.1160766457    -0.7330279981
   25      H      -4.5223452996    -1.3470046737    -2.2950485227
   26      H      -1.0207112860    -4.0719520395     0.4085221241
   27      H      -2.6429593143    -3.5808902903     0.9922164481
   28      C      -3.1458591003     2.3628842607    -1.3997739240
   29      H      -3.6594596199     3.3001187784    -1.1759626621
   30      H      -2.5249708165     2.5072677108    -2.2871873749
   31      H      -3.8989417658     1.6049488726    -1.6220878753
   32      H      -2.3251220808     1.1304860593     2.8580682312
   33      C       3.0624202974     0.0579455865     0.6394693414
   34      C       2.8644469891     0.4258698109    -0.8723605279
   35      C       2.5860750637    -1.3164808896     1.0710806769
   36      C       2.1250333092    -0.5714467799    -1.7398340266
   37      O       3.1871762046    -2.2735367464     0.3294696171
   38      O       1.8358629169    -1.5509503273     1.9832144614
   39      O       1.0161640692    -1.0486199959    -1.1457892165
   40      O       2.4615865852    -0.8658076193    -2.8620862589
   41      C       0.2360061589    -1.9879005500    -1.9045837774
   42      C       2.8004472163    -3.6302358167     0.6109066001
   43      C       2.3191366824     1.2176351814     1.3444663163
   44      C       3.1979206377     2.4824057149     1.2876180880
   45      C       3.0708121902     2.8567484973    -0.2175150563
   46      C       2.0726884671     1.7818595552    -0.7326130538
   47      O       1.2631294555     1.5325609835     0.4275091237
   48      H       4.1317868749     0.0765269096     0.8683376625
   49      H       3.8188946390     0.5856263700    -1.3707090559
   50      H       0.8453062208    -2.8481700455    -2.1864423083
   51      H       3.0687701430    -3.9017265526     1.6330291482
   52      H       2.7773089891     3.2607908072     1.9258986699
   53      H       4.2258664250     2.3013482454     1.6080912736
   54      H       2.6382513791     3.8502864229    -0.3469584172
   55      H       4.0210045385     2.8325684569    -0.7548524688
   56      H      -0.5763836931    -2.2860973656    -1.2457600698
   57      H      -0.1556282860    -1.5170253936    -2.8077805944
   58      H       3.3460057277    -4.2419727594    -0.1042099476
   59      H       1.7237576993    -3.7509110101     0.4794843764
   60      C       1.2208579133     2.1928635409    -1.9125059957
   61      H       0.7072573937     3.1300980585    -1.6886947339
   62      H       1.8417461971     2.3372469909    -2.7999194466
   63      H       0.4677752478     1.4349281527    -2.1348199471
   64      H       2.0415949328     0.9604653394     2.3453361595
 ----------------------------------------------------------------

   15   -1610.3866748317      5.10E-09 Convergence criterion met
 Total energy in the final basis set = -1610.38667483

                    Orbital Energies (a.u.)
 --------------------------------------------------------------

 Alpha MOs
 -- Occupied --
-19.180 -19.170 -19.169 -19.166 -19.146 -19.126 -19.117 -19.114
-19.114 -19.107 -10.315 -10.305 -10.301 -10.296 -10.257 -10.242
-10.235 -10.233 -10.229 -10.228 -10.213 -10.213 -10.210 -10.204
-10.189 -10.189 -10.187 -10.183 -10.180 -10.163 -10.162 -10.161
 -1.123  -1.116  -1.111  -1.106  -1.081  -1.049  -1.037  -1.029
 -1.024  -1.020  -0.842  -0.818  -0.808  -0.793  -0.783  -0.770
 -0.747  -0.740  -0.727  -0.722  -0.706  -0.687  -0.662  -0.644
 -0.615  -0.601  -0.596  -0.579  -0.571  -0.566  -0.564  -0.553
 -0.541  -0.526  -0.525  -0.516  -0.512  -0.503  -0.499  -0.494
 -0.490  -0.484  -0.482  -0.480  -0.476  -0.472  -0.468  -0.466
 -0.464  -0.454  -0.447  -0.442  -0.433  -0.429  -0.427  -0.419
 -0.415  -0.411  -0.408  -0.402  -0.398  -0.396  -0.390  -0.383
 -0.380  -0.377  -0.374  -0.370  -0.369  -0.364  -0.364  -0.361
 -0.351  -0.349  -0.342  -0.341  -0.339  -0.333  -0.324  -0.320
 -0.318  -0.315  -0.306  -0.301  -0.296  -0.291  -0.281  -0.280
 -0.272  -0.259

          Ground-State Mulliken Net Atomic Charges

     Atom                 Charge (a.u.)
  ----------------------------------------
      1 C                     0.327058
      2 C                     0.411700
      3 C                    -0.540321
      4 C                    -0.274041
      5 O                    -0.002493
      6 O                    -0.148813
      7 O                     0.131750
      8 O                    -0.053228
      9 C                    -0.161116
     10 C                    -0.301027
     11 C                    -0.612518
     12 C                    -0.299399
     13 C                     0.032064
     14 C                    -0.762569
     15 O                     0.036447
     16 H                     0.297452
     17 H                    -0.299001
     18 H                     0.192539
     19 H                     0.206989
     20 H                     0.196554
     21 H                     0.129696
     22 H                     0.195839
     23 H                     0.026083
     24 H                     0.182478
     25 H                     0.173082
     26 H                     0.117228
     27 H                     0.197573
     28 C                    -0.305792
     29 H                     0.193528
     30 H                     0.155534
     31 H                     0.190948
     32 H                     0.274924
     33 C                    -0.030492
     34 C                     0.250680
     35 C                    -0.703644
     36 C                    -0.698746
     37 O                     0.071602
     38 O                    -0.087547
     39 O                     0.033816
     40 O                    -0.079257
     41 C                    -0.358844
     42 C                    -0.162951
     43 C                    -0.026346
     44 C                    -0.801211
     45 C                    -0.202146
     46 C                    -0.295948
     47 O                     0.261972
     48 H                     0.251606
     49 H                     0.290453
     50 H                     0.213013
     51 H                     0.168537
     52 H                     0.174747
     53 H                     0.146275
     54 H                     0.174261
     55 H                     0.150113
     56 H                     0.108492
     57 H                     0.255796
     58 H                     0.171573
     59 H                     0.183773
     60 C                    -0.378938
     61 H                     0.235341
     62 H                     0.203572
     63 H                     0.287659
     64 H                     0.283639
  ----------------------------------------
  Sum of atomic charges =     0.000000

                    Cartesian Multipole Moments
 -----------------------------------------------------------------
    Charge (ESU x 10^10)
                 0.0000
    Dipole Moment (Debye)
         X       3.3564      Y       0.0906      Z      -0.0699
       Tot       3.3583
    Quadrupole Moments (Debye-Ang)
        XX    -187.3221     XY      10.4298     YY    -167.0106
        XZ      19.2184     YZ      -0.7676     ZZ    -210.3396

 Total job time:  8179.75s(wall), 8160.61s(cpu)
        *  Thank you very much for using Q-Chem.  Have a nice day.  *
