 Q-Chem 5.0, Q-Chem, Inc., Pleasanton, CA (2017)
 Q-Chem 5.0.1 for Intel X86 EM64T Linux

User input:
--------------------------------------------------------------
$molecule
0  1
--
0  1
C        +0.22270000        +1.04488000        +0.58595000
C        +0.62626000        -0.41353000        +0.99871000
C        -1.18200000        +1.23223000        +0.04377000
C        -0.37457000        -1.51643000        +0.72333000
O        -2.09172000        +0.78832000        +0.93966000
O        -1.47336000        +1.75939000        -0.99882000
O        -0.91364000        -1.42792000        -0.50620000
O        -0.62208000        -2.40877000        +1.49911000
C        -1.86134000        -2.44741000        -0.86560000
C        -3.47068000        +0.87492000        +0.53920000
C        +1.33008000        +1.39974000        -0.43491000
C        +2.63070000        +1.71700000        +0.32855000
C        +3.04336000        +0.29351000        +0.80300000
C        +1.94423000        -0.59299000        +0.15262000
O        +1.62840000        +0.13663000        -1.04376000
H        +0.27811000        +1.68786000        +1.46900000
H        +0.83923000        -0.48042000        +2.06408000
H        -2.68749000        -2.46677000        -0.15296000
H        -3.76076000        +1.91522000        +0.38406000
H        +3.37234000        +2.13782000        -0.35195000
H        +2.48236000        +2.42488000        +1.14651000
H        +4.02182000        +0.00994000        +0.41161000
H        +3.07359000        +0.18738000        +1.88928000
H        -2.21148000        -2.17765000        -1.85937000
H        -1.38062000        -3.42697000        -0.88096000
H        -4.03855000        +0.43623000        +1.35671000
H        -3.63120000        +0.31700000        -0.38495000
C        +0.90028000        +2.39077000        -1.49430000
C        +2.35450000        -2.01267000        -0.16812000
H        +3.26311000        -2.00678000        -0.77366000
H        +2.54990000        -2.57059000        +0.75079000
H        +1.57335000        -2.52896000        -0.72872000
H        +1.71845000        +2.58186000        -2.15686000
H        +0.59919000        +3.30478000        -1.02650000
H        +0.07925000        +1.98653000        -2.04874000
--
0  1
C        +0.24565000        +2.34504000        +4.78941000
C        +0.64921000        +0.88663000        +5.20217000
C        -1.15905000        +2.53239000        +4.24723000
C        -0.35162000        -0.21627000        +4.92679000
O        -2.06877000        +2.08848000        +5.14312000
O        -1.45041000        +3.05955000        +3.20464000
O        -0.89069000        -0.12776000        +3.69726000
O        -0.59913000        -1.10861000        +5.70257000
C        -1.83839000        -1.14725000        +3.33786000
C        -3.44773000        +2.17508000        +4.74266000
C        +1.35303000        +2.69990000        +3.76855000
C        +2.65365000        +3.01716000        +4.53201000
C        +3.06631000        +1.59367000        +5.00646000
C        +1.96718000        +0.70717000        +4.35608000
O        +1.65135000        +1.43679000        +3.15970000
H        +0.30106000        +2.98802000        +5.67246000
H        +0.86218000        +0.81974000        +6.26754000
H        -2.66454000        -1.16661000        +4.05050000
H        -3.73781000        +3.21538000        +4.58752000
H        +3.39529000        +3.43798000        +3.85151000
H        +2.50531000        +3.72504000        +5.34997000
H        +4.04477000        +1.31010000        +4.61507000
H        +3.09654000        +1.48754000        +6.09274000
H        -2.18853000        -0.87749000        +2.34409000
H        -1.35767000        -2.12681000        +3.32250000
H        -4.01560000        +1.73639000        +5.56017000
H        -3.60825000        +1.61716000        +3.81851000
C        +0.92323000        +3.69093000        +2.70916000
C        +2.37745000        -0.71251000        +4.03534000
H        +3.28606000        -0.70662000        +3.42980000
H        +2.57285000        -1.27043000        +4.95425000
H        +1.59630000        -1.22880000        +3.47474000
H        +1.74140000        +3.88202000        +2.04660000
H        +0.62214000        +4.60494000        +3.17696000
H        +0.10220000        +3.28669000        +2.15472000
$end

$rem
JOBTYPE                   SP
METHOD                    B3LYP
DFT_D                     d3_op
BASIS                     6-311++G(d,p)
SYMMETRY                  False
THRESH                    12
SCF_CONVERGENCE           8
MAX_SUB_FILE_NUM          128
MEM_STATIC                400
MEM_TOTAL                 4000
$end
--------------------------------------------------------------

             Standard Nuclear Orientation (Angstroms)
    I     Atom           X                Y                Z
 ----------------------------------------------------------------
    1      C      -1.3139446725     0.2656981721     0.8787410660
    2      C      -1.4574370720     0.4174657044    -0.6757902996
    3      C      -1.7750320754    -1.0501496293     1.4772260159
    4      C      -2.1361216805    -0.7103328200    -1.4250171902
    5      O      -1.1209492531    -2.0816101818     0.8979762866
    6      O      -2.5568152641    -1.1795529155     2.3837865813
    7      O      -3.2571187158    -1.1340577807    -0.8134639950
    8      O      -1.7461837104    -1.1454117468    -2.4823824020
    9      C      -3.9824104352    -2.1907221000    -1.4646751345
   10      C      -1.4866868611    -3.3978164325     1.3487928356
   11      C      -2.1133407671     1.4886298497     1.3884225543
   12      C      -1.2632878769     2.7589348746     1.1912609678
   13      C      -1.3364288316     2.9200491650    -0.3548332869
   14      C      -2.2863652957     1.7560508183    -0.7544477438
   15      O      -3.1374091132     1.6441383699     0.3973417605
   16      H      -0.2557901458     0.3467144018     1.1433468466
   17      H      -0.4871207917     0.5354571451    -1.1547559206
   18      H      -3.3416007711    -3.0632361896    -1.6019214077
   19      H      -1.2548114275    -3.5190052124     2.4080312313
   20      H      -1.7285324146     3.6046363109     1.6997255317
   21      H      -0.2455748120     2.6535880758     1.5724690228
   22      H      -1.7867322080     3.8734528501    -0.6363121158
   23      H      -0.3643623930     2.8504552784    -0.8472002213
   24      H      -4.8142269909    -2.4196876963    -0.8024038430
   25      H      -4.3471547418    -1.8594568226    -2.4383744455
   26      H      -0.8974016867    -4.0853552979     0.7460647501
   27      H      -2.5537882257    -3.5668119356     1.1944237424
   28      C      -2.7431756135     1.2921804861     2.7499993559
   29      C      -3.0978199685     1.9767168270    -2.0112431724
   30      H      -3.6424521545     2.9203044708    -1.9384169667
   31      H      -2.4440988072     2.0165122881    -2.8858381867
   32      H      -3.8227394909     1.1737721907    -2.1554466528
   33      H      -3.2745794554     2.1782016214     3.0283512827
   34      H      -1.9783612904     1.0935134257     3.4714539688
   35      H      -3.4220033358     0.4659023977     2.7131022522
   36      C       3.0731545043     0.1551253605     0.5606952117
   37      C       2.9296621049     0.3068928928    -0.9938361539
   38      C       2.6120671014    -1.1607224409     1.1591801616
   39      C       2.2509774963    -0.8209056317    -1.7430630445
   40      O       3.2661499238    -2.1921829934     0.5799304324
   41      O       1.8302839128    -1.2901257271     2.0657407270
   42      O       1.1299804611    -1.2446305923    -1.1315098492
   43      O       2.6409154664    -1.2559845585    -2.8004282563
   44      C       0.4046887417    -2.3012949116    -1.7827209887
   45      C       2.9004123158    -3.5083892442     1.0307469813
   46      C       2.2737584097     1.3780570381     1.0703767000
   47      C       3.1238113000     2.6483620630     0.8732151135
   48      C       3.0506703453     2.8094763534    -0.6728791411
   49      C       2.1007338812     1.6454780066    -1.0724935981
   50      O       1.2496900637     1.5335655583     0.0792959062
   51      H       4.1313090310     0.2361415902     0.8253009923
   52      H       3.8999783852     0.4248843335    -1.4728017748
   53      H       1.0454984058    -3.1738090012    -1.9199672620
   54      H       3.1322877494    -3.6295780240     2.0899853770
   55      H       2.6585667622     3.4940634993     1.3816796774
   56      H       4.1415243649     2.5430152642     1.2544231685
   57      H       2.6003669688     3.7628800384    -0.9543579701
   58      H       4.0227367838     2.7398824667    -1.1652460756
   59      H      -0.4271278140    -2.5302605080    -1.1204496973
   60      H       0.0399444351    -1.9700296342    -2.7564202998
   61      H       3.4896974901    -4.1959281095     0.4280188958
   62      H       1.8333109512    -3.6773847472     0.8763778881
   63      C       1.6439235634     1.1816076744     2.4319535016
   64      C       1.2892792083     1.8661440154    -2.3292890267
   65      H       0.7446470223     2.8097316592    -2.2564628210
   66      H       1.9430003697     1.9059394765    -3.2038840410
   67      H       0.5643596859     1.0631993791    -2.4734925071
   68      H       1.1125197215     2.0676288098     2.7103054284
   69      H       2.4087378865     0.9829406141     3.1534081146
   70      H       0.9650958411     0.3553295861     2.3950563980
 ----------------------------------------------------------------

   15   -1689.0238519723      5.24E-09 Convergence criterion met
 Total energy in the final basis set = -1689.02385197

                    Orbital Energies (a.u.)
 --------------------------------------------------------------

 Alpha MOs
 -- Occupied --
-19.181 -19.171 -19.169 -19.168 -19.139 -19.124 -19.114 -19.114
-19.111 -19.106 -10.318 -10.304 -10.301 -10.300 -10.253 -10.244
-10.236 -10.230 -10.230 -10.229 -10.216 -10.212 -10.209 -10.205
-10.187 -10.186 -10.185 -10.182 -10.177 -10.161 -10.159 -10.156
-10.151 -10.125  -1.125  -1.117  -1.111  -1.108  -1.078  -1.047
 -1.040  -1.029  -1.025  -1.023  -0.841  -0.818  -0.817  -0.792
 -0.792  -0.770  -0.749  -0.743  -0.736  -0.725  -0.722  -0.710
 -0.682  -0.664  -0.653  -0.632  -0.609  -0.594  -0.591  -0.572
 -0.572  -0.566  -0.562  -0.552  -0.532  -0.523  -0.519  -0.510
 -0.508  -0.502  -0.501  -0.493  -0.487  -0.486  -0.482  -0.480
 -0.475  -0.470  -0.469  -0.465  -0.463  -0.451  -0.449  -0.443
 -0.440  -0.433  -0.428  -0.427  -0.418  -0.415  -0.413  -0.408
 -0.405  -0.401  -0.398  -0.391  -0.390  -0.381  -0.379  -0.376
 -0.373  -0.368  -0.367  -0.364  -0.363  -0.359  -0.355  -0.352
 -0.349  -0.341  -0.337  -0.335  -0.333  -0.328  -0.325  -0.320
 -0.318  -0.314  -0.308  -0.300  -0.289  -0.284  -0.280  -0.276
 -0.259  -0.257

          Ground-State Mulliken Net Atomic Charges

     Atom                 Charge (a.u.)
  ----------------------------------------
      1 C                     0.416868
      2 C                     0.650314
      3 C                    -0.027270
      4 C                    -0.171134
      5 O                     0.038845
      6 O                    -0.096180
      7 O                     0.129156
      8 O                    -0.027638
      9 C                    -0.163307
     10 C                    -0.257100
     11 C                    -1.459713
     12 C                     0.043109
     13 C                     0.269197
     14 C                    -1.726752
     15 O                     0.209952
     16 H                    -0.109465
     17 H                    -0.052504
     18 H                     0.194265
     19 H                     0.205442
     20 H                     0.195704
     21 H                     0.109833
     22 H                     0.197872
     23 H                     0.027579
     24 H                     0.175875
     25 H                     0.178098
     26 H                     0.126308
     27 H                     0.200306
     28 C                    -0.295770
     29 C                    -0.059660
     30 H                     0.189595
     31 H                     0.158346
     32 H                     0.191151
     33 H                     0.140043
     34 H                     0.141814
     35 H                     0.212907
     36 C                    -0.243994
     37 C                     0.213565
     38 C                    -0.595395
     39 C                    -0.715829
     40 O                     0.097380
     41 O                    -0.071563
     42 O                     0.011158
     43 O                    -0.073927
     44 C                    -0.346117
     45 C                    -0.149420
     46 C                     0.062114
     47 C                    -0.248548
     48 C                    -0.200493
     49 C                    -0.183749
     50 O                     0.263236
     51 H                     0.254237
     52 H                     0.284157
     53 H                     0.214949
     54 H                     0.167765
     55 H                     0.179598
     56 H                     0.157354
     57 H                     0.176627
     58 H                     0.154636
     59 H                     0.107207
     60 H                     0.252147
     61 H                     0.174130
     62 H                     0.169036
     63 C                    -0.834163
     64 C                    -0.507738
     65 H                     0.245320
     66 H                     0.200873
     67 H                     0.257804
     68 H                     0.157939
     69 H                     0.167788
     70 H                     0.245832
  ----------------------------------------
  Sum of atomic charges =     0.000000

                    Cartesian Multipole Moments
 -----------------------------------------------------------------
    Charge (ESU x 10^10)
                 0.0000
    Dipole Moment (Debye)
         X       3.1169      Y      -0.4644      Z       0.3777
       Tot       3.1739
    Quadrupole Moments (Debye-Ang)
        XX    -201.8862     XY      12.7579     YY    -182.1260
        XZ      17.5744     YZ      -7.0817     ZZ    -221.3770

 Total job time:  4232.11s(wall), 8427.34s(cpu)
        *  Thank you very much for using Q-Chem.  Have a nice day.  *
