 Q-Chem 5.0, Q-Chem, Inc., Pleasanton, CA (2017)
 Q-Chem 5.0.1 for Intel X86 EM64T Linux

User input:
--------------------------------------------------------------
$molecule
0  1
C        +0.22270000        +1.04488000        +0.58595000
C        +0.62626000        -0.41353000        +0.99871000
C        -1.18200000        +1.23223000        +0.04377000
C        -0.37457000        -1.51643000        +0.72333000
O        -2.09172000        +0.78832000        +0.93966000
O        -1.47336000        +1.75939000        -0.99882000
O        -0.91364000        -1.42792000        -0.50620000
O        -0.62208000        -2.40877000        +1.49911000
C        -1.86134000        -2.44741000        -0.86560000
C        -3.47068000        +0.87492000        +0.53920000
C        +1.33008000        +1.39974000        -0.43491000
C        +2.63070000        +1.71700000        +0.32855000
C        +3.04336000        +0.29351000        +0.80300000
C        +1.94423000        -0.59299000        +0.15262000
O        +1.62840000        +0.13663000        -1.04376000
H        +0.27811000        +1.68786000        +1.46900000
H        +0.83923000        -0.48042000        +2.06408000
H        -2.68749000        -2.46677000        -0.15296000
H        -3.76076000        +1.91522000        +0.38406000
H        +3.37234000        +2.13782000        -0.35195000
H        +2.48236000        +2.42488000        +1.14651000
H        +4.02182000        +0.00994000        +0.41161000
H        +3.07359000        +0.18738000        +1.88928000
H        -2.21148000        -2.17765000        -1.85937000
H        -1.38062000        -3.42697000        -0.88096000
H        -4.03855000        +0.43623000        +1.35671000
H        -3.63120000        +0.31700000        -0.38495000
C        +0.90028000        +2.39077000        -1.49430000
C        +2.35450000        -2.01267000        -0.16812000
H        +3.26311000        -2.00678000        -0.77366000
H        +2.54990000        -2.57059000        +0.75079000
H        +1.57335000        -2.52896000        -0.72872000
H        +1.71845000        +2.58186000        -2.15686000
H        +0.59919000        +3.30478000        -1.02650000
H        +0.07925000        +1.98653000        -2.04874000
@C        +0.24565000        +2.34504000        +4.78941000
@C        +0.64921000        +0.88663000        +5.20217000
@C        -1.15905000        +2.53239000        +4.24723000
@C        -0.35162000        -0.21627000        +4.92679000
@O        -2.06877000        +2.08848000        +5.14312000
@O        -1.45041000        +3.05955000        +3.20464000
@O        -0.89069000        -0.12776000        +3.69726000
@O        -0.59913000        -1.10861000        +5.70257000
@C        -1.83839000        -1.14725000        +3.33786000
@C        -3.44773000        +2.17508000        +4.74266000
@C        +1.35303000        +2.69990000        +3.76855000
@C        +2.65365000        +3.01716000        +4.53201000
@C        +3.06631000        +1.59367000        +5.00646000
@C        +1.96718000        +0.70717000        +4.35608000
@O        +1.65135000        +1.43679000        +3.15970000
@H        +0.30106000        +2.98802000        +5.67246000
@H        +0.86218000        +0.81974000        +6.26754000
@H        -2.66454000        -1.16661000        +4.05050000
@H        -3.73781000        +3.21538000        +4.58752000
@H        +3.39529000        +3.43798000        +3.85151000
@H        +2.50531000        +3.72504000        +5.34997000
@H        +4.04477000        +1.31010000        +4.61507000
@H        +3.09654000        +1.48754000        +6.09274000
@H        -2.18853000        -0.87749000        +2.34409000
@H        -1.35767000        -2.12681000        +3.32250000
@H        -4.01560000        +1.73639000        +5.56017000
@H        -3.60825000        +1.61716000        +3.81851000
@C        +0.92323000        +3.69093000        +2.70916000
@C        +2.37745000        -0.71251000        +4.03534000
@H        +3.28606000        -0.70662000        +3.42980000
@H        +2.57285000        -1.27043000        +4.95425000
@H        +1.59630000        -1.22880000        +3.47474000
@H        +1.74140000        +3.88202000        +2.04660000
@H        +0.62214000        +4.60494000        +3.17696000
@H        +0.10220000        +3.28669000        +2.15472000
$end

$rem
JOBTYPE                   SP
METHOD                    B3LYP
DFT_D                     d3_op
BASIS                     6-311++G(d,p)
SYMMETRY                  False
THRESH                    12
SCF_CONVERGENCE           8
MAX_SUB_FILE_NUM          128
MEM_STATIC                400
MEM_TOTAL                 4000
$end
--------------------------------------------------------------

             Standard Nuclear Orientation (Angstroms)
    I     Atom           X                Y                Z
 ----------------------------------------------------------------
    1      C       0.2227000000     1.0448800000     0.5859500000
    2      C       0.6262600000    -0.4135300000     0.9987100000
    3      C      -1.1820000000     1.2322300000     0.0437700000
    4      C      -0.3745700000    -1.5164300000     0.7233300000
    5      O      -2.0917200000     0.7883200000     0.9396600000
    6      O      -1.4733600000     1.7593900000    -0.9988200000
    7      O      -0.9136400000    -1.4279200000    -0.5062000000
    8      O      -0.6220800000    -2.4087700000     1.4991100000
    9      C      -1.8613400000    -2.4474100000    -0.8656000000
   10      C      -3.4706800000     0.8749200000     0.5392000000
   11      C       1.3300800000     1.3997400000    -0.4349100000
   12      C       2.6307000000     1.7170000000     0.3285500000
   13      C       3.0433600000     0.2935100000     0.8030000000
   14      C       1.9442300000    -0.5929900000     0.1526200000
   15      O       1.6284000000     0.1366300000    -1.0437600000
   16      H       0.2781100000     1.6878600000     1.4690000000
   17      H       0.8392300000    -0.4804200000     2.0640800000
   18      H      -2.6874900000    -2.4667700000    -0.1529600000
   19      H      -3.7607600000     1.9152200000     0.3840600000
   20      H       3.3723400000     2.1378200000    -0.3519500000
   21      H       2.4823600000     2.4248800000     1.1465100000
   22      H       4.0218200000     0.0099400000     0.4116100000
   23      H       3.0735900000     0.1873800000     1.8892800000
   24      H      -2.2114800000    -2.1776500000    -1.8593700000
   25      H      -1.3806200000    -3.4269700000    -0.8809600000
   26      H      -4.0385500000     0.4362300000     1.3567100000
   27      H      -3.6312000000     0.3170000000    -0.3849500000
   28      C       0.9002800000     2.3907700000    -1.4943000000
   29      C       2.3545000000    -2.0126700000    -0.1681200000
   30      H       3.2631100000    -2.0067800000    -0.7736600000
   31      H       2.5499000000    -2.5705900000     0.7507900000
   32      H       1.5733500000    -2.5289600000    -0.7287200000
   33      H       1.7184500000     2.5818600000    -2.1568600000
   34      H       0.5991900000     3.3047800000    -1.0265000000
   35      H       0.0792500000     1.9865300000    -2.0487400000
   36      GH      0.2456500000     2.3450400000     4.7894100000
   37      GH      0.6492100000     0.8866300000     5.2021700000
   38      GH     -1.1590500000     2.5323900000     4.2472300000
   39      GH     -0.3516200000    -0.2162700000     4.9267900000
   40      GH     -2.0687700000     2.0884800000     5.1431200000
   41      GH     -1.4504100000     3.0595500000     3.2046400000
   42      GH     -0.8906900000    -0.1277600000     3.6972600000
   43      GH     -0.5991300000    -1.1086100000     5.7025700000
   44      GH     -1.8383900000    -1.1472500000     3.3378600000
   45      GH     -3.4477300000     2.1750800000     4.7426600000
   46      GH      1.3530300000     2.6999000000     3.7685500000
   47      GH      2.6536500000     3.0171600000     4.5320100000
   48      GH      3.0663100000     1.5936700000     5.0064600000
   49      GH      1.9671800000     0.7071700000     4.3560800000
   50      GH      1.6513500000     1.4367900000     3.1597000000
   51      GH      0.3010600000     2.9880200000     5.6724600000
   52      GH      0.8621800000     0.8197400000     6.2675400000
   53      GH     -2.6645400000    -1.1666100000     4.0505000000
   54      GH     -3.7378100000     3.2153800000     4.5875200000
   55      GH      3.3952900000     3.4379800000     3.8515100000
   56      GH      2.5053100000     3.7250400000     5.3499700000
   57      GH      4.0447700000     1.3101000000     4.6150700000
   58      GH      3.0965400000     1.4875400000     6.0927400000
   59      GH     -2.1885300000    -0.8774900000     2.3440900000
   60      GH     -1.3576700000    -2.1268100000     3.3225000000
   61      GH     -4.0156000000     1.7363900000     5.5601700000
   62      GH     -3.6082500000     1.6171600000     3.8185100000
   63      GH      0.9232300000     3.6909300000     2.7091600000
   64      GH      2.3774500000    -0.7125100000     4.0353400000
   65      GH      3.2860600000    -0.7066200000     3.4298000000
   66      GH      2.5728500000    -1.2704300000     4.9542500000
   67      GH      1.5963000000    -1.2288000000     3.4747400000
   68      GH      1.7414000000     3.8820200000     2.0466000000
   69      GH      0.6221400000     4.6049400000     3.1769600000
   70      GH      0.1022000000     3.2866900000     2.1547200000
 ----------------------------------------------------------------

   14    -844.5186848251      5.83E-09 Convergence criterion met
 Total energy in the final basis set = -844.51868483

                    Orbital Energies (a.u.)
 --------------------------------------------------------------

 Alpha MOs
 -- Occupied --
-19.176 -19.174 -19.125 -19.117 -19.116 -10.311 -10.306 -10.242
-10.232 -10.231 -10.231 -10.204 -10.203 -10.178 -10.175 -10.168
-10.136  -1.121  -1.114  -1.061  -1.034  -1.027  -0.832  -0.804
 -0.784  -0.748  -0.730  -0.720  -0.674  -0.644  -0.603  -0.579
 -0.570  -0.561  -0.525  -0.514  -0.507  -0.493  -0.489  -0.479
 -0.476  -0.471  -0.459  -0.442  -0.435  -0.433  -0.414  -0.411
 -0.403  -0.399  -0.395  -0.374  -0.372  -0.364  -0.358  -0.355
 -0.349  -0.345  -0.333  -0.328  -0.321  -0.313  -0.284  -0.272
 -0.270

          Ground-State Mulliken Net Atomic Charges

     Atom                 Charge (a.u.)
  ----------------------------------------
      1 C                     0.016305
      2 C                     0.678500
      3 C                    -0.032552
      4 C                    -0.211812
      5 O                     0.063143
      6 O                    -0.089385
      7 O                     0.117140
      8 O                    -0.036654
      9 C                    -0.160710
     10 C                    -0.290817
     11 C                    -1.362337
     12 C                    -0.062969
     13 C                     0.186249
     14 C                    -1.597107
     15 O                     0.224176
     16 H                     0.031654
     17 H                    -0.005482
     18 H                     0.196791
     19 H                     0.197950
     20 H                     0.205678
     21 H                     0.178414
     22 H                     0.204699
     23 H                     0.162704
     24 H                     0.174557
     25 H                     0.178050
     26 H                     0.133757
     27 H                     0.199653
     28 C                    -0.298387
     29 C                    -0.032367
     30 H                     0.190792
     31 H                     0.166578
     32 H                     0.196684
     33 H                     0.143548
     34 H                     0.144489
     35 H                     0.216857
     36 GH                    0.004603
     37 GH                   -0.009288
     38 GH                   -0.037953
     39 GH                   -0.006554
     40 GH                    0.002624
     41 GH                   -0.024876
     42 GH                    0.000884
     43 GH                    0.003689
     44 GH                   -0.042852
     45 GH                    0.012955
     46 GH                    0.032339
     47 GH                   -0.012568
     48 GH                    0.000294
     49 GH                   -0.066998
     50 GH                   -0.014886
     51 GH                   -0.000003
     52 GH                   -0.000487
     53 GH                   -0.003051
     54 GH                    0.001599
     55 GH                    0.000422
     56 GH                   -0.000531
     57 GH                    0.000248
     58 GH                   -0.000127
     59 GH                    0.060538
     60 GH                    0.000957
     61 GH                   -0.000303
     62 GH                   -0.011826
     63 GH                   -0.042529
     64 GH                    0.058962
     65 GH                    0.014638
     66 GH                   -0.002309
     67 GH                    0.009523
     68 GH                    0.004871
     69 GH                   -0.006173
     70 GH                    0.046380
  ----------------------------------------
  Sum of atomic charges =    -0.000000

                    Cartesian Multipole Moments
 -----------------------------------------------------------------
    Charge (ESU x 10^10)
                -0.0000
    Dipole Moment (Debye)
         X      -0.3232      Y       0.5031      Z       0.9219
       Tot       1.0988
    Quadrupole Moments (Debye-Ang)
        XX     -89.0873     XY       1.8199     YY    -103.5343
        XZ       3.4693     YZ      10.7861     ZZ    -108.3123

 Total job time:  4218.71s(wall), 8398.86s(cpu)
        *  Thank you very much for using Q-Chem.  Have a nice day.  *
