 Q-Chem 5.0, Q-Chem, Inc., Pleasanton, CA (2017)
 Q-Chem 5.0.1 for Intel X86 EM64T Linux

User input:
--------------------------------------------------------------
$molecule
0  1
C        -0.54444000        -0.68370000        -0.06689000
C        -0.55709000        +0.71878000        +0.05493000
C        +0.74969000        -1.43776000        -0.09374000
C        +0.72843000        +1.48436000        +0.06598000
O        +1.53645000        -1.09176000        +0.94813000
O        +1.04702000        -2.28405000        -0.90088000
O        +1.53784000        +1.08301000        -0.93877000
O        +1.01035000        +2.37097000        +0.83478000
C        +2.83449000        +1.70121000        -0.99358000
C        +2.82316000        -1.73208000        +1.00475000
C        -1.74320000        -1.41616000        -0.12552000
C        -2.93952000        -0.70056000        -0.05285000
C        -2.95313000        +0.68255000        +0.06934000
C        -1.77161000        +1.42404000        +0.12810000
H        +2.73835000        +2.77989000        -1.12464000
H        +2.70778000        -2.81319000        +1.09555000
H        -3.90354000        +1.20325000        +0.11710000
H        +3.38998000        +1.50093000        -0.07544000
H        +3.33184000        +1.25269000        -1.85067000
H        +3.31095000        -1.32281000        +1.88650000
H        +3.39889000        -1.50934000        +0.10459000
H        -3.87892000        -1.24211000        -0.08988000
C        -1.83960000        +2.92746000        +0.24839000
H        -1.24214000        +3.42352000        -0.52065000
H        -1.45503000        +3.26427000        +1.21284000
H        -2.87211000        +3.26623000        +0.14638000
H        -1.73878000        -2.44393000        -0.21875000
@C        -0.51416000        -1.06734000        +4.31625000
@C        -0.52681000        +0.33514000        +4.43807000
@C        +0.77997000        -1.82140000        +4.28940000
@C        +0.75871000        +1.10072000        +4.44912000
@O        +1.56673000        -1.47540000        +5.33127000
@O        +1.07730000        -2.66769000        +3.48226000
@O        +1.56812000        +0.69937000        +3.44437000
@O        +1.04063000        +1.98733000        +5.21792000
@C        +2.86477000        +1.31757000        +3.38956000
@C        +2.85344000        -2.11572000        +5.38789000
@C        -1.71292000        -1.79980000        +4.25762000
@C        -2.90924000        -1.08420000        +4.33029000
@C        -2.92285000        +0.29891000        +4.45248000
@C        -1.74133000        +1.04040000        +4.51124000
@H        +2.76863000        +2.39625000        +3.25850000
@H        +2.73806000        -3.19683000        +5.47869000
@H        -3.87326000        +0.81961000        +4.50024000
@H        +3.42026000        +1.11729000        +4.30770000
@H        +3.36212000        +0.86905000        +2.53247000
@H        +3.34123000        -1.70645000        +6.26964000
@H        +3.42917000        -1.89298000        +4.48773000
@H        -3.84864000        -1.62575000        +4.29326000
@C        -1.80932000        +2.54382000        +4.63153000
@H        -1.21186000        +3.03988000        +3.86249000
@H        -1.42475000        +2.88063000        +5.59598000
@H        -2.84183000        +2.88259000        +4.52952000
@H        -1.70850000        -2.82757000        +4.16439000
$end

$rem
JOBTYPE                   SP
METHOD                    B3LYP
DFT_D                     d3_op
BASIS                     6-311++G(d,p)
SYMMETRY                  False
THRESH                    12
SCF_CONVERGENCE           8
MAX_SUB_FILE_NUM          128
MEM_STATIC                400
MEM_TOTAL                 4000
$end
--------------------------------------------------------------

             Standard Nuclear Orientation (Angstroms)
    I     Atom           X                Y                Z
 ----------------------------------------------------------------
    1      C      -0.5444400000    -0.6837000000    -0.0668900000
    2      C      -0.5570900000     0.7187800000     0.0549300000
    3      C       0.7496900000    -1.4377600000    -0.0937400000
    4      C       0.7284300000     1.4843600000     0.0659800000
    5      O       1.5364500000    -1.0917600000     0.9481300000
    6      O       1.0470200000    -2.2840500000    -0.9008800000
    7      O       1.5378400000     1.0830100000    -0.9387700000
    8      O       1.0103500000     2.3709700000     0.8347800000
    9      C       2.8344900000     1.7012100000    -0.9935800000
   10      C       2.8231600000    -1.7320800000     1.0047500000
   11      C      -1.7432000000    -1.4161600000    -0.1255200000
   12      C      -2.9395200000    -0.7005600000    -0.0528500000
   13      C      -2.9531300000     0.6825500000     0.0693400000
   14      C      -1.7716100000     1.4240400000     0.1281000000
   15      H       2.7383500000     2.7798900000    -1.1246400000
   16      H       2.7077800000    -2.8131900000     1.0955500000
   17      H      -3.9035400000     1.2032500000     0.1171000000
   18      H       3.3899800000     1.5009300000    -0.0754400000
   19      H       3.3318400000     1.2526900000    -1.8506700000
   20      H       3.3109500000    -1.3228100000     1.8865000000
   21      H       3.3988900000    -1.5093400000     0.1045900000
   22      H      -3.8789200000    -1.2421100000    -0.0898800000
   23      C      -1.8396000000     2.9274600000     0.2483900000
   24      H      -1.2421400000     3.4235200000    -0.5206500000
   25      H      -1.4550300000     3.2642700000     1.2128400000
   26      H      -2.8721100000     3.2662300000     0.1463800000
   27      H      -1.7387800000    -2.4439300000    -0.2187500000
   28      GH     -0.5141600000    -1.0673400000     4.3162500000
   29      GH     -0.5268100000     0.3351400000     4.4380700000
   30      GH      0.7799700000    -1.8214000000     4.2894000000
   31      GH      0.7587100000     1.1007200000     4.4491200000
   32      GH      1.5667300000    -1.4754000000     5.3312700000
   33      GH      1.0773000000    -2.6676900000     3.4822600000
   34      GH      1.5681200000     0.6993700000     3.4443700000
   35      GH      1.0406300000     1.9873300000     5.2179200000
   36      GH      2.8647700000     1.3175700000     3.3895600000
   37      GH      2.8534400000    -2.1157200000     5.3878900000
   38      GH     -1.7129200000    -1.7998000000     4.2576200000
   39      GH     -2.9092400000    -1.0842000000     4.3302900000
   40      GH     -2.9228500000     0.2989100000     4.4524800000
   41      GH     -1.7413300000     1.0404000000     4.5112400000
   42      GH      2.7686300000     2.3962500000     3.2585000000
   43      GH      2.7380600000    -3.1968300000     5.4786900000
   44      GH     -3.8732600000     0.8196100000     4.5002400000
   45      GH      3.4202600000     1.1172900000     4.3077000000
   46      GH      3.3621200000     0.8690500000     2.5324700000
   47      GH      3.3412300000    -1.7064500000     6.2696400000
   48      GH      3.4291700000    -1.8929800000     4.4877300000
   49      GH     -3.8486400000    -1.6257500000     4.2932600000
   50      GH     -1.8093200000     2.5438200000     4.6315300000
   51      GH     -1.2118600000     3.0398800000     3.8624900000
   52      GH     -1.4247500000     2.8806300000     5.5959800000
   53      GH     -2.8418300000     2.8825900000     4.5295200000
   54      GH     -1.7085000000    -2.8275700000     4.1643900000
 ----------------------------------------------------------------

   14    -727.5451949989      5.60E-09 Convergence criterion met
 Total energy in the final basis set = -727.54519500

                    Orbital Energies (a.u.)
 --------------------------------------------------------------

 Alpha MOs
 -- Occupied --
-19.178 -19.177 -19.121 -19.119 -10.313 -10.312 -10.233 -10.232
-10.211 -10.208 -10.207 -10.194 -10.191 -10.190 -10.174  -1.122
 -1.115  -1.033  -1.030  -0.886  -0.801  -0.795  -0.747  -0.731
 -0.704  -0.655  -0.627  -0.581  -0.575  -0.550  -0.521  -0.514
 -0.492  -0.490  -0.482  -0.478  -0.472  -0.447  -0.435  -0.432
 -0.429  -0.412  -0.407  -0.396  -0.384  -0.378  -0.371  -0.365
 -0.364  -0.322  -0.314  -0.296  -0.294  -0.269  -0.264

          Ground-State Mulliken Net Atomic Charges

     Atom                 Charge (a.u.)
  ----------------------------------------
      1 C                     0.672813
      2 C                     0.119771
      3 C                    -0.501497
      4 C                    -0.682924
      5 O                     0.088617
      6 O                    -0.155440
      7 O                     0.122905
      8 O                    -0.087539
      9 C                    -0.142089
     10 C                    -0.376516
     11 C                    -0.336519
     12 C                    -0.276618
     13 C                    -0.273101
     14 C                     0.292336
     15 H                     0.164072
     16 H                     0.208582
     17 H                     0.157955
     18 H                     0.191948
     19 H                     0.171048
     20 H                     0.111714
     21 H                     0.195990
     22 H                     0.185826
     23 C                    -0.539821
     24 H                     0.178086
     25 H                     0.211869
     26 H                     0.142974
     27 H                     0.200140
     28 GH                   -0.120895
     29 GH                    0.025462
     30 GH                    0.029982
     31 GH                   -0.061160
     32 GH                   -0.000462
     33 GH                    0.002528
     34 GH                   -0.005944
     35 GH                    0.002087
     36 GH                    0.020689
     37 GH                   -0.014656
     38 GH                    0.063159
     39 GH                    0.019523
     40 GH                   -0.033232
     41 GH                    0.016446
     42 GH                    0.002745
     43 GH                    0.000658
     44 GH                   -0.001120
     45 GH                    0.002865
     46 GH                   -0.007151
     47 GH                   -0.001137
     48 GH                    0.005322
     49 GH                    0.001179
     50 GH                    0.009441
     51 GH                   -0.004834
     52 GH                   -0.001388
     53 GH                    0.002825
     54 GH                    0.002482
  ----------------------------------------
  Sum of atomic charges =     0.000000

                    Cartesian Multipole Moments
 -----------------------------------------------------------------
    Charge (ESU x 10^10)
                 0.0000
    Dipole Moment (Debye)
         X       0.0029      Y       0.4806      Z       0.2072
       Tot       0.5233
    Quadrupole Moments (Debye-Ang)
        XX     -68.8324     XY      -0.6817     YY     -89.7158
        XZ      -0.0791     YZ      -9.3006     ZZ     -93.2355

 Total job time:  1778.00s(wall), 3519.18s(cpu)
        *  Thank you very much for using Q-Chem.  Have a nice day.  *
