 Q-Chem 5.0, Q-Chem, Inc., Pleasanton, CA (2017)
 Q-Chem 5.0.1 for Intel X86 EM64T Linux

User input:
--------------------------------------------------------------
$molecule
0  1
--
0  1
C        -0.54444000        -0.68370000        -0.06689000
C        -0.55709000        +0.71878000        +0.05493000
C        +0.74969000        -1.43776000        -0.09374000
C        +0.72843000        +1.48436000        +0.06598000
O        +1.53645000        -1.09176000        +0.94813000
O        +1.04702000        -2.28405000        -0.90088000
O        +1.53784000        +1.08301000        -0.93877000
O        +1.01035000        +2.37097000        +0.83478000
C        +2.83449000        +1.70121000        -0.99358000
C        +2.82316000        -1.73208000        +1.00475000
C        -1.74320000        -1.41616000        -0.12552000
C        -2.93952000        -0.70056000        -0.05285000
C        -2.95313000        +0.68255000        +0.06934000
C        -1.77161000        +1.42404000        +0.12810000
H        +2.73835000        +2.77989000        -1.12464000
H        +2.70778000        -2.81319000        +1.09555000
H        -3.90354000        +1.20325000        +0.11710000
H        +3.38998000        +1.50093000        -0.07544000
H        +3.33184000        +1.25269000        -1.85067000
H        +3.31095000        -1.32281000        +1.88650000
H        +3.39889000        -1.50934000        +0.10459000
H        -3.87892000        -1.24211000        -0.08988000
C        -1.83960000        +2.92746000        +0.24839000
H        -1.24214000        +3.42352000        -0.52065000
H        -1.45503000        +3.26427000        +1.21284000
H        -2.87211000        +3.26623000        +0.14638000
H        -1.73878000        -2.44393000        -0.21875000
--
0  1
C        -0.51416000        -1.06734000        +4.31625000
C        -0.52681000        +0.33514000        +4.43807000
C        +0.77997000        -1.82140000        +4.28940000
C        +0.75871000        +1.10072000        +4.44912000
O        +1.56673000        -1.47540000        +5.33127000
O        +1.07730000        -2.66769000        +3.48226000
O        +1.56812000        +0.69937000        +3.44437000
O        +1.04063000        +1.98733000        +5.21792000
C        +2.86477000        +1.31757000        +3.38956000
C        +2.85344000        -2.11572000        +5.38789000
C        -1.71292000        -1.79980000        +4.25762000
C        -2.90924000        -1.08420000        +4.33029000
C        -2.92285000        +0.29891000        +4.45248000
C        -1.74133000        +1.04040000        +4.51124000
H        +2.76863000        +2.39625000        +3.25850000
H        +2.73806000        -3.19683000        +5.47869000
H        -3.87326000        +0.81961000        +4.50024000
H        +3.42026000        +1.11729000        +4.30770000
H        +3.36212000        +0.86905000        +2.53247000
H        +3.34123000        -1.70645000        +6.26964000
H        +3.42917000        -1.89298000        +4.48773000
H        -3.84864000        -1.62575000        +4.29326000
C        -1.80932000        +2.54382000        +4.63153000
H        -1.21186000        +3.03988000        +3.86249000
H        -1.42475000        +2.88063000        +5.59598000
H        -2.84183000        +2.88259000        +4.52952000
H        -1.70850000        -2.82757000        +4.16439000
$end

$rem
JOBTYPE                   SP
METHOD                    B3LYP
DFT_D                     d3_op
BASIS                     6-311++G(d,p)
SYMMETRY                  False
THRESH                    12
SCF_CONVERGENCE           8
MAX_SUB_FILE_NUM          128
MEM_STATIC                400
MEM_TOTAL                 4000
$end
--------------------------------------------------------------

             Standard Nuclear Orientation (Angstroms)
    I     Atom           X                Y                Z
 ----------------------------------------------------------------
    1      C      -2.1242968937     0.1430080156     1.2767104551
    2      C      -2.2737729911     0.6322024781    -0.0348900784
    3      C      -1.9408149081    -1.3218866701     1.5307139663
    4      C      -2.3442319640    -0.3180339780    -1.1885289820
    5      O      -0.9458551792    -1.8270560617     0.7697544285
    6      O      -2.5550647747    -1.9713787279     2.3412348117
    7      O      -3.2113391192    -1.3225934509    -0.9340994639
    8      O      -1.7459246309    -0.2023065485    -2.2302799675
    9      C      -3.3176032583    -2.3394124823    -1.9446753338
   10      C      -0.7026840104    -3.2379752573     0.9076419081
   11      C      -2.1024157305     1.0175238497     2.3774846993
   12      C      -2.2286713623     2.3832315712     2.1177776217
   13      C      -2.3741285979     2.8669646788     0.8243506336
   14      C      -2.3984830347     2.0116023844    -0.2788319781
   15      H      -3.6572584066    -1.9075766557    -2.8870777768
   16      H      -0.4127461005    -3.4769649494     1.9319348116
   17      H      -2.4750634528     3.9350160365     0.6638292079
   18      H      -2.3511612941    -2.8224236861    -2.1007278407
   19      H      -4.0467601811    -3.0504849619    -1.5627897597
   20      H       0.1080708078    -3.4601765516     0.2175496759
   21      H      -1.5984769808    -3.8054724976     0.6490534271
   22      H      -2.2089897355     3.0802686599     2.9489646729
   23      C      -2.5715694127     2.5858433994    -1.6643471830
   24      H      -3.3900104196     2.1031376351    -2.2043527016
   25      H      -1.6711207729     2.4457484778    -2.2652336310
   26      H      -2.7886763264     3.6537728422    -1.6040201863
   27      H      -1.9970011583     0.6631285168     3.3409753626
   28      C       2.2470975906     0.4828316067     0.9086846714
   29      C       2.0976214932     0.9720260692    -0.4029158621
   30      C       2.4305795762    -0.9820630791     1.1626881825
   31      C       2.0271625203     0.0217896131    -1.5565547658
   32      O       3.4255393051    -1.4872324706     0.4017286447
   33      O       1.8163297096    -1.6315551368     1.9732090280
   34      O       1.1600553650    -0.9827698598    -1.3021252477
   35      O       2.6254698534     0.1375170425    -2.5983057513
   36      C       1.0537912260    -1.9995888912    -2.3127011175
   37      C       3.6687104739    -2.8981516662     0.5396161244
   38      C       2.2689787538     1.3573474408     2.0094589156
   39      C       2.1427231219     2.7230551623     1.7497518380
   40      C       1.9972658863     3.2067882699     0.4563248499
   41      C       1.9729114496     2.3514259755    -0.6468577619
   42      H       0.7141360777    -1.5677530646    -3.2551035606
   43      H       3.9586483837    -3.1371413583     1.5639090278
   44      H       1.8963310315     4.2748396275     0.2958034241
   45      H       2.0202331902    -2.4826000951    -2.4687536244
   46      H       0.3246343032    -2.7106613708    -1.9308155435
   47      H       4.4794652921    -3.1203529605    -0.1504761079
   48      H       2.7729175034    -3.4656489066     0.2810276434
   49      H       2.1624047488     3.4200922509     2.5809388891
   50      C       1.7998250715     2.9256669905    -2.0323729667
   51      H       0.9813840646     2.4429612261    -2.5723784853
   52      H       2.7002737114     2.7855720688    -2.6332594148
   53      H       1.5827181578     3.9935964332    -1.9720459701
   54      H       2.3743933260     1.0029521079     2.9729495788
 ----------------------------------------------------------------

   15   -1455.0974781563      7.94E-09 Convergence criterion met
 Total energy in the final basis set = -1455.09747816

                    Orbital Energies (a.u.)
 --------------------------------------------------------------

 Alpha MOs
 -- Occupied --
-19.177 -19.176 -19.168 -19.165 -19.121 -19.118 -19.114 -19.111
-10.312 -10.311 -10.306 -10.303 -10.234 -10.233 -10.226 -10.223
-10.208 -10.206 -10.205 -10.204 -10.204 -10.203 -10.190 -10.190
-10.188 -10.187 -10.187 -10.186 -10.173 -10.170  -1.120  -1.119
 -1.109  -1.107  -1.032  -1.030  -1.025  -1.021  -0.883  -0.882
 -0.798  -0.797  -0.792  -0.791  -0.744  -0.744  -0.728  -0.725
 -0.702  -0.700  -0.652  -0.651  -0.624  -0.623  -0.580  -0.576
 -0.574  -0.568  -0.547  -0.544  -0.519  -0.516  -0.511  -0.509
 -0.491  -0.490  -0.485  -0.484  -0.482  -0.477  -0.476  -0.470
 -0.468  -0.466  -0.446  -0.443  -0.435  -0.431  -0.430  -0.429
 -0.425  -0.421  -0.411  -0.409  -0.404  -0.401  -0.392  -0.392
 -0.382  -0.380  -0.376  -0.373  -0.370  -0.364  -0.363  -0.362
 -0.360  -0.353  -0.321  -0.319  -0.309  -0.305  -0.295  -0.294
 -0.290  -0.286  -0.268  -0.264  -0.262  -0.257

          Ground-State Mulliken Net Atomic Charges

     Atom                 Charge (a.u.)
  ----------------------------------------
      1 C                     0.605652
      2 C                     0.077602
      3 C                    -0.485459
      4 C                    -0.714756
      5 O                     0.117574
      6 O                    -0.162132
      7 O                     0.130668
      8 O                    -0.102021
      9 C                    -0.141223
     10 C                    -0.362911
     11 C                    -0.305326
     12 C                    -0.276991
     13 C                    -0.262378
     14 C                     0.304189
     15 H                     0.164830
     16 H                     0.228667
     17 H                     0.153221
     18 H                     0.187344
     19 H                     0.172141
     20 H                     0.074685
     21 H                     0.188662
     22 H                     0.180549
     23 C                    -0.490719
     24 H                     0.176989
     25 H                     0.188068
     26 H                     0.144988
     27 H                     0.201666
     28 C                     0.388360
     29 C                     0.671004
     30 C                    -0.743862
     31 C                    -0.860435
     32 O                     0.119951
     33 O                    -0.103569
     34 O                     0.128159
     35 O                    -0.128096
     36 C                    -0.331278
     37 C                    -0.137826
     38 C                    -0.448652
     39 C                    -0.302062
     40 C                    -0.399276
     41 C                     0.463386
     42 H                     0.219707
     43 H                     0.169691
     44 H                     0.156683
     45 H                     0.195345
     46 H                     0.076618
     47 H                     0.173183
     48 H                     0.178919
     49 H                     0.184586
     50 C                    -0.410850
     51 H                     0.213739
     52 H                     0.214467
     53 H                     0.130721
     54 H                     0.187808
  ----------------------------------------
  Sum of atomic charges =    -0.000000

                    Cartesian Multipole Moments
 -----------------------------------------------------------------
    Charge (ESU x 10^10)
                -0.0000
    Dipole Moment (Debye)
         X       0.2026      Y       0.4154      Z      -0.7496
       Tot       0.8806
    Quadrupole Moments (Debye-Ang)
        XX    -180.7468     XY      -8.4189     YY    -146.2975
        XZ      16.3395     YZ      14.8668     ZZ    -181.8338

 Total job time:  1859.27s(wall), 3702.16s(cpu)
        *  Thank you very much for using Q-Chem.  Have a nice day.  *
