 Q-Chem 5.0, Q-Chem, Inc., Pleasanton, CA (2017)
 Q-Chem 5.0.1 for Intel X86 EM64T Linux

User input:
--------------------------------------------------------------
$molecule
0  1
--
0  1
C        -0.54444000        -0.68370000        -0.06689000
C        -0.55709000        +0.71878000        +0.05493000
C        +0.74969000        -1.43776000        -0.09374000
C        +0.72843000        +1.48436000        +0.06598000
O        +1.53645000        -1.09176000        +0.94813000
O        +1.04702000        -2.28405000        -0.90088000
O        +1.53784000        +1.08301000        -0.93877000
O        +1.01035000        +2.37097000        +0.83478000
C        +2.83449000        +1.70121000        -0.99358000
C        +2.82316000        -1.73208000        +1.00475000
C        -1.74320000        -1.41616000        -0.12552000
C        -2.93952000        -0.70056000        -0.05285000
C        -2.95313000        +0.68255000        +0.06934000
C        -1.77161000        +1.42404000        +0.12810000
H        +2.73835000        +2.77989000        -1.12464000
H        +2.70778000        -2.81319000        +1.09555000
H        -3.90354000        +1.20325000        +0.11710000
H        +3.38998000        +1.50093000        -0.07544000
H        +3.33184000        +1.25269000        -1.85067000
H        +3.31095000        -1.32281000        +1.88650000
H        +3.39889000        -1.50934000        +0.10459000
H        -3.87892000        -1.24211000        -0.08988000
C        -1.83960000        +2.92746000        +0.24839000
C        -1.78103000        -2.92226000        -0.24590000
H        -1.39752000        -3.25223000        -1.21323000
H        -2.80572000        -3.28175000        -0.13627000
H        -1.16958000        -3.40777000        +0.51926000
H        -1.24214000        +3.42352000        -0.52065000
H        -1.45503000        +3.26427000        +1.21284000
H        -2.87211000        +3.26623000        +0.14638000
--
0  1
C        -0.51416000        -1.06734000        +4.31625000
C        -0.52681000        +0.33514000        +4.43807000
C        +0.77997000        -1.82140000        +4.28940000
C        +0.75871000        +1.10072000        +4.44912000
O        +1.56673000        -1.47540000        +5.33127000
O        +1.07730000        -2.66769000        +3.48226000
O        +1.56812000        +0.69937000        +3.44437000
O        +1.04063000        +1.98733000        +5.21792000
C        +2.86477000        +1.31757000        +3.38956000
C        +2.85344000        -2.11572000        +5.38789000
C        -1.71292000        -1.79980000        +4.25762000
C        -2.90924000        -1.08420000        +4.33029000
C        -2.92285000        +0.29891000        +4.45248000
C        -1.74133000        +1.04040000        +4.51124000
H        +2.76863000        +2.39625000        +3.25850000
H        +2.73806000        -3.19683000        +5.47869000
H        -3.87326000        +0.81961000        +4.50024000
H        +3.42026000        +1.11729000        +4.30770000
H        +3.36212000        +0.86905000        +2.53247000
H        +3.34123000        -1.70645000        +6.26964000
H        +3.42917000        -1.89298000        +4.48773000
H        -3.84864000        -1.62575000        +4.29326000
C        -1.80932000        +2.54382000        +4.63153000
C        -1.75075000        -3.30590000        +4.13724000
H        -1.36724000        -3.63587000        +3.16991000
H        -2.77544000        -3.66539000        +4.24687000
H        -1.13930000        -3.79141000        +4.90240000
H        -1.21186000        +3.03988000        +3.86249000
H        -1.42475000        +2.88063000        +5.59598000
H        -2.84183000        +2.88259000        +4.52952000
$end

$rem
JOBTYPE                   SP
METHOD                    B3LYP
DFT_D                     d3_op
BASIS                     6-311++G(d,p)
SYMMETRY                  False
THRESH                    12
SCF_CONVERGENCE           8
MAX_SUB_FILE_NUM          128
MEM_STATIC                400
MEM_TOTAL                 4000
$end
--------------------------------------------------------------

             Standard Nuclear Orientation (Angstroms)
    I     Atom           X                Y                Z
 ----------------------------------------------------------------
    1      C      -2.1172564018     0.4796038394     0.9622634554
    2      C      -2.2818636627     0.5401161943    -0.4345876425
    3      C      -1.9672340032    -0.8382088572     1.6586561891
    4      C      -2.4022413491    -0.7196082293    -1.2329610505
    5      O      -1.0025853263    -1.5868405335     1.0814179905
    6      O      -2.5809203277    -1.1827867450     2.6388306873
    7      O      -3.2899918195    -1.5666447449    -0.6671190437
    8      O      -1.8235972116    -0.9534834872    -2.2659581194
    9      C      -3.4448442525    -2.8438664034    -1.3083695077
   10      C      -0.7939731341    -2.8914904255     1.6499316345
   11      C      -2.0485700917     1.6524911937     1.7346481465
   12      C      -2.1441497590     2.8725093332     1.0631080526
   13      C      -2.3044947443     2.9333717639    -0.3148230598
   14      C      -2.3751971903     1.7780017066    -1.0954451597
   15      H      -3.7931076436    -2.7166868304    -2.3342876975
   16      H      -0.4885295874    -2.8084246771     2.6940390705
   17      H      -2.3805233476     3.9008292251    -0.7995233670
   18      H      -2.4951138450    -3.3820021548    -1.3175534174
   19      H      -4.1842110608    -3.3768634960    -0.7147523727
   20      H      -0.0044029127    -3.3434417218     1.0539090084
   21      H      -1.7098352298    -3.4824604981     1.5923368347
   22      H      -2.0881555241     3.7928962941     1.6348356723
   23      C      -2.5627358193     1.8969923729    -2.5887751650
   24      C      -1.8625238101     1.6391446466     3.2344709074
   25      H      -2.7359041515     1.2208822314     3.7384062021
   26      H      -1.7013167576     2.6542839189     3.6015484702
   27      H      -1.0038675046     1.0321075314     3.5332621021
   28      H      -3.4050905394     1.2963635352    -2.9411102635
   29      H      -1.6794322007     1.5479590471    -3.1267801077
   30      H      -2.7501273907     2.9368735563    -2.8622337111
   31      C       2.2526907251     0.5482713871     0.4534809242
   32      C       2.0880834642     0.6087837419    -0.9433701738
   33      C       2.4027131237    -0.7695413096     1.1498736578
   34      C       1.9677057777    -0.6509406816    -1.7417435818
   35      O       3.3673618006    -1.5181729858     0.5726354592
   36      O       1.7890267991    -1.1141191973     2.1300481561
   37      O       1.0799553073    -1.4979771972    -1.1759015749
   38      O       2.5463499152    -0.8848159395    -2.7747406507
   39      C       0.9251028744    -2.7751988557    -1.8171520389
   40      C       3.5759739928    -2.8228228778     1.1411491033
   41      C       2.3213770351     1.7211587413     1.2258656153
   42      C       2.2257973679     2.9411768809     0.5543255214
   43      C       2.0654523826     3.0020393116    -0.8236055910
   44      C       1.9947499365     1.8466692542    -1.6042276909
   45      H       0.5768394832    -2.6480192828    -2.8430702287
   46      H       3.8814175394    -2.7397571295     2.1852565392
   47      H       1.9894237792     3.9694967728    -1.3083058983
   48      H       1.8748332819    -3.3133346072    -1.8263359487
   49      H       0.1857360660    -3.3081959483    -1.2235349039
   50      H       4.3655442141    -3.2747741741     0.5451264772
   51      H       2.6601118970    -3.4137929504     1.0835543035
   52      H       2.2817916027     3.8615638418     1.1260531411
   53      C       1.8072113076     1.9656599205    -3.0975576962
   54      C       2.5074233167     1.7078121943     2.7256883762
   55      H       1.6340429754     1.2895497791     3.2296236709
   56      H       2.6686303692     2.7229514666     3.0927659390
   57      H       3.3660796222     1.1007750790     3.0244795708
   58      H       0.9648565874     1.3650310829    -3.4498927947
   59      H       2.6905149262     1.6166265948    -3.6355626389
   60      H       1.6198197362     3.0055411039    -3.3710162423
 ----------------------------------------------------------------

   15   -1533.7639449093      7.93E-09 Convergence criterion met
 Total energy in the final basis set = -1533.76394491

                    Orbital Energies (a.u.)
 --------------------------------------------------------------

 Alpha MOs
 -- Occupied --
-19.176 -19.175 -19.166 -19.165 -19.118 -19.118 -19.112 -19.111
-10.310 -10.310 -10.304 -10.303 -10.233 -10.233 -10.224 -10.223
-10.202 -10.202 -10.201 -10.201 -10.198 -10.198 -10.197 -10.197
-10.184 -10.183 -10.183 -10.183 -10.170 -10.170 -10.166 -10.166
 -1.119  -1.118  -1.108  -1.107  -1.030  -1.030  -1.023  -1.021
 -0.882  -0.881  -0.804  -0.803  -0.792  -0.791  -0.744  -0.743
 -0.731  -0.730  -0.722  -0.720  -0.672  -0.671  -0.646  -0.645
 -0.617  -0.616  -0.574  -0.573  -0.562  -0.559  -0.534  -0.533
 -0.515  -0.514  -0.510  -0.510  -0.490  -0.489  -0.484  -0.483
 -0.480  -0.475  -0.473  -0.468  -0.467  -0.464  -0.442  -0.438
 -0.435  -0.429  -0.428  -0.424  -0.420  -0.414  -0.413  -0.412
 -0.409  -0.408  -0.403  -0.402  -0.392  -0.391  -0.385  -0.384
 -0.378  -0.376  -0.370  -0.367  -0.359  -0.358  -0.357  -0.355
 -0.351  -0.350  -0.319  -0.317  -0.307  -0.305  -0.292  -0.292
 -0.287  -0.284  -0.265  -0.260  -0.252  -0.246

          Ground-State Mulliken Net Atomic Charges

     Atom                 Charge (a.u.)
  ----------------------------------------
      1 C                     0.151727
      2 C                     0.297913
      3 C                    -0.551500
      4 C                    -0.857781
      5 O                     0.163593
      6 O                    -0.129035
      7 O                     0.125354
      8 O                    -0.090245
      9 C                    -0.141367
     10 C                    -0.328013
     11 C                     0.425473
     12 C                    -0.264844
     13 C                    -0.266093
     14 C                     0.257835
     15 H                     0.165480
     16 H                     0.217820
     17 H                     0.163511
     18 H                     0.181865
     19 H                     0.172750
     20 H                     0.074448
     21 H                     0.192539
     22 H                     0.163356
     23 C                    -0.576483
     24 C                    -0.595842
     25 H                     0.213274
     26 H                     0.124521
     27 H                     0.211065
     28 H                     0.174735
     29 H                     0.188402
     30 H                     0.140040
     31 C                     0.276122
     32 C                     0.181238
     33 C                    -0.901797
     34 C                    -0.546278
     35 O                     0.139636
     36 O                    -0.081608
     37 O                     0.133842
     38 O                    -0.127866
     39 C                    -0.329803
     40 C                    -0.126354
     41 C                     0.253315
     42 C                    -0.262083
     43 C                    -0.262628
     44 C                     0.436357
     45 H                     0.220233
     46 H                     0.164139
     47 H                     0.163497
     48 H                     0.196117
     49 H                     0.072902
     50 H                     0.173154
     51 H                     0.180353
     52 H                     0.163654
     53 C                    -0.594403
     54 C                    -0.577456
     55 H                     0.189580
     56 H                     0.141142
     57 H                     0.174584
     58 H                     0.210247
     59 H                     0.212484
     60 H                     0.123184
  ----------------------------------------
  Sum of atomic charges =    -0.000000

                    Cartesian Multipole Moments
 -----------------------------------------------------------------
    Charge (ESU x 10^10)
                -0.0000
    Dipole Moment (Debye)
         X       0.2041      Y      -0.0277      Z       0.1720
       Tot       0.2683
    Quadrupole Moments (Debye-Ang)
        XX    -193.2223     XY      -1.6079     YY    -155.6624
        XZ      17.6299     YZ       1.8101     ZZ    -198.6928

 Total job time:  2581.85s(wall), 5140.63s(cpu)
        *  Thank you very much for using Q-Chem.  Have a nice day.  *
