 Q-Chem 5.0, Q-Chem, Inc., Pleasanton, CA (2017)
 Q-Chem 5.0.1 for Intel X86 EM64T Linux

User input:
--------------------------------------------------------------
$molecule
0 1
C -0.08846163 0.81634174 0.63601901
C 0.68776002 -0.53999962 0.60330942
C -1.36915082 0.85466030 -0.17038682
C -0.14409372 -1.73383529 0.16038306
O -2.14048374 1.88786425 0.24001374
O -1.66773034 0.12848500 -1.08418485
O -1.20383860 -1.85900593 0.99835125
O 0.09210173 -2.51489578 -0.72232871
C -2.15010064 -2.88718001 0.65576575
C -3.36169867 2.09084383 -0.49663977
C 0.95625976 1.75415414 -0.04041133
C 2.14946814 1.97103333 0.91439985
C 2.89717673 0.61661485 0.75905073
C 1.96985562 -0.15673369 -0.22142825
O 1.49128838 0.91850657 -1.06328934
H -0.31893993 1.13991348 1.65025552
H 0.97998850 -0.78647307 1.62780059
H -1.66755340 -3.86543555 0.64192802
H -3.14589459 2.28035190 -1.54917614
H 2.76058324 2.80702204 0.57136511
H 1.83098296 2.18154276 1.93743517
H 3.87549682 0.75742661 0.29623542
H 3.04297478 0.08809593 1.70302069
H -2.91526075 -2.84804071 1.42841437
H -2.58127485 -2.68103353 -0.32510750
H -3.83621805 2.95598373 -0.03897087
H -4.00427700 1.21281386 -0.41567681
H 0.53201970 2.65616761 -0.47705169
C 2.66280698 -1.21109048 -1.05377692
H 3.53681302 -0.76593642 -1.53553017
H 2.99787360 -2.03648442 -0.42059363
H 1.99433878 -1.61602674 -1.80880899
$end

$rem
sym_ignore      true
jobtype         opt
method          b3lyp
basis           6-311++G(d,p)
dft_d           d3_op
mem_total       62000
MEM_STATIC      4000
ao2mo_disk      350000
max_scf_cycles  200
geom_opt_max_cycles 1000
geom_opt_tol_displacement 1
GEOM_OPT_TOL_GRADIENT       1
GEOM_OPT_TOL_ENERGY         1
$end

--------------------------------------------------------------

   15    -805.1941034675      3.84E-09 Convergence criterion met
 Total energy in the final basis set = -805.19410347
   10    -805.1941023890      8.44E-09 Convergence criterion met
 Total energy in the final basis set = -805.19410239
   10    -805.1941107254      6.73E-09 Convergence criterion met
 Total energy in the final basis set = -805.19411073
   10    -805.1941078449      8.87E-09 Convergence criterion met
 Total energy in the final basis set = -805.19410784
    9    -805.1941110418      7.56E-09 Convergence criterion met
 Total energy in the final basis set = -805.19411104
   11    -805.1941062199      3.66E-09 Convergence criterion met
 Total energy in the final basis set = -805.19410622
   11    -805.1941127518      2.70E-09 Convergence criterion met
 Total energy in the final basis set = -805.19411275
    9    -805.1941124160      2.71E-09 Convergence criterion met
    7    -805.1941129258      5.02E-09 Convergence criterion met
 Total energy in the final basis set = -805.19411293
    7    -805.1941128344      5.60E-09 Convergence criterion met
 Total energy in the final basis set = -805.19411283
    7    -805.1941129351      6.19E-09 Convergence criterion met
 Total energy in the final basis set = -805.19411294
    7    -805.1941128224      6.93E-09 Convergence criterion met
 Total energy in the final basis set = -805.19411282
    6    -805.1941128840      8.36E-09 Convergence criterion met
 Total energy in the final basis set = -805.19411288
    4    -805.1941128865      2.31E-09 Convergence criterion met
 Total energy in the final basis set = -805.19411289
 Final energy is   -805.194112886524
 **  OPTIMIZATION CONVERGED  **
 Total job time:  997.09s(wall), 16646.04s(cpu)
        *  Thank you very much for using Q-Chem.  Have a nice day.  *

User input: 2 of 2

r0178.ten.osc.edu 10.25.155
Q-Chem Developer Version! Running on 10.25.155.*
                  Welcome to Q-Chem
     A Quantum Leap Into The Future Of Chemistry

 Q-Chem 5.0, Q-Chem, Inc., Pleasanton, CA (2017)

 Yihan Shao,  Zhengting Gan,  E. Epifanovsky,  A. T. B. Gilbert,  M. Wormit,
 J. Kussmann,  A. W. Lange,  A. Behn,  Jia Deng,  Xintian Feng,  D. Ghosh,
 M. Goldey,  P. R. Horn,  L. D. Jacobson,  I. Kaliman,  T. Kus,  A. Landau,
 Jie Liu,  E. I. Proynov,  R. M. Richard,  R. P. Steele,  E. J. Sundstrom,
 H. L. Woodcock III,  P. M. Zimmerman,  D. Zuev,  B. Albrecht,  E. Alguire,
 S. A. Baeppler,  Z. Benda,  Y. A. Bernard,  E. J. Berquist,  K. B. Bravaya,
 D. Casanova,  Chun-Min Chang,  Yunqing Chen,  A. Chien,  K. D. Closser,
 M. P. Coons,  S. Dasgupta,  M. Diedenhofen,  Hainam Do,  R. G. Edgar,
 Po-Tung Fang,  S. Fatehi,  Qingguo Feng,  Qinghui Ge,  A. Ghysels,
 J. Gomes,  J. Gonthier,  A. Gunina,  M. W. D. Hanson-Heine,
 P. H. P. Harbach,  A. W. Hauser,  J. E. Herr,  E. G. Hohenstein,
 Z. C. Holden,  Kerwin Hui,  T.-C. Jagau,  Hyunjun Ji,  B. Kaduk,
 K. Khistyaev,  Jaehoon Kim,  P. Klunzinger,  K. Koh,  D. Kosenkov,
 T. Kowalczyk,  C. M. Krauter,  A. Kunitsa,  Ka Un Lao,  A. Laurent,
 K. V. Lawler,  Joonho Lee,  D. Lefrancois,  S. Lehtola,  D. S. Levine,
 Yi-Pei Li,  You-Sheng Lin,  Fenglai Liu,  E. Livshits,  A. Luenser,
 P. Manohar,  E. Mansoor,  S. F. Manzer,  Shan-Ping Mao,  Yuezhi Mao,
 N. Mardirossian,  A. V. Marenich,  L. A. Martinez-Martinez,  S. A. Maurer,
 N. J. Mayhall,  S. C. McKenzie,  J.-M. Mewes,  A. F. Morrison,  K. Nanda,
 T. S. Nguyen-Beck,  R. Olivares-Amaya,  J. A. Parkhill,  T. M. Perrine,
 F. Plasser,  S. Prager,  A. Prociuk,  D. R. Rehn,  F. Rob,  M. Schneider,
 N. Sergueev,  S. M. Sharada,  S. Sharma,  D. W. Small,  T. Stauch,
 T. Stein,  Yu-Chuan Su,  A. J. W. Thom,  T. Tsuchimochi,  L. Vogt,
 O. Vydrov,  M. A. Watson,  J. Wenzel,  M. de Wergifosse,  T. A. Wesolowski,
 A. White,  J. Witte,  A. Yamada,  Jun Yang,  K. Yao,  S. Yeganeh,
 S. R. Yost,  Zhi-Qiang You,  A. Zech,  Igor Ying Zhang,  Xing Zhang,
 Yan Zhao,  Ying Zhu,  B. R. Brooks,  G. K. L. Chan,  C. J. Cramer,
 M. S. Gordon,  W. J. Hehre,  A. Klamt,  M. W. Schmidt,  C. D. Sherrill,
 D. G. Truhlar,  A. Aspuru-Guzik,  R. Baer,  A. T. Bell,  N. A. Besley,
 Jeng-Da Chai,  A. Dreuw,  B. D. Dunietz,  T. R. Furlani,  Chao-Ping Hsu,
 Yousung Jung,  Jing Kong,  D. S. Lambrecht,  WanZhen Liang,  C. Ochsenfeld,
 V. A. Rassolov,  L. V. Slipchenko,  J. E. Subotnik,  T. Van Voorhis,
 J. M. Herbert,  A. I. Krylov,  P. M. W. Gill,  M. Head-Gordon

 Contributors to earlier versions of Q-Chem not listed above:
 R. D. Adamson,  B. Austin,  J. Baker,  G. J. O. Beran,  K. Brandhorst,
 S. T. Brown,  E. F. C. Byrd,  A. K. Chakraborty,  C.-L. Cheng,
 Siu Hung Chien,  D. M. Chipman,  D. L. Crittenden,  H. Dachsel,
 R. A. DiStasio Jr.,  R. J. Doerksen,  A. D. Dutoi,  L. Fusti-Molnar,
 W. A. Goddard III,  A. Golubeva-Zadorozhnaya,  S. R. Gwaltney,  G. Hawkins,
 A. Heyden,  S. Hirata,  G. Kedziora,  F. J. Keil,  C. Kelley,  Jihan Kim,
 R. A. King,  R. Z. Khaliullin,  P. P. Korambath,  W. Kurlancheek,
 A. M. Lee,  M. S. Lee,  S. V. Levchenko,  Ching Yeh Lin,  D. Liotard,
 R. C. Lochan,  I. Lotan,  P. E. Maslen,  N. Nair,  D. P. O'Neill,
 D. Neuhauser,  E. Neuscamman,  C. M. Oana,  R. Olson,  B. Peters,
 R. Peverati,  P. A. Pieniazek,  Y. M. Rhee,  J. Ritchie,  M. A. Rohrdanz,
 E. Rosta,  N. J. Russ,  H. F. Schaefer III,  N. E. Schultz,  N. Shenvi,
 A. C. Simmonett,  A. Sodt,  D. Stuck,  K. S. Thanthiriwatte,  V. Vanovschi,
 Tao Wang,  A. Warshel,  C. F. Williams,  Q. Wu,  X. Xu,  W. Zhang

 Please cite Q-Chem as follows:
 Y. Shao et al., Mol. Phys. 113, 184-215 (2015)
 DOI: 10.1080/00268976.2014.952696

 Q-Chem 5.0.1 for Intel X86 EM64T Linux

 Parts of Q-Chem use Armadillo 5.200.1 (Boston Tea Smuggler).
 http://arma.sourceforge.net/

 Q-Chem begins on Sat Oct 14 17:32:46 2017

Host: r0178.ten.osc.edu
0

     Scratch files written to /tmp/pbstmp.1310453/00//
Processing $rem in /users/PAS0291/osu6415/.qchemrc.
molden_format             true
The previous job contains 0 fragments, simply inherited here

Checking the input file for inconsistencies... 	...done.

--------------------------------------------------------------
User input:
--------------------------------------------------------------

$molecule
read
$end

$rem
sym_ignore      true
scf_guess       read
jobtype         freq
method          b3lyp
basis           6-311++G(d,p)
dft_d           d3_op
mem_total       62000
MEM_STATIC      4000
ao2mo_disk      350000
max_scf_cycles  200
$end
--------------------------------------------------------------

             Standard Nuclear Orientation (Angstroms)
    I     Atom           X                Y                Z
 ----------------------------------------------------------------
    1      C      -0.0929166014     0.8127546283     0.6411147217
    2      C       0.6873887405    -0.5407452057     0.6038670988
    3      C      -1.3701905169     0.8519993880    -0.1707502478
    4      C      -0.1422954963    -1.7381252108     0.1669012846
    5      O      -2.1333521248     1.8973427863     0.2234493556
    6      O      -1.6735873146     0.1151513058    -1.0743962006
    7      O      -1.2007698610    -1.8622751587     1.0065529004
    8      O       0.0969071362    -2.5240749273    -0.7107372153
    9      C      -2.1453265959    -2.8936943151     0.6694144111
   10      C      -3.3512832217     2.1007035179    -0.5184367525
   11      C       0.9514178687     1.7558972899    -0.0284794486
   12      C       2.1455602944     1.9647509284     0.9277240694
   13      C       2.8976899120     0.6149227763     0.7543347456
   14      C       1.9657377299    -0.1532767582    -0.2250305792
   15      O       1.4843349284     0.9275050029    -1.0584698490
   16      H      -0.3275102745     1.1318290238     1.6558792357
   17      H       0.9848454276    -0.7860106104     1.6272517105
   18      H      -1.6568933450    -3.8685142389     0.6389910771
   19      H      -3.1313100465     2.2803758727    -1.5718384027
   20      H       2.7536864261     2.8078150021     0.5969545696
   21      H       1.8266670329     2.1597232572     1.9537342097
   22      H       3.8708423205     0.7641733986     0.2832972614
   23      H       3.0549489831     0.0790264757     1.6923731232
   24      H      -2.8989891865    -2.8664840203     1.4538349461
   25      H      -2.5929030678    -2.6807073952    -0.3026816389
   26      H      -3.8222012090     2.9724538736    -0.0696155311
   27      H      -3.9990265069     1.2270711713    -0.4318067251
   28      H       0.5269172892     2.6614944855    -0.4571574187
   29      C       2.6542678756    -1.2032452260    -1.0663424134
   30      H       3.5262498869    -0.7559102855    -1.5497751562
   31      H       2.9915546895    -2.0322324492    -0.4391833082
   32      H       1.9823508573    -1.6040436928    -1.8205879233
 ----------------------------------------------------------------

    2    -805.1941128854      1.07E-09 Convergence criterion met
 Total energy in the final basis set = -805.19411289

                    Orbital Energies (a.u.)
 --------------------------------------------------------------

 Alpha MOs
 -- Occupied --
-19.177 -19.165 -19.128 -19.119 -19.110 -10.308 -10.303 -10.238
-10.237 -10.232 -10.222 -10.205 -10.203 -10.181 -10.177 -10.154
 -1.118  -1.107  -1.062  -1.031  -1.022  -0.831  -0.793  -0.780
 -0.748  -0.723  -0.686  -0.650  -0.603  -0.594  -0.569  -0.552
 -0.532  -0.511  -0.503  -0.491  -0.489  -0.482  -0.477  -0.471
 -0.458  -0.436  -0.425  -0.420  -0.416  -0.407  -0.394  -0.377
 -0.373  -0.369  -0.365  -0.359  -0.359  -0.349  -0.335  -0.328
 -0.319  -0.307  -0.290  -0.275  -0.271

          Ground-State Mulliken Net Atomic Charges

     Atom                 Charge (a.u.)
  ----------------------------------------
      1 C                    -0.011948
      2 C                     0.316202
      3 C                    -0.866914
      4 C                    -0.444886
      5 O                    -0.019395
      6 O                    -0.187639
      7 O                    -0.021413
      8 O                    -0.190044
      9 C                    -0.179193
     10 C                    -0.234712
     11 C                     0.465966
     12 C                    -0.447238
     13 C                    -0.486293
     14 C                    -0.269357
     15 O                    -0.051087
     16 H                     0.287226
     17 H                     0.252447
     18 H                     0.165165
     19 H                     0.185244
     20 H                     0.184269
     21 H                     0.122321
     22 H                     0.173936
     23 H                     0.143378
     24 H                     0.149350
     25 H                     0.188005
     26 H                     0.150597
     27 H                     0.171167
     28 H                     0.278783
     29 C                    -0.335086
     30 H                     0.143138
     31 H                     0.159126
     32 H                     0.208881
  ----------------------------------------
  Sum of atomic charges =     0.000000

                    Cartesian Multipole Moments
 -----------------------------------------------------------------
    Charge (ESU x 10^10)
                 0.0000
    Dipole Moment (Debye)
         X      -0.8918      Y       1.9562      Z       3.3748
       Tot       4.0014
    Quadrupole Moments (Debye-Ang)
        XX     -83.0079     XY      -0.5200     YY     -91.8847
        XZ       2.6232     YZ      -4.4329     ZZ     -99.8922

 Frequency:        35.36                  40.39                  82.88
 Force Cnst:      0.0030                 0.0048                 0.0165
 Red. Mass:       4.0678                 4.9894                 4.0682
 IR Intens:        0.256                  0.424                  5.160
 Frequency:        90.36                 122.54                 133.66
 Force Cnst:      0.0156                 0.0184                 0.0156
 Red. Mass:       3.2429                 2.0752                 1.4801
 IR Intens:        0.036                  0.740                  0.736
 Frequency:       148.36                 158.40                 192.11
 Force Cnst:      0.0444                 0.0181                 0.0866
 Red. Mass:       3.4233                 1.2222                 3.9816
 IR Intens:        1.717                  0.177                  0.466
 Frequency:       214.35                 235.71                 263.05
 Force Cnst:      0.1219                 0.0888                 0.0610
 Red. Mass:       4.5038                 2.7112                 1.4957
 IR Intens:        1.996                  4.050                  1.942
 Frequency:       271.40                 298.10                 318.40
 Force Cnst:      0.1412                 0.2348                 0.1588
 Red. Mass:       3.2531                 4.4851                 2.6590
 IR Intens:        3.979                  3.338                  8.709
 Frequency:       329.93                 345.06                 359.07
 Force Cnst:      0.1731                 0.3057                 0.2022
 Red. Mass:       2.6990                 4.3575                 2.6621
 IR Intens:        0.039                 11.715                  5.006
 Frequency:       379.92                 480.04                 576.57
 Force Cnst:      0.4184                 0.5330                 0.7524
 Red. Mass:       4.9197                 3.9256                 3.8413
 IR Intens:        7.876                 12.980                 17.911
 Frequency:       605.97                 645.26                 664.01
 Force Cnst:      1.1312                 1.1856                 1.1139
 Red. Mass:       5.2286                 4.8328                 4.2880
 IR Intens:       11.436                  4.967                  0.178
 Frequency:       694.56                 750.75                 802.36
 Force Cnst:      1.7124                 1.8063                 1.5069
 Red. Mass:       6.0248                 5.4395                 3.9728
 IR Intens:        4.328                  4.630                  6.437
 Frequency:       817.76                 831.25                 842.35
 Force Cnst:      1.0662                 1.6147                 1.4370
 Red. Mass:       2.7060                 3.9662                 3.4374
 IR Intens:        9.842                 10.941                 11.890
 Frequency:       860.19                 898.89                 905.59
 Force Cnst:      1.1929                 1.1481                 1.3407
 Red. Mass:       2.7362                 2.4116                 2.7747
 IR Intens:       10.075                  7.430                  3.880
 Frequency:       916.98                 934.55                 968.38
 Force Cnst:      1.2410                 1.6109                 2.4200
 Red. Mass:       2.5049                 3.1305                 4.3799
 IR Intens:       10.578                  5.681                  2.019
 Frequency:       974.64                 993.95                1011.19
 Force Cnst:      1.9864                 1.7295                 2.4598
 Red. Mass:       3.5492                 2.9712                 4.0830
 IR Intens:       15.826                 14.211                 42.761
 Frequency:      1039.78                1064.32                1076.23
 Force Cnst:      1.1939                 2.4749                 1.7745
 Red. Mass:       1.8744                 3.7081                 2.6003
 IR Intens:       25.180                 60.450                 24.144
 Frequency:      1123.61                1139.38                1171.32
 Force Cnst:      1.3728                 1.2488                 1.0809
 Red. Mass:       1.8455                 1.6327                 1.3372
 IR Intens:       26.281                 13.494                 20.044
 Frequency:      1171.68                1181.73                1190.89
 Force Cnst:      1.0420                 1.9517                 1.6586
 Red. Mass:       1.2882                 2.3720                 1.9850
 IR Intens:        5.079                211.152                267.025
 Frequency:      1202.62                1205.55                1211.35
 Force Cnst:      1.2219                 1.5057                 1.4404
 Red. Mass:       1.4340                 1.7584                 1.6661
 IR Intens:        1.879                 37.110                 51.659
 Frequency:      1214.68                1219.16                1251.51
 Force Cnst:      1.6087                 1.5211                 1.4128
 Red. Mass:       1.8506                 1.7369                 1.5310
 IR Intens:      150.825                 81.069                 12.038
 Frequency:      1255.26                1291.28                1315.20
 Force Cnst:      1.1759                 1.8450                 1.4676
 Red. Mass:       1.2667                 1.8780                 1.4400
 IR Intens:        2.908                  9.794                 20.318
 Frequency:      1327.08                1337.61                1371.92
 Force Cnst:      1.6708                 1.9755                 1.7818
 Red. Mass:       1.6102                 1.8740                 1.6067
 IR Intens:       12.994                  7.836                 98.556
 Frequency:      1390.54                1431.77                1466.45
 Force Cnst:      1.8176                 1.6152                 1.5059
 Red. Mass:       1.5954                 1.3373                 1.1885
 IR Intens:       30.577                 15.380                 13.772
 Frequency:      1470.36                1482.97                1484.83
 Force Cnst:      1.5246                 1.3541                 1.3583
 Red. Mass:       1.1969                 1.0451                 1.0457
 IR Intens:       14.688                  8.442                 10.590
 Frequency:      1487.26                1494.04                1498.24
 Force Cnst:      1.3925                 1.3939                 1.3845
 Red. Mass:       1.0685                 1.0599                 1.0468
 IR Intens:        1.374                  3.567                 16.995
 Frequency:      1499.29                1499.57                1512.87
 Force Cnst:      1.3908                 1.3885                 1.4831
 Red. Mass:       1.0501                 1.0480                 1.0998
 IR Intens:        2.465                 10.886                  6.363
 Frequency:      1795.20                1809.71                3044.72
 Force Cnst:     21.8042                22.0813                 5.6837
 Red. Mass:      11.4832                11.4435                 1.0406
 IR Intens:       80.324                362.095                 18.061
 Frequency:      3048.77                3050.22                3055.09
 Force Cnst:      5.6368                 5.6442                 5.8489
 Red. Mass:       1.0293                 1.0296                 1.0636
 IR Intens:       34.552                 36.605                 20.764
 Frequency:      3060.17                3066.11                3093.42
 Force Cnst:      5.9321                 5.8861                 6.2412
 Red. Mass:       1.0751                 1.0627                 1.1070
 IR Intens:       15.894                 37.260                  1.117
 Frequency:      3104.11                3108.38                3114.89
 Force Cnst:      6.2546                 6.2223                 6.2856
 Red. Mass:       1.1017                 1.0930                 1.0996
 IR Intens:        8.576                 13.852                 44.631
 Frequency:      3123.16                3123.91                3129.41
 Force Cnst:      6.3624                 6.3662                 6.2894
 Red. Mass:       1.1071                 1.1072                 1.0900
 IR Intens:       19.802                 14.732                 23.081
 Frequency:      3152.24                3157.57                3163.70
 Force Cnst:      6.4782                 6.4990                 6.4728
 Red. Mass:       1.1065                 1.1063                 1.0976
 IR Intens:       14.588                 14.420                  3.041

 STANDARD THERMODYNAMIC QUANTITIES AT   298.15 K  AND     1.00 ATM

   This Molecule has  0 Imaginary Frequencies
   Zero point vibrational energy:      166.510 kcal/mol

   Atom    1 Element C  Has Mass   12.00000
   Atom    2 Element C  Has Mass   12.00000
   Atom    3 Element C  Has Mass   12.00000
   Atom    4 Element C  Has Mass   12.00000
   Atom    5 Element O  Has Mass   15.99491
   Atom    6 Element O  Has Mass   15.99491
   Atom    7 Element O  Has Mass   15.99491
   Atom    8 Element O  Has Mass   15.99491
   Atom    9 Element C  Has Mass   12.00000
   Atom   10 Element C  Has Mass   12.00000
   Atom   11 Element C  Has Mass   12.00000
   Atom   12 Element C  Has Mass   12.00000
   Atom   13 Element C  Has Mass   12.00000
   Atom   14 Element C  Has Mass   12.00000
   Atom   15 Element O  Has Mass   15.99491
   Atom   16 Element H  Has Mass    1.00783
   Atom   17 Element H  Has Mass    1.00783
   Atom   18 Element H  Has Mass    1.00783
   Atom   19 Element H  Has Mass    1.00783
   Atom   20 Element H  Has Mass    1.00783
   Atom   21 Element H  Has Mass    1.00783
   Atom   22 Element H  Has Mass    1.00783
   Atom   23 Element H  Has Mass    1.00783
   Atom   24 Element H  Has Mass    1.00783
   Atom   25 Element H  Has Mass    1.00783
   Atom   26 Element H  Has Mass    1.00783
   Atom   27 Element H  Has Mass    1.00783
   Atom   28 Element H  Has Mass    1.00783
   Atom   29 Element C  Has Mass   12.00000
   Atom   30 Element H  Has Mass    1.00783
   Atom   31 Element H  Has Mass    1.00783
   Atom   32 Element H  Has Mass    1.00783
   Molecular Mass:   228.099830 amu
   Principal axes and moments of inertia in amu*Bohr^2:
                             1           2           3
    Eigenvalues --     2696.33693  3390.90741  5120.08440
          X               0.99834    -0.05759    -0.00155
          Y               0.05761     0.99819     0.01716
          Z               0.00056    -0.01722     0.99985
   Rotational Symmetry Number is   1
   The Molecule is an Asymmetric Top
   Translational Enthalpy:        0.889 kcal/mol
   Rotational Enthalpy:           0.889 kcal/mol
   Vibrational Enthalpy:        174.581 kcal/mol
   gas constant (RT):             0.592 kcal/mol
   Translational Entropy:        42.176  cal/mol.K
   Rotational Entropy:           32.215  cal/mol.K
   Vibrational Entropy:          51.910  cal/mol.K

   Total Enthalpy:              176.951 kcal/mol
   Total Entropy:               126.301  cal/mol.K

 Total job time:  8028.00s(wall), 28922.46s(cpu)
        *  Thank you very much for using Q-Chem.  Have a nice day.  *
