 Q-Chem 5.0, Q-Chem, Inc., Pleasanton, CA (2017)
 Q-Chem 5.0.1 for Intel X86 EM64T Linux

User input:
--------------------------------------------------------------
$molecule
0 1
C 0.05576601 1.00677595 0.47730801
C 0.61707367 -0.45081622 0.68387673
C -1.28268679 1.16045765 -0.22335938
C -0.24992302 -1.64962636 0.32426769
O -2.25807103 1.43321891 0.67422725
O -1.46392412 1.13844327 -1.41417086
O -1.55665746 -1.34779806 0.23532126
O 0.16938250 -2.77630427 0.21660544
C -2.44643061 -2.43676132 -0.07329052
C -3.58022337 1.57956645 0.13175548
C 1.19277335 1.64045629 -0.37072611
C 2.39312613 1.94718710 0.54470592
C 2.94164676 0.51387562 0.78892997
C 1.99177576 -0.35520747 -0.08914044
O 1.65947136 0.54562591 -1.15988830
H -0.03981852 1.49712148 1.44585468
H 0.81803575 -0.60443131 1.74828810
H -2.40497293 -3.19568512 0.70937724
H -3.61812601 2.41093537 -0.57406900
H 3.11920278 2.56734946 0.01674967
H 2.10320848 2.46897434 1.45913734
H 3.96639368 0.41399415 0.42775563
H 2.92597702 0.21463060 1.83868167
H -3.43775592 -1.99272044 -0.12575041
H -2.17594938 -2.88560582 -1.02938853
H -4.22718891 1.77192282 0.98511725
H -3.88329544 0.66483943 -0.38083115
H 0.86628254 2.44693715 -1.02235218
C 2.62989132 -1.60850795 -0.64656337
H 3.55911926 -1.32877489 -1.14847158
H 2.85533761 -2.31824841 0.15049906
H 1.97868770 -2.10478451 -1.36359983
$end

$rem
sym_ignore      true
jobtype         ts
method          b3lyp
basis           6-311++G(d,p)
dft_d           d3_op
mem_total       62000
MEM_STATIC      4000
ao2mo_disk      350000
max_scf_cycles  200
geom_opt_max_cycles 1000
geom_opt_tol_displacement 1
GEOM_OPT_TOL_GRADIENT       1
GEOM_OPT_TOL_ENERGY         1
$end

--------------------------------------------------------------

   15    -805.1899082016      3.75E-09 Convergence criterion met
 Total energy in the final basis set = -805.18990820
   12    -805.1898129861      5.78E-09 Convergence criterion met
 Total energy in the final basis set = -805.18981299
   12    -805.1895274496      3.65E-09 Convergence criterion met
 Total energy in the final basis set = -805.18952745
   12    -805.1897586325      3.58E-09 Convergence criterion met
 Total energy in the final basis set = -805.18975863
   12    -805.1897247044      2.99E-09 Convergence criterion met
 Total energy in the final basis set = -805.18972470
   12    -805.1896991622      1.80E-09 Convergence criterion met
 Total energy in the final basis set = -805.18969916
   11    -805.1897547811      7.83E-09 Convergence criterion met
 Total energy in the final basis set = -805.18975478
   12    -805.1888301426      6.36E-09 Convergence criterion met
    9    -805.1899564137      3.80E-09 Convergence criterion met
 Total energy in the final basis set = -805.18995641
    6    -805.1899564206      8.71E-09 Convergence criterion met
 Total energy in the final basis set = -805.18995642
    8    -805.1899562885      4.38E-09 Convergence criterion met
 Total energy in the final basis set = -805.18995629
    8    -805.1899564719      6.59E-09 Convergence criterion met
 Total energy in the final basis set = -805.18995647
    8    -805.1899563638      3.95E-09 Convergence criterion met
 Total energy in the final basis set = -805.18995636
    2    -805.1899563596      5.19E-09 Convergence criterion met
 Total energy in the final basis set = -805.18995636
 Final energy is   -805.189956359645
 **  OPTIMIZATION CONVERGED  **
 Total job time:  8220.42s(wall), 137754.53s(cpu)
        *  Thank you very much for using Q-Chem.  Have a nice day.  *

User input: 2 of 2

r0115.ten.osc.edu 10.25.153
Q-Chem Developer Version! Running on 10.25.153.*
                  Welcome to Q-Chem
     A Quantum Leap Into The Future Of Chemistry

 Q-Chem 5.0, Q-Chem, Inc., Pleasanton, CA (2017)

 Yihan Shao,  Zhengting Gan,  E. Epifanovsky,  A. T. B. Gilbert,  M. Wormit,
 J. Kussmann,  A. W. Lange,  A. Behn,  Jia Deng,  Xintian Feng,  D. Ghosh,
 M. Goldey,  P. R. Horn,  L. D. Jacobson,  I. Kaliman,  T. Kus,  A. Landau,
 Jie Liu,  E. I. Proynov,  R. M. Richard,  R. P. Steele,  E. J. Sundstrom,
 H. L. Woodcock III,  P. M. Zimmerman,  D. Zuev,  B. Albrecht,  E. Alguire,
 S. A. Baeppler,  Z. Benda,  Y. A. Bernard,  E. J. Berquist,  K. B. Bravaya,
 D. Casanova,  Chun-Min Chang,  Yunqing Chen,  A. Chien,  K. D. Closser,
 M. P. Coons,  S. Dasgupta,  M. Diedenhofen,  Hainam Do,  R. G. Edgar,
 Po-Tung Fang,  S. Fatehi,  Qingguo Feng,  Qinghui Ge,  A. Ghysels,
 J. Gomes,  J. Gonthier,  A. Gunina,  M. W. D. Hanson-Heine,
 P. H. P. Harbach,  A. W. Hauser,  J. E. Herr,  E. G. Hohenstein,
 Z. C. Holden,  Kerwin Hui,  T.-C. Jagau,  Hyunjun Ji,  B. Kaduk,
 K. Khistyaev,  Jaehoon Kim,  P. Klunzinger,  K. Koh,  D. Kosenkov,
 T. Kowalczyk,  C. M. Krauter,  A. Kunitsa,  Ka Un Lao,  A. Laurent,
 K. V. Lawler,  Joonho Lee,  D. Lefrancois,  S. Lehtola,  D. S. Levine,
 Yi-Pei Li,  You-Sheng Lin,  Fenglai Liu,  E. Livshits,  A. Luenser,
 P. Manohar,  E. Mansoor,  S. F. Manzer,  Shan-Ping Mao,  Yuezhi Mao,
 N. Mardirossian,  A. V. Marenich,  L. A. Martinez-Martinez,  S. A. Maurer,
 N. J. Mayhall,  S. C. McKenzie,  J.-M. Mewes,  A. F. Morrison,  K. Nanda,
 T. S. Nguyen-Beck,  R. Olivares-Amaya,  J. A. Parkhill,  T. M. Perrine,
 F. Plasser,  S. Prager,  A. Prociuk,  D. R. Rehn,  F. Rob,  M. Schneider,
 N. Sergueev,  S. M. Sharada,  S. Sharma,  D. W. Small,  T. Stauch,
 T. Stein,  Yu-Chuan Su,  A. J. W. Thom,  T. Tsuchimochi,  L. Vogt,
 O. Vydrov,  M. A. Watson,  J. Wenzel,  M. de Wergifosse,  T. A. Wesolowski,
 A. White,  J. Witte,  A. Yamada,  Jun Yang,  K. Yao,  S. Yeganeh,
 S. R. Yost,  Zhi-Qiang You,  A. Zech,  Igor Ying Zhang,  Xing Zhang,
 Yan Zhao,  Ying Zhu,  B. R. Brooks,  G. K. L. Chan,  C. J. Cramer,
 M. S. Gordon,  W. J. Hehre,  A. Klamt,  M. W. Schmidt,  C. D. Sherrill,
 D. G. Truhlar,  A. Aspuru-Guzik,  R. Baer,  A. T. Bell,  N. A. Besley,
 Jeng-Da Chai,  A. Dreuw,  B. D. Dunietz,  T. R. Furlani,  Chao-Ping Hsu,
 Yousung Jung,  Jing Kong,  D. S. Lambrecht,  WanZhen Liang,  C. Ochsenfeld,
 V. A. Rassolov,  L. V. Slipchenko,  J. E. Subotnik,  T. Van Voorhis,
 J. M. Herbert,  A. I. Krylov,  P. M. W. Gill,  M. Head-Gordon

 Contributors to earlier versions of Q-Chem not listed above:
 R. D. Adamson,  B. Austin,  J. Baker,  G. J. O. Beran,  K. Brandhorst,
 S. T. Brown,  E. F. C. Byrd,  A. K. Chakraborty,  C.-L. Cheng,
 Siu Hung Chien,  D. M. Chipman,  D. L. Crittenden,  H. Dachsel,
 R. A. DiStasio Jr.,  R. J. Doerksen,  A. D. Dutoi,  L. Fusti-Molnar,
 W. A. Goddard III,  A. Golubeva-Zadorozhnaya,  S. R. Gwaltney,  G. Hawkins,
 A. Heyden,  S. Hirata,  G. Kedziora,  F. J. Keil,  C. Kelley,  Jihan Kim,
 R. A. King,  R. Z. Khaliullin,  P. P. Korambath,  W. Kurlancheek,
 A. M. Lee,  M. S. Lee,  S. V. Levchenko,  Ching Yeh Lin,  D. Liotard,
 R. C. Lochan,  I. Lotan,  P. E. Maslen,  N. Nair,  D. P. O'Neill,
 D. Neuhauser,  E. Neuscamman,  C. M. Oana,  R. Olson,  B. Peters,
 R. Peverati,  P. A. Pieniazek,  Y. M. Rhee,  J. Ritchie,  M. A. Rohrdanz,
 E. Rosta,  N. J. Russ,  H. F. Schaefer III,  N. E. Schultz,  N. Shenvi,
 A. C. Simmonett,  A. Sodt,  D. Stuck,  K. S. Thanthiriwatte,  V. Vanovschi,
 Tao Wang,  A. Warshel,  C. F. Williams,  Q. Wu,  X. Xu,  W. Zhang

 Please cite Q-Chem as follows:
 Y. Shao et al., Mol. Phys. 113, 184-215 (2015)
 DOI: 10.1080/00268976.2014.952696

 Q-Chem 5.0.1 for Intel X86 EM64T Linux

 Parts of Q-Chem use Armadillo 5.200.1 (Boston Tea Smuggler).
 http://arma.sourceforge.net/

 Q-Chem begins on Mon Oct 16 01:24:45 2017

Host: r0115.ten.osc.edu
0

     Scratch files written to /tmp/pbstmp.1310572/08//
Processing $rem in /users/PAS0291/osu6415/.qchemrc.
molden_format             true
The previous job contains 0 fragments, simply inherited here

Checking the input file for inconsistencies... 	...done.

--------------------------------------------------------------
User input:
--------------------------------------------------------------

$molecule
read
$end

$rem
sym_ignore      true
scf_guess       read
jobtype         freq
method          b3lyp
basis           6-311++G(d,p)
dft_d           d3_op
mem_total       62000
MEM_STATIC      4000
ao2mo_disk      350000
max_scf_cycles  200
$end
--------------------------------------------------------------

             Standard Nuclear Orientation (Angstroms)
    I     Atom           X                Y                Z
 ----------------------------------------------------------------
    1      C       0.0460601515     1.0118932029     0.4957218347
    2      C       0.6229406814    -0.4387017607     0.6925185050
    3      C      -1.2773389763     1.1539518767    -0.2363724072
    4      C      -0.2398188649    -1.6505473787     0.3742579336
    5      O      -2.2670879083     1.4590649288     0.6356923590
    6      O      -1.4398769030     1.0895928429    -1.4278798054
    7      O      -1.5441247093    -1.3563423847     0.2429229476
    8      O       0.1844661273    -2.7801594488     0.3329219513
    9      C      -2.4273236731    -2.4616494838    -0.0232714667
   10      C      -3.5792097873     1.5935855752     0.0662129385
   11      C       1.1897350600     1.6638706404    -0.3291748531
   12      C       2.3945115957     1.9349752436     0.5948364805
   13      C       2.9596623304     0.4969166941     0.7655969430
   14      C       1.9830287931    -0.3412115136    -0.1096106598
   15      O       1.6445819448     0.5891914858    -1.1516141821
   16      H      -0.0745643709     1.4928789185     1.4659152279
   17      H       0.8537284741    -0.5805286321     1.7523793881
   18      H      -2.3923596925    -3.1823888530     0.7949373150
   19      H      -3.6026934099     2.4047811224    -0.6633973644
   20      H       3.1121825669     2.5887115686     0.0968814389
   21      H       2.1046472029     2.4068196328     1.5359396125
   22      H       3.9693450430     0.4171834866     0.3592426690
   23      H       2.9879793837     0.1573265713     1.8028102709
   24      H      -3.4190994525    -2.0236271113    -0.1080539849
   25      H      -2.1450518027    -2.9547374167    -0.9538940901
   26      H      -4.2401681708     1.8118919171     0.9024743570
   27      H      -3.8759339988     0.6653255631    -0.4253079078
   28      H       0.8712925219     2.4933012968    -0.9557485288
   29      C       2.5862307347    -1.5921925996    -0.7083869325
   30      H       3.5030568232    -1.3174746388    -1.2352119809
   31      H       2.8241174585    -2.3198919409     0.0681872798
   32      H       1.9052129974    -2.0647696048    -1.4146685586
 ----------------------------------------------------------------

    3    -805.1899563592      1.66E-09 Convergence criterion met
 Total energy in the final basis set = -805.18995636

                    Orbital Energies (a.u.)
 --------------------------------------------------------------

 Alpha MOs
 -- Occupied --
-19.179 -19.170 -19.127 -19.118 -19.110 -10.312 -10.303 -10.241
-10.233 -10.231 -10.228 -10.211 -10.202 -10.178 -10.177 -10.158
 -1.122  -1.109  -1.062  -1.032  -1.023  -0.829  -0.790  -0.781
 -0.748  -0.729  -0.690  -0.652  -0.603  -0.593  -0.570  -0.557
 -0.532  -0.517  -0.504  -0.491  -0.486  -0.484  -0.477  -0.474
 -0.460  -0.436  -0.427  -0.422  -0.415  -0.412  -0.398  -0.376
 -0.374  -0.371  -0.367  -0.358  -0.354  -0.350  -0.333  -0.327
 -0.321  -0.308  -0.289  -0.281  -0.269

          Ground-State Mulliken Net Atomic Charges

     Atom                 Charge (a.u.)
  ----------------------------------------
      1 C                     0.141446
      2 C                     0.038856
      3 C                    -0.531774
      4 C                    -0.557000
      5 O                     0.012493
      6 O                    -0.186320
      7 O                    -0.091407
      8 O                    -0.218529
      9 C                    -0.202487
     10 C                    -0.177011
     11 C                     0.209754
     12 C                    -0.585892
     13 C                    -0.306058
     14 C                    -0.077157
     15 O                    -0.039263
     16 H                     0.306734
     17 H                     0.227659
     18 H                     0.183250
     19 H                     0.172580
     20 H                     0.185557
     21 H                     0.114679
     22 H                     0.170724
     23 H                     0.144560
     24 H                     0.126143
     25 H                     0.194874
     26 H                     0.152770
     27 H                     0.170301
     28 H                     0.279525
     29 C                    -0.378928
     30 H                     0.143526
     31 H                     0.185423
     32 H                     0.190971
  ----------------------------------------
  Sum of atomic charges =    -0.000000

                    Cartesian Multipole Moments
 -----------------------------------------------------------------
    Charge (ESU x 10^10)
                -0.0000
    Dipole Moment (Debye)
         X      -1.3381      Y       1.1197      Z       2.9354
       Tot       3.4148
    Quadrupole Moments (Debye-Ang)
        XX     -81.2804     XY       4.6080     YY     -95.7281
        XZ       1.4799     YZ       3.1505     ZZ    -100.8309

 Frequency:       -43.65                  35.57                  66.74
 Force Cnst:      0.0074                 0.0027                 0.0100
 Red. Mass:       6.5979                 3.6382                 3.8104
 IR Intens:        1.778                  0.298                  2.842
 Frequency:       101.23                 123.91                 132.79
 Force Cnst:      0.0186                 0.0135                 0.0129
 Red. Mass:       3.0804                 1.4906                 1.2440
 IR Intens:        2.225                  0.725                  0.511
 Frequency:       150.67                 157.26                 182.55
 Force Cnst:      0.0253                 0.0518                 0.0824
 Red. Mass:       1.8927                 3.5569                 4.1977
 IR Intens:        0.165                  1.091                  0.084
 Frequency:       227.36                 235.34                 261.83
 Force Cnst:      0.1038                 0.1486                 0.1206
 Red. Mass:       3.4074                 4.5552                 2.9847
 IR Intens:        2.107                  2.887                  0.936
 Frequency:       280.15                 288.92                 326.02
 Force Cnst:      0.0728                 0.1222                 0.2218
 Red. Mass:       1.5740                 2.4847                 3.5417
 IR Intens:        3.767                  7.091                  5.369
 Frequency:       333.11                 349.72                 359.84
 Force Cnst:      0.2071                 0.2223                 0.2300
 Red. Mass:       3.1678                 3.0857                 3.0148
 IR Intens:        2.578                  3.025                  0.533
 Frequency:       383.88                 472.50                 576.30
 Force Cnst:      0.4149                 0.5973                 0.6722
 Red. Mass:       4.7789                 4.5409                 3.4354
 IR Intens:       14.320                 13.577                 15.407
 Frequency:       585.63                 625.16                 657.71
 Force Cnst:      1.2621                 1.0589                 1.1219
 Red. Mass:       6.2461                 4.5986                 4.4019
 IR Intens:        8.385                  4.308                  4.304
 Frequency:       727.55                 753.64                 805.55
 Force Cnst:      1.6449                 2.2574                 1.0441
 Red. Mass:       5.2742                 6.7457                 2.7310
 IR Intens:        3.519                  6.619                  2.427
 Frequency:       817.58                 832.33                 854.06
 Force Cnst:      2.0095                 1.3346                 1.7257
 Red. Mass:       5.1024                 3.2697                 4.0155
 IR Intens:       28.037                 10.511                  2.130
 Frequency:       862.91                 893.39                 900.47
 Force Cnst:      1.0523                 1.3438                 1.1084
 Red. Mass:       2.3986                 2.8575                 2.3201
 IR Intens:        1.931                 10.335                 15.272
 Frequency:       911.59                 927.81                 958.42
 Force Cnst:      1.3588                 1.5456                 1.9444
 Red. Mass:       2.7752                 3.0473                 3.5927
 IR Intens:        1.772                 12.264                  2.837
 Frequency:       977.48                1002.49                1022.45
 Force Cnst:      1.6687                 1.9207                 2.7079
 Red. Mass:       2.9643                 3.2437                 4.3964
 IR Intens:       11.557                 22.135                 44.178
 Frequency:      1041.69                1061.26                1071.42
 Force Cnst:      1.2614                 2.4120                 2.0212
 Red. Mass:       1.9730                 3.6348                 2.9885
 IR Intens:       29.347                 45.349                 16.539
 Frequency:      1122.68                1139.71                1166.86
 Force Cnst:      1.4231                 1.2081                 1.0314
 Red. Mass:       1.9163                 1.5786                 1.2857
 IR Intens:       25.720                  4.855                  0.717
 Frequency:      1169.39                1175.03                1200.74
 Force Cnst:      1.1239                 2.0708                 1.3200
 Red. Mass:       1.3949                 2.5456                 1.5539
 IR Intens:       36.179                190.196                  6.811
 Frequency:      1205.85                1209.25                1211.86
 Force Cnst:      1.4628                 1.3119                 1.4022
 Red. Mass:       1.7074                 1.5227                 1.6205
 IR Intens:       34.511                  7.823                 24.110
 Frequency:      1216.79                1251.33                1265.90
 Force Cnst:      1.1979                 1.2297                 3.6133
 Red. Mass:       1.3732                 1.3330                 3.8270
 IR Intens:        4.123                 34.228                428.368
 Frequency:      1274.35                1288.28                1313.21
 Force Cnst:      1.5205                 1.8432                 1.3971
 Red. Mass:       1.5891                 1.8850                 1.3750
 IR Intens:       72.079                 12.030                 23.534
 Frequency:      1328.40                1336.73                1351.51
 Force Cnst:      1.5390                 1.8968                 1.5343
 Red. Mass:       1.4803                 1.8017                 1.4257
 IR Intens:        1.088                 10.593                 23.248
 Frequency:      1398.47                1426.18                1466.12
 Force Cnst:      1.8622                 1.5701                 1.5366
 Red. Mass:       1.6161                 1.3102                 1.2133
 IR Intens:       52.371                 13.206                  8.215
 Frequency:      1469.05                1479.61                1482.37
 Force Cnst:      1.5239                 1.3499                 1.3636
 Red. Mass:       1.1984                 1.0466                 1.0532
 IR Intens:       22.873                  6.080                  4.842
 Frequency:      1483.50                1493.64                1495.37
 Force Cnst:      1.3549                 1.3752                 1.4196
 Red. Mass:       1.0449                 1.0462                 1.0775
 IR Intens:        9.214                 15.084                  3.749
 Frequency:      1498.44                1504.61                1518.23
 Force Cnst:      1.3851                 1.4020                 1.4947
 Red. Mass:       1.0470                 1.0511                 1.1006
 IR Intens:        4.114                  7.852                  6.932
 Frequency:      1776.76                1796.88                3046.82
 Force Cnst:     21.4741                20.9226                 5.6327
 Red. Mass:      11.5454                10.9983                 1.0298
 IR Intens:      271.192                199.657                 33.330
 Frequency:      3050.16                3052.99                3054.31
 Force Cnst:      5.6959                 5.6548                 5.8976
 Red. Mass:       1.0391                 1.0297                 1.0730
 IR Intens:       11.939                 35.526                  6.283
 Frequency:      3059.54                3067.34                3094.00
 Force Cnst:      5.8822                 5.8810                 6.2434
 Red. Mass:       1.0665                 1.0609                 1.1070
 IR Intens:       32.999                 34.798                  0.292
 Frequency:      3103.89                3113.67                3117.49
 Force Cnst:      6.1765                 6.3066                 6.3365
 Red. Mass:       1.0881                 1.1041                 1.1066
 IR Intens:        4.942                 32.714                 22.762
 Frequency:      3120.88                3128.42                3140.01
 Force Cnst:      6.3125                 6.3852                 6.3313
 Red. Mass:       1.1000                 1.1073                 1.0899
 IR Intens:       28.097                 14.150                 18.660
 Frequency:      3140.67                3152.52                3160.40
 Force Cnst:      6.4044                 6.4756                 6.5098
 Red. Mass:       1.1020                 1.1059                 1.1062
 IR Intens:       11.224                 16.646                 12.724

 STANDARD THERMODYNAMIC QUANTITIES AT   298.15 K  AND     1.00 ATM

   This Molecule has  1 Imaginary Frequencies
   Zero point vibrational energy:      166.483 kcal/mol

   Atom    1 Element C  Has Mass   12.00000
   Atom    2 Element C  Has Mass   12.00000
   Atom    3 Element C  Has Mass   12.00000
   Atom    4 Element C  Has Mass   12.00000
   Atom    5 Element O  Has Mass   15.99491
   Atom    6 Element O  Has Mass   15.99491
   Atom    7 Element O  Has Mass   15.99491
   Atom    8 Element O  Has Mass   15.99491
   Atom    9 Element C  Has Mass   12.00000
   Atom   10 Element C  Has Mass   12.00000
   Atom   11 Element C  Has Mass   12.00000
   Atom   12 Element C  Has Mass   12.00000
   Atom   13 Element C  Has Mass   12.00000
   Atom   14 Element C  Has Mass   12.00000
   Atom   15 Element O  Has Mass   15.99491
   Atom   16 Element H  Has Mass    1.00783
   Atom   17 Element H  Has Mass    1.00783
   Atom   18 Element H  Has Mass    1.00783
   Atom   19 Element H  Has Mass    1.00783
   Atom   20 Element H  Has Mass    1.00783
   Atom   21 Element H  Has Mass    1.00783
   Atom   22 Element H  Has Mass    1.00783
   Atom   23 Element H  Has Mass    1.00783
   Atom   24 Element H  Has Mass    1.00783
   Atom   25 Element H  Has Mass    1.00783
   Atom   26 Element H  Has Mass    1.00783
   Atom   27 Element H  Has Mass    1.00783
   Atom   28 Element H  Has Mass    1.00783
   Atom   29 Element C  Has Mass   12.00000
   Atom   30 Element H  Has Mass    1.00783
   Atom   31 Element H  Has Mass    1.00783
   Atom   32 Element H  Has Mass    1.00783
   Molecular Mass:   228.099830 amu
   Principal axes and moments of inertia in amu*Bohr^2:
                             1           2           3
    Eigenvalues --     2386.02202  3604.48645  5197.79626
          X               0.99982     0.01891     0.00002
          Y              -0.01890     0.99935     0.03063
          Z               0.00056    -0.03062     0.99953
   Rotational Symmetry Number is   1
   The Molecule is an Asymmetric Top
   Translational Enthalpy:        0.889 kcal/mol
   Rotational Enthalpy:           0.889 kcal/mol
   Vibrational Enthalpy:        174.015 kcal/mol
   gas constant (RT):             0.592 kcal/mol
   Translational Entropy:        42.176  cal/mol.K
   Rotational Entropy:           32.169  cal/mol.K
   Vibrational Entropy:          46.786  cal/mol.K

   Total Enthalpy:              176.385 kcal/mol
   Total Entropy:               121.131  cal/mol.K

 Total job time:  8095.51s(wall), 28921.93s(cpu)
        *  Thank you very much for using Q-Chem.  Have a nice day.  *
