 Q-Chem 5.0, Q-Chem, Inc., Pleasanton, CA (2017)
 Q-Chem 5.0.1 for Intel X86 EM64T Linux

User input:
--------------------------------------------------------------
$molecule
0 1
C -0.21130374 1.03541205 0.39863150
C 0.64928827 -0.20048833 0.86057258
C -1.59219666 0.72585876 -0.13690855
C -0.11345469 -1.50989749 0.70535034
O -2.51525014 1.51667684 0.45409223
O -1.86149505 -0.07604469 -0.99680401
O 0.12904844 -2.16250579 -0.43400729
O -0.88179283 -1.89917949 1.55613855
C -0.70270345 -3.30493482 -0.70582193
C -3.87525820 1.32846154 0.01671847
C 0.71961563 1.64369322 -0.70352183
C 1.82259654 2.44909338 0.00583844
C 2.65673943 1.29037708 0.61984821
C 1.95445158 0.02435125 0.03204563
O 1.42866372 0.51845054 -1.21660111
H -0.33308018 1.73786574 1.22072182
H 0.84357752 -0.12132887 1.93040885
H -1.73976340 -2.98408727 -0.80920249
H -3.96416523 1.53176846 -1.05149101
H 2.40265583 3.01207320 -0.72719209
H 1.42988612 3.15012030 0.74495155
H 3.69499315 1.32624541 0.28694898
H 2.65637344 1.29022350 1.71182330
H -0.33430667 -3.71012891 -1.64563589
H -0.62065823 -4.04229591 0.09375552
H -4.46530641 2.03653184 0.59409064
H -4.19689472 0.30552537 0.21705441
H 0.19594638 2.14952442 -1.51227510
C 2.88792921 -1.14816648 -0.18204601
H 3.77078439 -0.81534252 -0.73210223
H 3.21763305 -1.54527769 0.78265513
H 2.40189134 -1.94395117 -0.74065251
$end

$rem
sym_ignore      true
jobtype         ts
method          b3lyp
basis           6-311++G(d,p)
dft_d           d3_op
mem_total       62000
MEM_STATIC      4000
ao2mo_disk      350000
max_scf_cycles  200
geom_opt_max_cycles 1000
geom_opt_tol_displacement 1
GEOM_OPT_TOL_GRADIENT       1
GEOM_OPT_TOL_ENERGY         1
$end

--------------------------------------------------------------

   15    -805.1919696287      3.70E-09 Convergence criterion met
 Total energy in the final basis set = -805.19196963
   12    -805.1918413705      8.08E-09 Convergence criterion met
 Total energy in the final basis set = -805.19184137
   12    -805.1914814996      5.08E-09 Convergence criterion met
 Total energy in the final basis set = -805.19148150
   12    -805.1904382355      9.19E-09 Convergence criterion met
 Total energy in the final basis set = -805.19043824
   12    -805.1910891233      8.33E-09 Convergence criterion met
 Total energy in the final basis set = -805.19108912
   12    -805.1917095897      8.60E-09 Convergence criterion met
 Total energy in the final basis set = -805.19170959
   12    -805.1917865049      8.33E-09 Convergence criterion met
 Total energy in the final basis set = -805.19178650
   12    -805.1919485938      9.44E-09 Convergence criterion met
    6    -805.1922347557      4.18E-09 Convergence criterion met
 Total energy in the final basis set = -805.19223476
    6    -805.1922347380      3.70E-09 Convergence criterion met
 Total energy in the final basis set = -805.19223474
    5    -805.1922347459      7.72E-09 Convergence criterion met
 Total energy in the final basis set = -805.19223475
    6    -805.1922347234      3.95E-09 Convergence criterion met
 Total energy in the final basis set = -805.19223472
    5    -805.1922347315      6.67E-09 Convergence criterion met
 Total energy in the final basis set = -805.19223473
    5    -805.1922347234      8.08E-09 Convergence criterion met
 Total energy in the final basis set = -805.19223472
 Final energy is   -805.192234723384
 **  OPTIMIZATION CONVERGED  **
 Total job time:  1967.80s(wall), 33098.81s(cpu)
        *  Thank you very much for using Q-Chem.  Have a nice day.  *

User input: 2 of 2

r0142.ten.osc.edu 10.25.154
Q-Chem Developer Version! Running on 10.25.154.*
                  Welcome to Q-Chem
     A Quantum Leap Into The Future Of Chemistry

 Q-Chem 5.0, Q-Chem, Inc., Pleasanton, CA (2017)

 Yihan Shao,  Zhengting Gan,  E. Epifanovsky,  A. T. B. Gilbert,  M. Wormit,
 J. Kussmann,  A. W. Lange,  A. Behn,  Jia Deng,  Xintian Feng,  D. Ghosh,
 M. Goldey,  P. R. Horn,  L. D. Jacobson,  I. Kaliman,  T. Kus,  A. Landau,
 Jie Liu,  E. I. Proynov,  R. M. Richard,  R. P. Steele,  E. J. Sundstrom,
 H. L. Woodcock III,  P. M. Zimmerman,  D. Zuev,  B. Albrecht,  E. Alguire,
 S. A. Baeppler,  Z. Benda,  Y. A. Bernard,  E. J. Berquist,  K. B. Bravaya,
 D. Casanova,  Chun-Min Chang,  Yunqing Chen,  A. Chien,  K. D. Closser,
 M. P. Coons,  S. Dasgupta,  M. Diedenhofen,  Hainam Do,  R. G. Edgar,
 Po-Tung Fang,  S. Fatehi,  Qingguo Feng,  Qinghui Ge,  A. Ghysels,
 J. Gomes,  J. Gonthier,  A. Gunina,  M. W. D. Hanson-Heine,
 P. H. P. Harbach,  A. W. Hauser,  J. E. Herr,  E. G. Hohenstein,
 Z. C. Holden,  Kerwin Hui,  T.-C. Jagau,  Hyunjun Ji,  B. Kaduk,
 K. Khistyaev,  Jaehoon Kim,  P. Klunzinger,  K. Koh,  D. Kosenkov,
 T. Kowalczyk,  C. M. Krauter,  A. Kunitsa,  Ka Un Lao,  A. Laurent,
 K. V. Lawler,  Joonho Lee,  D. Lefrancois,  S. Lehtola,  D. S. Levine,
 Yi-Pei Li,  You-Sheng Lin,  Fenglai Liu,  E. Livshits,  A. Luenser,
 P. Manohar,  E. Mansoor,  S. F. Manzer,  Shan-Ping Mao,  Yuezhi Mao,
 N. Mardirossian,  A. V. Marenich,  L. A. Martinez-Martinez,  S. A. Maurer,
 N. J. Mayhall,  S. C. McKenzie,  J.-M. Mewes,  A. F. Morrison,  K. Nanda,
 T. S. Nguyen-Beck,  R. Olivares-Amaya,  J. A. Parkhill,  T. M. Perrine,
 F. Plasser,  S. Prager,  A. Prociuk,  D. R. Rehn,  F. Rob,  M. Schneider,
 N. Sergueev,  S. M. Sharada,  S. Sharma,  D. W. Small,  T. Stauch,
 T. Stein,  Yu-Chuan Su,  A. J. W. Thom,  T. Tsuchimochi,  L. Vogt,
 O. Vydrov,  M. A. Watson,  J. Wenzel,  M. de Wergifosse,  T. A. Wesolowski,
 A. White,  J. Witte,  A. Yamada,  Jun Yang,  K. Yao,  S. Yeganeh,
 S. R. Yost,  Zhi-Qiang You,  A. Zech,  Igor Ying Zhang,  Xing Zhang,
 Yan Zhao,  Ying Zhu,  B. R. Brooks,  G. K. L. Chan,  C. J. Cramer,
 M. S. Gordon,  W. J. Hehre,  A. Klamt,  M. W. Schmidt,  C. D. Sherrill,
 D. G. Truhlar,  A. Aspuru-Guzik,  R. Baer,  A. T. Bell,  N. A. Besley,
 Jeng-Da Chai,  A. Dreuw,  B. D. Dunietz,  T. R. Furlani,  Chao-Ping Hsu,
 Yousung Jung,  Jing Kong,  D. S. Lambrecht,  WanZhen Liang,  C. Ochsenfeld,
 V. A. Rassolov,  L. V. Slipchenko,  J. E. Subotnik,  T. Van Voorhis,
 J. M. Herbert,  A. I. Krylov,  P. M. W. Gill,  M. Head-Gordon

 Contributors to earlier versions of Q-Chem not listed above:
 R. D. Adamson,  B. Austin,  J. Baker,  G. J. O. Beran,  K. Brandhorst,
 S. T. Brown,  E. F. C. Byrd,  A. K. Chakraborty,  C.-L. Cheng,
 Siu Hung Chien,  D. M. Chipman,  D. L. Crittenden,  H. Dachsel,
 R. A. DiStasio Jr.,  R. J. Doerksen,  A. D. Dutoi,  L. Fusti-Molnar,
 W. A. Goddard III,  A. Golubeva-Zadorozhnaya,  S. R. Gwaltney,  G. Hawkins,
 A. Heyden,  S. Hirata,  G. Kedziora,  F. J. Keil,  C. Kelley,  Jihan Kim,
 R. A. King,  R. Z. Khaliullin,  P. P. Korambath,  W. Kurlancheek,
 A. M. Lee,  M. S. Lee,  S. V. Levchenko,  Ching Yeh Lin,  D. Liotard,
 R. C. Lochan,  I. Lotan,  P. E. Maslen,  N. Nair,  D. P. O'Neill,
 D. Neuhauser,  E. Neuscamman,  C. M. Oana,  R. Olson,  B. Peters,
 R. Peverati,  P. A. Pieniazek,  Y. M. Rhee,  J. Ritchie,  M. A. Rohrdanz,
 E. Rosta,  N. J. Russ,  H. F. Schaefer III,  N. E. Schultz,  N. Shenvi,
 A. C. Simmonett,  A. Sodt,  D. Stuck,  K. S. Thanthiriwatte,  V. Vanovschi,
 Tao Wang,  A. Warshel,  C. F. Williams,  Q. Wu,  X. Xu,  W. Zhang

 Please cite Q-Chem as follows:
 Y. Shao et al., Mol. Phys. 113, 184-215 (2015)
 DOI: 10.1080/00268976.2014.952696

 Q-Chem 5.0.1 for Intel X86 EM64T Linux

 Parts of Q-Chem use Armadillo 5.200.1 (Boston Tea Smuggler).
 http://arma.sourceforge.net/

 Q-Chem begins on Sun Oct 15 23:40:45 2017

Host: r0142.ten.osc.edu
0

     Scratch files written to /tmp/pbstmp.1310574/10//
Processing $rem in /users/PAS0291/osu6415/.qchemrc.
molden_format             true
The previous job contains 0 fragments, simply inherited here

Checking the input file for inconsistencies... 	...done.

--------------------------------------------------------------
User input:
--------------------------------------------------------------

$molecule
read
$end

$rem
sym_ignore      true
scf_guess       read
jobtype         freq
method          b3lyp
basis           6-311++G(d,p)
dft_d           d3_op
mem_total       62000
MEM_STATIC      4000
ao2mo_disk      350000
max_scf_cycles  200
$end
--------------------------------------------------------------

             Standard Nuclear Orientation (Angstroms)
    I     Atom           X                Y                Z
 ----------------------------------------------------------------
    1      C      -0.1473831830     1.1961167510     0.2159872840
    2      C       0.5911021938    -0.0593624989     0.8386155983
    3      C      -1.5268834743     0.8870714980    -0.3264680416
    4      C      -0.2387002552    -1.3247289381     0.6691206767
    5      O      -2.4660928970     1.1792758334     0.5960103118
    6      O      -1.7756593076     0.4285776088    -1.4143856756
    7      O      -0.0156950386    -1.9681502012    -0.4822186671
    8      O      -1.0638306078    -1.6728751620     1.4836160798
    9      C      -0.8932150479    -3.0665030649    -0.7876174457
   10      C      -3.8182257544     0.8106169185     0.2655375259
   11      C       0.8818119097     1.6403045054    -0.8624587622
   12      C       1.9825471174     2.4459518615    -0.1493711830
   13      C       2.6948420298     1.3059329460     0.6333469168
   14      C       1.9647457357     0.0308877032     0.1016900544
   15      O       1.5627615835     0.4360544999    -1.2194016452
   16      H      -0.2682011977     1.9572943120     0.9857636205
   17      H       0.6974943953     0.0720594531     1.9149669781
   18      H      -1.9152151912    -2.7019654291    -0.8990520167
   19      H      -4.1450225288     1.3216109117    -0.6412119606
   20      H       2.6500053244     2.8996983541    -0.8833249330
   21      H       1.5866894057     3.2369816145     0.4908652032
   22      H       3.7559212371     1.2519001403     0.3861820555
   23      H       2.6113514094     1.4075279094     1.7176928441
   24      H      -0.5306459856    -3.4679881696    -1.7310250500
   25      H      -0.8553717566    -3.8224112432    -0.0020660956
   26      H      -4.4181306294     1.1179611838     1.1189354910
   27      H      -3.8870424822    -0.2685949773     0.1209816480
   28      H       0.4417853294     2.0885309286    -1.7500115008
   29      C       2.8309190047    -1.2099934763     0.0654581648
   30      H       3.7671294448    -0.9893125906    -0.4523307859
   31      H       3.0719235543    -1.5283818887     1.0838484210
   32      H       2.3287301023    -2.0254638232    -0.4502910114
 ----------------------------------------------------------------

    2    -805.1922347219      4.95E-09 Convergence criterion met
 Total energy in the final basis set = -805.19223472

                    Orbital Energies (a.u.)
 --------------------------------------------------------------

 Alpha MOs
 -- Occupied --
-19.174 -19.171 -19.126 -19.118 -19.115 -10.307 -10.306 -10.241
-10.232 -10.228 -10.225 -10.207 -10.206 -10.179 -10.179 -10.166
 -1.118  -1.113  -1.061  -1.029  -1.026  -0.831  -0.793  -0.783
 -0.745  -0.726  -0.693  -0.651  -0.606  -0.591  -0.567  -0.561
 -0.527  -0.515  -0.504  -0.494  -0.489  -0.483  -0.480  -0.469
 -0.458  -0.436  -0.427  -0.422  -0.416  -0.411  -0.396  -0.384
 -0.374  -0.370  -0.366  -0.359  -0.354  -0.352  -0.338  -0.328
 -0.318  -0.309  -0.289  -0.279  -0.270

          Ground-State Mulliken Net Atomic Charges

     Atom                 Charge (a.u.)
  ----------------------------------------
      1 C                     0.024673
      2 C                     0.106418
      3 C                    -0.517066
      4 C                    -0.572692
      5 O                     0.016493
      6 O                    -0.171286
      7 O                     0.024987
      8 O                    -0.149854
      9 C                    -0.199326
     10 C                    -0.161017
     11 C                     0.007727
     12 C                    -0.552571
     13 C                    -0.314475
     14 C                    -0.038978
     15 O                    -0.060169
     16 H                     0.294438
     17 H                     0.266144
     18 H                     0.179725
     19 H                     0.170181
     20 H                     0.185154
     21 H                     0.120392
     22 H                     0.161392
     23 H                     0.146286
     24 H                     0.163367
     25 H                     0.179048
     26 H                     0.159452
     27 H                     0.170395
     28 H                     0.276637
     29 C                    -0.401203
     30 H                     0.160918
     31 H                     0.155288
     32 H                     0.169522
  ----------------------------------------
  Sum of atomic charges =    -0.000000

                    Cartesian Multipole Moments
 -----------------------------------------------------------------
    Charge (ESU x 10^10)
                -0.0000
    Dipole Moment (Debye)
         X       0.5640      Y       1.0209      Z       1.0372
       Tot       1.5608
    Quadrupole Moments (Debye-Ang)
        XX     -86.0676     XY      -0.3083     YY     -86.4419
        XZ       3.9876     YZ       4.2569     ZZ    -103.8495

 Frequency:       -33.71                  53.37                  62.04
 Force Cnst:      0.0039                 0.0064                 0.0115
 Red. Mass:       5.8195                 3.7978                 5.0688
 IR Intens:        0.239                  0.451                  5.596
 Frequency:        72.55                 105.95                 131.56
 Force Cnst:      0.0101                 0.0087                 0.0182
 Red. Mass:       3.2547                 1.3150                 1.7820
 IR Intens:        2.446                  0.802                  0.342
 Frequency:       143.23                 145.62                 181.28
 Force Cnst:      0.0174                 0.0473                 0.0454
 Red. Mass:       1.4427                 3.7858                 2.3425
 IR Intens:        0.050                  2.190                  0.660
 Frequency:       196.61                 211.31                 236.67
 Force Cnst:      0.0305                 0.1152                 0.0867
 Red. Mass:       1.3407                 4.3793                 2.6264
 IR Intens:        0.545                  0.686                  1.678
 Frequency:       267.24                 275.13                 307.56
 Force Cnst:      0.1751                 0.1569                 0.2139
 Red. Mass:       4.1616                 3.5181                 3.8384
 IR Intens:        7.383                  2.015                 13.587
 Frequency:       331.31                 352.22                 362.67
 Force Cnst:      0.2159                 0.3049                 0.2149
 Red. Mass:       3.3385                 4.1717                 2.7735
 IR Intens:        0.412                 11.310                  4.285
 Frequency:       400.92                 417.63                 577.72
 Force Cnst:      0.4866                 0.4751                 0.7117
 Red. Mass:       5.1380                 4.6234                 3.6191
 IR Intens:       10.106                  3.538                 19.253
 Frequency:       605.22                 648.22                 706.44
 Force Cnst:      0.9499                 1.0485                 1.5845
 Red. Mass:       4.4017                 4.2352                 5.3887
 IR Intens:        4.007                  0.895                  3.142
 Frequency:       723.28                 743.22                 797.73
 Force Cnst:      1.8256                 2.3329                 0.9989
 Red. Mass:       5.9229                 7.1682                 2.6642
 IR Intens:        6.340                  2.203                  9.891
 Frequency:       819.58                 847.64                 857.04
 Force Cnst:      1.7256                 1.0648                 1.8719
 Red. Mass:       4.3603                 2.5153                 4.3254
 IR Intens:       21.567                  4.096                  4.741
 Frequency:       864.48                 889.45                 893.16
 Force Cnst:      1.3430                 1.5506                 1.1101
 Red. Mass:       3.0502                 3.3266                 2.3619
 IR Intens:        2.566                  6.219                  7.240
 Frequency:       911.46                 941.15                 950.76
 Force Cnst:      1.4039                 1.3501                 1.9095
 Red. Mass:       2.8682                 2.5870                 3.5853
 IR Intens:        0.524                 18.892                  8.800
 Frequency:       966.78                 994.76                1023.65
 Force Cnst:      1.8783                 1.5229                 2.7433
 Red. Mass:       3.4108                 2.6120                 4.4435
 IR Intens:        0.142                 16.349                 39.122
 Frequency:      1036.60                1057.38                1065.16
 Force Cnst:      1.1960                 2.6108                 2.2576
 Red. Mass:       1.8892                 3.9634                 3.3773
 IR Intens:       18.777                 56.690                 23.269
 Frequency:      1130.64                1134.59                1169.67
 Force Cnst:      1.5300                 1.1349                 1.0471
 Red. Mass:       2.0314                 1.4964                 1.2990
 IR Intens:       21.188                  0.566                  0.977
 Frequency:      1170.61                1185.75                1192.83
 Force Cnst:      1.0496                 1.4713                 2.0464
 Red. Mass:       1.3000                 1.7761                 2.4411
 IR Intens:        8.289                 19.462                235.669
 Frequency:      1206.24                1211.35                1213.20
 Force Cnst:      1.2159                 1.2454                 1.2875
 Red. Mass:       1.4184                 1.4405                 1.4846
 IR Intens:       10.276                 11.269                 30.349
 Frequency:      1216.95                1257.90                1266.36
 Force Cnst:      1.5867                 1.4395                 1.2792
 Red. Mass:       1.8184                 1.5441                 1.3538
 IR Intens:      107.384                  8.087                  4.150
 Frequency:      1282.02                1296.53                1314.06
 Force Cnst:      2.8924                 1.8627                 1.4302
 Red. Mass:       2.9868                 1.8808                 1.4057
 IR Intens:      170.432                 68.981                  4.338
 Frequency:      1326.68                1336.97                1354.76
 Force Cnst:      1.7096                 1.9487                 1.5620
 Red. Mass:       1.6486                 1.8503                 1.4444
 IR Intens:        7.363                 56.070                  1.766
 Frequency:      1410.91                1417.79                1470.96
 Force Cnst:      1.5699                 1.8249                 1.5458
 Red. Mass:       1.3385                 1.5409                 1.2125
 IR Intens:        3.223                 86.458                 14.854
 Frequency:      1471.22                1483.97                1485.58
 Force Cnst:      1.5603                 1.3570                 1.3783
 Red. Mass:       1.2235                 1.0459                 1.0600
 IR Intens:       21.108                 14.676                  0.111
 Frequency:      1486.11                1491.79                1492.81
 Force Cnst:      1.3624                 1.3825                 1.3998
 Red. Mass:       1.0470                 1.0544                 1.0661
 IR Intens:        4.692                  1.497                  2.503
 Frequency:      1494.58                1506.38                1513.52
 Force Cnst:      1.3779                 1.4102                 1.4796
 Red. Mass:       1.0470                 1.0548                 1.0963
 IR Intens:       12.256                  7.739                  9.918
 Frequency:      1762.33                1790.53                3040.88
 Force Cnst:     19.4681                20.4402                 5.6635
 Red. Mass:      10.6389                10.8211                 1.0395
 IR Intens:      227.421                259.410                 17.320
 Frequency:      3050.48                3052.00                3056.16
 Force Cnst:      5.6458                 5.6504                 5.8292
 Red. Mass:       1.0298                 1.0296                 1.0593
 IR Intens:       28.621                 37.252                 30.975
 Frequency:      3065.43                3092.80                3099.34
 Force Cnst:      5.8743                 6.2282                 6.2245
 Red. Mass:       1.0610                 1.1051                 1.0998
 IR Intens:       33.607                  2.097                 10.510
 Frequency:      3103.30                3109.26                3118.31
 Force Cnst:      6.1791                 6.2495                 6.2683
 Red. Mass:       1.0890                 1.0972                 1.0941
 IR Intens:        7.026                 19.782                 36.022
 Frequency:      3124.38                3127.59                3140.68
 Force Cnst:      6.3681                 6.3818                 6.3353
 Red. Mass:       1.1072                 1.1073                 1.0901
 IR Intens:       18.032                 16.199                 15.687
 Frequency:      3149.72                3158.97                3159.77
 Force Cnst:      6.4182                 6.5024                 6.5057
 Red. Mass:       1.0981                 1.1059                 1.1059
 IR Intens:        7.390                 13.631                 10.644

 STANDARD THERMODYNAMIC QUANTITIES AT   298.15 K  AND     1.00 ATM

   This Molecule has  1 Imaginary Frequencies
   Zero point vibrational energy:      166.360 kcal/mol

   Atom    1 Element C  Has Mass   12.00000
   Atom    2 Element C  Has Mass   12.00000
   Atom    3 Element C  Has Mass   12.00000
   Atom    4 Element C  Has Mass   12.00000
   Atom    5 Element O  Has Mass   15.99491
   Atom    6 Element O  Has Mass   15.99491
   Atom    7 Element O  Has Mass   15.99491
   Atom    8 Element O  Has Mass   15.99491
   Atom    9 Element C  Has Mass   12.00000
   Atom   10 Element C  Has Mass   12.00000
   Atom   11 Element C  Has Mass   12.00000
   Atom   12 Element C  Has Mass   12.00000
   Atom   13 Element C  Has Mass   12.00000
   Atom   14 Element C  Has Mass   12.00000
   Atom   15 Element O  Has Mass   15.99491
   Atom   16 Element H  Has Mass    1.00783
   Atom   17 Element H  Has Mass    1.00783
   Atom   18 Element H  Has Mass    1.00783
   Atom   19 Element H  Has Mass    1.00783
   Atom   20 Element H  Has Mass    1.00783
   Atom   21 Element H  Has Mass    1.00783
   Atom   22 Element H  Has Mass    1.00783
   Atom   23 Element H  Has Mass    1.00783
   Atom   24 Element H  Has Mass    1.00783
   Atom   25 Element H  Has Mass    1.00783
   Atom   26 Element H  Has Mass    1.00783
   Atom   27 Element H  Has Mass    1.00783
   Atom   28 Element H  Has Mass    1.00783
   Atom   29 Element C  Has Mass   12.00000
   Atom   30 Element H  Has Mass    1.00783
   Atom   31 Element H  Has Mass    1.00783
   Atom   32 Element H  Has Mass    1.00783
   Molecular Mass:   228.099830 amu
   Principal axes and moments of inertia in amu*Bohr^2:
                             1           2           3
    Eigenvalues --     2393.11284  3538.19147  4814.11099
          X               0.98753    -0.15612     0.02045
          Y               0.15529     0.98715     0.03758
          Z              -0.02605    -0.03394     0.99908
   Rotational Symmetry Number is   1
   The Molecule is an Asymmetric Top
   Translational Enthalpy:        0.889 kcal/mol
   Rotational Enthalpy:           0.889 kcal/mol
   Vibrational Enthalpy:        174.056 kcal/mol
   gas constant (RT):             0.592 kcal/mol
   Translational Entropy:        42.176  cal/mol.K
   Rotational Entropy:           32.077  cal/mol.K
   Vibrational Entropy:          48.226  cal/mol.K

   Total Enthalpy:              176.426 kcal/mol
   Total Entropy:               122.479  cal/mol.K

 Total job time:  8165.83s(wall), 29671.46s(cpu)
        *  Thank you very much for using Q-Chem.  Have a nice day.  *
