 Q-Chem 5.0, Q-Chem, Inc., Pleasanton, CA (2017)
 Q-Chem 5.0.2 for Intel X86 EM64T Linux

User input:
--------------------------------------------------------------
$molecule
0 1
C 0.28456454 1.13524300 0.55713849
C 0.57601790 -0.38599610 0.83006154
C -1.08559763 1.66802236 0.17899017
C -0.61781804 -1.32545579 0.73574191
O -1.99013035 0.74294275 -0.16529921
O -1.31533735 2.85574469 0.17487381
O -0.85298106 -1.79364290 -0.49932532
O -1.27189345 -1.63862047 1.70321033
C -2.01224221 -2.62841196 -0.64592829
C -3.29430276 1.23103667 -0.53500342
C 1.31833021 1.43828936 -0.58190155
C 2.70995857 1.59909023 0.05233197
C 3.01021418 0.12554600 0.44087162
C 1.78006919 -0.63265631 -0.14636509
O 1.42132565 0.19400254 -1.27405936
H 0.54658687 1.71860804 1.44020706
H 0.90209486 -0.49356512 1.86469481
H -2.90838649 -2.08375997 -0.34506180
H -3.74045833 1.78358937 0.29254227
H 3.41924610 1.96585932 -0.69133373
H 2.71209153 2.28897924 0.89797114
H 3.92425763 -0.23351652 -0.03394869
H 3.11133657 -0.02677709 1.51722917
H -2.05387416 -2.88304878 -1.70277936
H -1.92093358 -3.52842027 -0.03563713
H -3.87987790 0.34388914 -0.76455034
H -3.22171157 1.88069786 -1.40795064
H 1.01161677 2.22587769 -1.26604878
C 2.08500539 -2.05265720 -0.57313673
H 2.97816012 -2.06243904 -1.20162169
H 2.28151623 -2.67409202 0.30570003
H 1.25739730 -2.48535651 -1.12968543
$end

$rem
sym_ignore      true
jobtype         ts
method          b3lyp
basis           6-311++G(d,p)
dft_d           d3_op
mem_total       62000
MEM_STATIC      4000
ao2mo_disk      350000
max_scf_cycles  200
geom_opt_max_cycles 1000
geom_opt_tol_displacement 1
geom_opt_tol_gradient     1
geom_opt_tol_energy       1
$end

--------------------------------------------------------------

   15    -805.1896620971      3.24E-09 Convergence criterion met
 Total energy in the final basis set = -805.18966210
   12    -805.1895022240      5.87E-09 Convergence criterion met
 Total energy in the final basis set = -805.18950222
   12    -805.1893521936      8.81E-09 Convergence criterion met
 Total energy in the final basis set = -805.18935219
   12    -805.1895759515      7.03E-09 Convergence criterion met
 Total energy in the final basis set = -805.18957595
   12    -805.1888641412      6.72E-09 Convergence criterion met
 Total energy in the final basis set = -805.18886414
   12    -805.1896207113      6.14E-09 Convergence criterion met
 Total energy in the final basis set = -805.18962071
   12    -805.1895292877      2.24E-09 Convergence criterion met
 Total energy in the final basis set = -805.18952929
   11    -805.1896781284      8.59E-09 Convergence criterion met
    6    -805.1896600204      2.80E-09 Convergence criterion met
 Total energy in the final basis set = -805.18966002
    6    -805.1896600335      2.96E-09 Convergence criterion met
 Total energy in the final basis set = -805.18966003
    6    -805.1896600210      2.71E-09 Convergence criterion met
 Total energy in the final basis set = -805.18966002
    6    -805.1896600342      2.68E-09 Convergence criterion met
 Total energy in the final basis set = -805.18966003
    5    -805.1896600228      9.04E-09 Convergence criterion met
 Total energy in the final basis set = -805.18966002
    5    -805.1896600328      9.84E-09 Convergence criterion met
 Total energy in the final basis set = -805.18966003
 Final energy is   -805.189660032776
 **  OPTIMIZATION CONVERGED  **
 Total job time:  4493.44s(wall), 75691.03s(cpu)
        *  Thank you very much for using Q-Chem.  Have a nice day.  *

User input: 2 of 2

r0012.ten.osc.edu 10.25.151
Q-Chem Developer Version! Running on 10.25.151.*
                  Welcome to Q-Chem
     A Quantum Leap Into The Future Of Chemistry

 Q-Chem 5.0, Q-Chem, Inc., Pleasanton, CA (2017)

 Yihan Shao,  Zhengting Gan,  E. Epifanovsky,  A. T. B. Gilbert,  M. Wormit,
 J. Kussmann,  A. W. Lange,  A. Behn,  Jia Deng,  Xintian Feng,  D. Ghosh,
 M. Goldey,  P. R. Horn,  L. D. Jacobson,  I. Kaliman,  T. Kus,  A. Landau,
 Jie Liu,  E. I. Proynov,  R. M. Richard,  R. P. Steele,  E. J. Sundstrom,
 H. L. Woodcock III,  P. M. Zimmerman,  D. Zuev,  B. Albrecht,  E. Alguire,
 S. A. Baeppler,  D. Barton,  Z. Benda,  Y. A. Bernard,  E. J. Berquist,
 K. B. Bravaya,  H. Burton,  D. Casanova,  Chun-Min Chang,  Yunqing Chen,
 A. Chien,  K. D. Closser,  M. P. Coons,  S. Dasgupta,  A. L. Dempwolff,
 M. Diedenhofen,  Hainam Do,  R. G. Edgar,  Po-Tung Fang,  S. Fatehi,
 Qingguo Feng,  J. Fosso-Tande,  Qinghui Ge,  A. Ghysels,  G. Gidofalvi,
 J. Gomes,  J. Gonthier,  A. Gunina,  M. W. D. Hanson-Heine,
 P. H. P. Harbach,  A. W. Hauser,  J. E. Herr,  E. G. Hohenstein,
 Z. C. Holden,  Kerwin Hui,  T.-C. Jagau,  Hyunjun Ji,  B. Kaduk,
 K. Khistyaev,  Jaehoon Kim,  P. Klunzinger,  K. Koh,  D. Kosenkov,
 L. Koulias,  T. Kowalczyk,  C. M. Krauter,  A. Kunitsa,  Ka Un Lao,
 A. Laurent,  K. V. Lawler,  Joonho Lee,  D. Lefrancois,  S. Lehtola,
 D. S. Levine,  Yi-Pei Li,  You-Sheng Lin,  Fenglai Liu,  E. Livshits,
 A. Luenser,  P. Manohar,  E. Mansoor,  S. F. Manzer,  Shan-Ping Mao,
 Yuezhi Mao,  N. Mardirossian,  A. V. Marenich,  T. Markovich,
 L. A. Martinez-Martinez,  S. A. Maurer,  N. J. Mayhall,  S. C. McKenzie,
 J.-M. Mewes,  A. F. Morrison,  J. W. Mullinax,  K. Nanda,
 T. S. Nguyen-Beck,  R. Olivares-Amaya,  J. A. Parkhill,  T. M. Perrine,
 F. Plasser,  S. Prager,  A. Prociuk,  E. Ramos,  D. R. Rehn,  F. Rob,
 M. Schneider,  N. Sergueev,  S. M. Sharada,  S. Sharma,  D. W. Small,
 T. Stauch,  T. Stein,  Yu-Chuan Su,  A. J. W. Thom,  A. Tkatchenko,
 T. Tsuchimochi,  L. Vogt,  O. Vydrov,  M. A. Watson,  J. Wenzel,
 M. de Wergifosse,  T. A. Wesolowski,  A. White,  J. Witte,  A. Yamada,
 Jun Yang,  K. Yao,  S. Yeganeh,  S. R. Yost,  Zhi-Qiang You,  A. Zech,
 Igor Ying Zhang,  Xing Zhang,  Yan Zhao,  Ying Zhu,  B. R. Brooks,
 G. K. L. Chan,  C. J. Cramer,  M. S. Gordon,  W. J. Hehre,  A. Klamt,
 M. W. Schmidt,  C. D. Sherrill,  D. G. Truhlar,  A. Aspuru-Guzik,  R. Baer,
 A. T. Bell,  N. A. Besley,  Jeng-Da Chai,  R. A. DiStasio Jr.,  A. Dreuw,
 B. D. Dunietz,  T. R. Furlani,  Chao-Ping Hsu,  Yousung Jung,  Jing Kong,
 D. S. Lambrecht,  WanZhen Liang,  C. Ochsenfeld,  V. A. Rassolov,
 L. V. Slipchenko,  J. E. Subotnik,  T. Van Voorhis,  J. M. Herbert,
 A. I. Krylov,  P. M. W. Gill,  M. Head-Gordon

 Contributors to earlier versions of Q-Chem not listed above:
 R. D. Adamson,  B. Austin,  J. Baker,  G. J. O. Beran,  K. Brandhorst,
 S. T. Brown,  E. F. C. Byrd,  A. K. Chakraborty,  C.-L. Cheng,
 Siu Hung Chien,  D. M. Chipman,  D. L. Crittenden,  H. Dachsel,
 R. J. Doerksen,  A. D. Dutoi,  L. Fusti-Molnar,  W. A. Goddard III,
 A. Golubeva-Zadorozhnaya,  S. R. Gwaltney,  G. Hawkins,  A. Heyden,
 S. Hirata,  G. Kedziora,  F. J. Keil,  C. Kelley,  Jihan Kim,  R. A. King,
 R. Z. Khaliullin,  P. P. Korambath,  W. Kurlancheek,  A. M. Lee,  M. S. Lee,
 S. V. Levchenko,  Ching Yeh Lin,  D. Liotard,  R. C. Lochan,  I. Lotan,
 P. E. Maslen,  N. Nair,  D. P. O'Neill,  D. Neuhauser,  E. Neuscamman,
 C. M. Oana,  R. Olson,  B. Peters,  R. Peverati,  P. A. Pieniazek,
 Y. M. Rhee,  J. Ritchie,  M. A. Rohrdanz,  E. Rosta,  N. J. Russ,
 H. F. Schaefer III,  N. E. Schultz,  N. Shenvi,  A. C. Simmonett,  A. Sodt,
 D. Stuck,  K. S. Thanthiriwatte,  V. Vanovschi,  Tao Wang,  A. Warshel,
 C. F. Williams,  Q. Wu,  X. Xu,  W. Zhang

 Please cite Q-Chem as follows:
 Y. Shao et al., Mol. Phys. 113, 184-215 (2015)
 DOI: 10.1080/00268976.2014.952696

 Q-Chem 5.0.2 for Intel X86 EM64T Linux

 Parts of Q-Chem use Armadillo 5.200.1 (Boston Tea Smuggler).
 http://arma.sourceforge.net/

 Q-Chem begins on Tue Dec 19 00:34:59 2017

Host: r0012.ten.osc.edu
0

     Scratch files written to /tmp/pbstmp.1350845/16//
Processing $rem in /users/PAS0291/osu6415/.qchemrc.
molden_format             true
The previous job contains 0 fragments, simply inherited here

Checking the input file for inconsistencies... 	...done.

--------------------------------------------------------------
User input:
--------------------------------------------------------------

$molecule
read
$end

$rem
sym_ignore      true
scf_guess       read
jobtype         freq
method          b3lyp
basis           6-311++G(d,p)
dft_d           d3_op
mem_total       62000
MEM_STATIC      4000
ao2mo_disk      350000
max_scf_cycles  200
$end

--------------------------------------------------------------

             Standard Nuclear Orientation (Angstroms)
    I     Atom           X                Y                Z
 ----------------------------------------------------------------
    1      C       0.2833110398     1.1371283131     0.5654992967
    2      C       0.5783146350    -0.3854864663     0.8286297642
    3      C      -1.0863573864     1.6662357828     0.1802772757
    4      C      -0.6187900482    -1.3217771489     0.7440146097
    5      O      -1.9826802973     0.7390382424    -0.1795175972
    6      O      -1.3211113307     2.8529334982     0.1796679894
    7      O      -0.8521766189    -1.8087403927    -0.4840339159
    8      O      -1.2783752392    -1.6151905874     1.7138859469
    9      C      -2.0150468419    -2.6402517907    -0.6207713626
   10      C      -3.2852723231     1.2229751780    -0.5597315507
   11      C       1.3190452846     1.4489337208    -0.5694059386
   12      C       2.7106716465     1.6011166939     0.0670322684
   13      C       3.0113801976     0.1226956504     0.4360922934
   14      C       1.7777271764    -0.6271197475    -0.1542985442
   15      O       1.4186710244     0.2111334903    -1.2736370786
   16      H       0.5394509750     1.7167320912     1.4526288185
   17      H       0.9115940121    -0.4957875147     1.8607901411
   18      H      -2.9090271086    -2.0877258442    -0.3280598127
   19      H      -3.7449208152     1.7635286303     0.2683951132
   20      H       3.4204046339     1.9788381662    -0.6707039153
   21      H       2.7119298371     2.2792863313     0.9220644152
   22      H       3.9224374810    -0.2313797194    -0.0480607612
   23      H       3.1178414014    -0.0425594480     1.5100104667
   24      H      -2.0566959757    -2.9089447519    -1.6741441295
   25      H      -1.9282433916    -3.5324608074     0.0015318311
   26      H      -3.8624188757     0.3347569279    -0.8059547721
   27      H      -3.2065760631     1.8825799765    -1.4246363569
   28      H       1.0143704973     2.2437516820    -1.2460435439
   29      C       2.0789040778    -2.0434737404    -0.5956800840
   30      H       2.9725735352    -2.0490084241    -1.2234873062
   31      H       2.2728770660    -2.6748356586     0.2766218858
   32      H       1.2504325245    -2.4679201230    -1.1570476865
 ----------------------------------------------------------------

    2    -805.1896600324      4.82E-09 Convergence criterion met
 Total energy in the final basis set = -805.18966003

                    Orbital Energies (a.u.)
 --------------------------------------------------------------

 Alpha MOs
 -- Occupied --
-19.180 -19.170 -19.132 -19.117 -19.112 -10.311 -10.305 -10.244
-10.237 -10.234 -10.229 -10.209 -10.204 -10.180 -10.180 -10.166
 -1.123  -1.113  -1.064  -1.031  -1.024  -0.831  -0.795  -0.784
 -0.745  -0.731  -0.697  -0.655  -0.605  -0.594  -0.574  -0.568
 -0.531  -0.512  -0.509  -0.494  -0.491  -0.485  -0.476  -0.472
 -0.465  -0.441  -0.425  -0.424  -0.417  -0.412  -0.399  -0.386
 -0.379  -0.370  -0.366  -0.358  -0.358  -0.352  -0.340  -0.330
 -0.321  -0.308  -0.290  -0.282  -0.273

          Ground-State Mulliken Net Atomic Charges

     Atom                 Charge (a.u.)
  ----------------------------------------
      1 C                    -0.665917
      2 C                     1.236275
      3 C                    -0.562761
      4 C                    -0.795055
      5 O                    -0.086761
      6 O                    -0.223750
      7 O                     0.042140
      8 O                    -0.158849
      9 C                    -0.209760
     10 C                    -0.180991
     11 C                     0.623120
     12 C                    -0.505989
     13 C                    -0.392632
     14 C                    -0.574320
     15 O                    -0.058068
     16 H                     0.235709
     17 H                     0.288815
     18 H                     0.175909
     19 H                     0.192281
     20 H                     0.186659
     21 H                     0.128720
     22 H                     0.159802
     23 H                     0.144857
     24 H                     0.160792
     25 H                     0.182475
     26 H                     0.126584
     27 H                     0.182326
     28 H                     0.286855
     29 C                    -0.430452
     30 H                     0.160182
     31 H                     0.155268
     32 H                     0.176535
  ----------------------------------------
  Sum of atomic charges =    -0.000000

                    Cartesian Multipole Moments
 -----------------------------------------------------------------
    Charge (ESU x 10^10)
                -0.0000
    Dipole Moment (Debye)
         X       0.5872      Y      -1.3101      Z      -0.8922
       Tot       1.6903
    Quadrupole Moments (Debye-Ang)
        XX     -82.7879     XY       2.9969     YY     -99.4804
        XZ       9.1499     YZ       3.4552     ZZ    -100.7328

 Frequency:       -46.55                  26.50                  82.33
 Force Cnst:      0.0060                 0.0015                 0.0161
 Red. Mass:       4.7071                 3.7375                 4.0243
 IR Intens:        3.058                  0.920                  3.854
 Frequency:        91.32                 104.20                 133.52
 Force Cnst:      0.0068                 0.0179                 0.0418
 Red. Mass:       1.3835                 2.7966                 3.9774
 IR Intens:        1.267                  0.071                  1.800
 Frequency:       137.12                 159.49                 168.97
 Force Cnst:      0.0320                 0.0184                 0.0517
 Red. Mass:       2.8926                 1.2268                 3.0742
 IR Intens:        0.468                  0.384                  0.343
 Frequency:       207.34                 218.22                 248.96
 Force Cnst:      0.0303                 0.1166                 0.0931
 Red. Mass:       1.1951                 4.1573                 2.5503
 IR Intens:        0.626                  0.955                  4.227
 Frequency:       261.96                 299.01                 310.02
 Force Cnst:      0.1862                 0.1716                 0.2216
 Red. Mass:       4.6062                 3.2583                 3.9132
 IR Intens:        2.038                  9.856                  2.045
 Frequency:       335.68                 354.22                 366.42
 Force Cnst:      0.2415                 0.2615                 0.2151
 Red. Mass:       3.6382                 3.5372                 2.7186
 IR Intens:        1.528                 14.391                  4.931
 Frequency:       398.88                 469.32                 576.71
 Force Cnst:      0.6655                 0.5790                 0.7693
 Red. Mass:       7.0993                 4.4613                 3.9257
 IR Intens:        2.825                  6.829                 19.808
 Frequency:       619.19                 631.32                 655.20
 Force Cnst:      1.1325                 1.1322                 1.0963
 Red. Mass:       5.0134                 4.8215                 4.3345
 IR Intens:        5.703                  4.966                  2.344
 Frequency:       705.17                 758.22                 798.81
 Force Cnst:      1.5862                 2.1181                 0.9921
 Red. Mass:       5.4139                 6.2533                 2.6389
 IR Intens:        2.838                  2.026                  9.899
 Frequency:       813.21                 843.52                 848.74
 Force Cnst:      1.8523                 1.0354                 1.6457
 Red. Mass:       4.7539                 2.4698                 3.8774
 IR Intens:       19.746                 14.668                 11.342
 Frequency:       863.21                 870.08                 895.11
 Force Cnst:      1.9709                 1.4136                 1.1316
 Red. Mass:       4.4893                 3.1693                 2.3972
 IR Intens:        2.454                  1.360                  8.627
 Frequency:       914.53                 939.91                 948.34
 Force Cnst:      1.3104                 1.4898                 1.5275
 Red. Mass:       2.6591                 2.8623                 2.8828
 IR Intens:       21.966                 15.832                  2.707
 Frequency:       979.84                 997.36                1020.27
 Force Cnst:      1.9036                 1.7256                 2.8386
 Red. Mass:       3.3653                 2.9443                 4.6283
 IR Intens:        2.621                 16.654                 50.365
 Frequency:      1035.77                1064.14                1065.89
 Force Cnst:      1.1225                 2.5065                 2.6103
 Red. Mass:       1.7758                 3.7569                 3.8995
 IR Intens:       11.191                 21.210                 79.124
 Frequency:      1128.99                1137.43                1169.43
 Force Cnst:      1.4716                 1.1853                 1.0335
 Red. Mass:       1.9595                 1.5550                 1.2827
 IR Intens:       24.289                 18.259                  1.598
 Frequency:      1170.86                1188.74                1206.98
 Force Cnst:      1.0362                 1.5263                 1.2408
 Red. Mass:       1.2829                 1.8332                 1.4456
 IR Intens:        0.941                 16.063                 16.179
 Frequency:      1208.93                1210.10                1216.45
 Force Cnst:      1.2828                 1.2862                 1.2950
 Red. Mass:       1.4898                 1.4908                 1.4853
 IR Intens:        8.151                 18.486                 14.135
 Frequency:      1248.76                1261.65                1272.35
 Force Cnst:      1.5068                 1.2234                 3.2024
 Red. Mass:       1.6400                 1.3045                 3.3575
 IR Intens:       74.359                 43.648                 59.384
 Frequency:      1291.81                1295.03                1312.59
 Force Cnst:      1.9156                 2.5087                 1.5282
 Red. Mass:       1.9483                 2.5389                 1.5054
 IR Intens:       75.126                299.833                 17.059
 Frequency:      1330.61                1335.85                1368.11
 Force Cnst:      1.7741                 1.6724                 1.5513
 Red. Mass:       1.7007                 1.5907                 1.4067
 IR Intens:       22.105                 43.917                 45.841
 Frequency:      1376.66                1417.43                1468.29
 Force Cnst:      1.6485                 1.5746                 1.5355
 Red. Mass:       1.4763                 1.3302                 1.2088
 IR Intens:        5.635                 15.058                  8.003
 Frequency:      1471.58                1479.84                1483.87
 Force Cnst:      1.5447                 1.3508                 1.3554
 Red. Mass:       1.2106                 1.0469                 1.0448
 IR Intens:       29.833                  6.579                  7.481
 Frequency:      1487.50                1493.35                1495.31
 Force Cnst:      1.3792                 1.3779                 1.4164
 Red. Mass:       1.0580                 1.0487                 1.0752
 IR Intens:        0.109                 11.342                  1.232
 Frequency:      1499.81                1509.58                1516.68
 Force Cnst:      1.3890                 1.4190                 1.4837
 Red. Mass:       1.0480                 1.0569                 1.0947
 IR Intens:        5.858                  9.497                 13.412
 Frequency:      1766.51                1770.24                3040.80
 Force Cnst:     20.1994                19.5376                 5.6724
 Red. Mass:      10.9864                10.5817                 1.0412
 IR Intens:      307.460                280.050                 15.707
 Frequency:      3049.48                3054.30                3059.20
 Force Cnst:      5.6410                 5.6581                 5.8381
 Red. Mass:       1.0296                 1.0294                 1.0588
 IR Intens:       31.533                 35.808                 28.151
 Frequency:      3069.20                3087.34                3097.04
 Force Cnst:      5.8864                 6.1087                 6.2312
 Red. Mass:       1.0606                 1.0877                 1.1026
 IR Intens:       31.989                  6.112                  3.137
 Frequency:      3101.16                3101.37                3118.15
 Force Cnst:      6.2411                 6.1614                 6.3295
 Red. Mass:       1.1014                 1.0872                 1.1049
 IR Intens:       12.534                  8.438                 42.448
 Frequency:      3121.77                3129.72                3138.69
 Force Cnst:      6.3530                 6.3905                 6.3288
 Red. Mass:       1.1064                 1.1073                 1.0904
 IR Intens:       22.145                 14.004                 14.331
 Frequency:      3154.58                3157.72                3160.27
 Force Cnst:      6.4859                 6.4449                 6.5098
 Red. Mass:       1.1062                 1.0970                 1.1063
 IR Intens:       15.005                  4.751                 12.663

 STANDARD THERMODYNAMIC QUANTITIES AT   298.15 K  AND     1.00 ATM

   This Molecule has  1 Imaginary Frequencies
   Zero point vibrational energy:      166.474 kcal/mol

   Atom    1 Element C  Has Mass   12.00000
   Atom    2 Element C  Has Mass   12.00000
   Atom    3 Element C  Has Mass   12.00000
   Atom    4 Element C  Has Mass   12.00000
   Atom    5 Element O  Has Mass   15.99491
   Atom    6 Element O  Has Mass   15.99491
   Atom    7 Element O  Has Mass   15.99491
   Atom    8 Element O  Has Mass   15.99491
   Atom    9 Element C  Has Mass   12.00000
   Atom   10 Element C  Has Mass   12.00000
   Atom   11 Element C  Has Mass   12.00000
   Atom   12 Element C  Has Mass   12.00000
   Atom   13 Element C  Has Mass   12.00000
   Atom   14 Element C  Has Mass   12.00000
   Atom   15 Element O  Has Mass   15.99491
   Atom   16 Element H  Has Mass    1.00783
   Atom   17 Element H  Has Mass    1.00783
   Atom   18 Element H  Has Mass    1.00783
   Atom   19 Element H  Has Mass    1.00783
   Atom   20 Element H  Has Mass    1.00783
   Atom   21 Element H  Has Mass    1.00783
   Atom   22 Element H  Has Mass    1.00783
   Atom   23 Element H  Has Mass    1.00783
   Atom   24 Element H  Has Mass    1.00783
   Atom   25 Element H  Has Mass    1.00783
   Atom   26 Element H  Has Mass    1.00783
   Atom   27 Element H  Has Mass    1.00783
   Atom   28 Element H  Has Mass    1.00783
   Atom   29 Element C  Has Mass   12.00000
   Atom   30 Element H  Has Mass    1.00783
   Atom   31 Element H  Has Mass    1.00783
   Atom   32 Element H  Has Mass    1.00783
   Molecular Mass:   228.099830 amu
   Principal axes and moments of inertia in amu*Bohr^2:
                             1           2           3
    Eigenvalues --     2571.85999  3300.17041  4908.09350
          X               0.99960    -0.01659     0.02307
          Y               0.01627     0.99977     0.01389
          Z              -0.02330    -0.01351     0.99964
   Rotational Symmetry Number is   1
   The Molecule is an Asymmetric Top
   Translational Enthalpy:        0.889 kcal/mol
   Rotational Enthalpy:           0.889 kcal/mol
   Vibrational Enthalpy:        174.100 kcal/mol
   gas constant (RT):             0.592 kcal/mol
   Translational Entropy:        42.176  cal/mol.K
   Rotational Entropy:           32.099  cal/mol.K
   Vibrational Entropy:          48.168  cal/mol.K

   Total Enthalpy:              176.470 kcal/mol
   Total Entropy:               122.443  cal/mol.K

 Total job time:  3094.51s(wall), 25512.64s(cpu)
        *  Thank you very much for using Q-Chem.  Have a nice day.  *
