                               Psi4 1.1 release

  ==> Input File <==

--------------------------------------------------------------------------
memory 750000 mb

molecule mol {
0 1
C         -0.93256        1.21620       -0.27123
O         -1.22711        1.72316       -1.32432
O         -0.82809        1.87798        0.89302
C         -0.90313        3.31363        0.80447
H         -1.85300        3.62249        0.36564
H         -0.07924        3.68605        0.19416
H         -0.81675        3.67112        1.82804
--
0 1
C          1.73790        0.00516       -0.09870
O          1.72605        1.19282       -0.32983
O          2.87820       -0.69687        0.07094
C          4.10114        0.04916       -0.05920
H          4.16549        0.50520       -1.04813
H          4.89777       -0.67789        0.08191
H          4.15401        0.83005        0.70091
--
0 1
C         -3.28435       -0.44985       -0.11159
H         -4.05494       -1.20225        0.06389
H         -3.44468       -0.02014       -1.10364
H         -3.42515        0.35288        0.61764
H          1.62267       -2.68116        0.24959
C          0.52342       -0.85140        0.01899
C         -0.74989       -0.26484       -0.07041
C          0.63920       -2.23704        0.18636
C         -0.50036       -3.02574        0.26541
C         -1.75889       -2.43773        0.17149
C         -1.90684       -1.05914       -0.00101
H         -2.64746       -3.05726        0.23328
H         -0.41097       -4.09793        0.39739

symmetry c1
no_reorient
no_com
}

set {
basis jun-cc-pvdz
scf_type df
guess sad
freeze_core true
}

energy('fisapt0')
--------------------------------------------------------------------------

    Molecular point group: c1

    Geometry (in Angstrom), charge = 0, multiplicity = 1:

       Center              X                  Y                   Z               Mass
    ------------   -----------------  -----------------  -----------------  -----------------
           C         -0.932560000000     1.216200000000    -0.271230000000    12.000000000000
           O         -1.227110000000     1.723160000000    -1.324320000000    15.994914619560
           O         -0.828090000000     1.877980000000     0.893020000000    15.994914619560
           C         -0.903130000000     3.313630000000     0.804470000000    12.000000000000
           H         -1.853000000000     3.622490000000     0.365640000000     1.007825032070
           H         -0.079240000000     3.686050000000     0.194160000000     1.007825032070
           H         -0.816750000000     3.671120000000     1.828040000000     1.007825032070
           C          1.737900000000     0.005160000000    -0.098700000000    12.000000000000
           O          1.726050000000     1.192820000000    -0.329830000000    15.994914619560
           O          2.878200000000    -0.696870000000     0.070940000000    15.994914619560
           C          4.101140000000     0.049160000000    -0.059200000000    12.000000000000
           H          4.165490000000     0.505200000000    -1.048130000000     1.007825032070
           H          4.897770000000    -0.677890000000     0.081910000000     1.007825032070
           H          4.154010000000     0.830050000000     0.700910000000     1.007825032070
           C         -3.284350000000    -0.449850000000    -0.111590000000    12.000000000000
           H         -4.054940000000    -1.202250000000     0.063890000000     1.007825032070
           H         -3.444680000000    -0.020140000000    -1.103640000000     1.007825032070
           H         -3.425150000000     0.352880000000     0.617640000000     1.007825032070
           H          1.622670000000    -2.681160000000     0.249590000000     1.007825032070
           C          0.523420000000    -0.851400000000     0.018990000000    12.000000000000
           C         -0.749890000000    -0.264840000000    -0.070410000000    12.000000000000
           C          0.639200000000    -2.237040000000     0.186360000000    12.000000000000
           C         -0.500360000000    -3.025740000000     0.265410000000    12.000000000000
           C         -1.758890000000    -2.437730000000     0.171490000000    12.000000000000
           C         -1.906840000000    -1.059140000000    -0.001010000000    12.000000000000
           H         -2.647460000000    -3.057260000000     0.233280000000     1.007825032070
           H         -0.410970000000    -4.097930000000     0.397390000000     1.007825032070

  Charge       = 0
  Multiplicity = 1
  Basis Set: JUN-CC-PVDZ
    Blend: JUN-CC-PVDZ
  Basis Set: (JUN-CC-PVDZ AUX)
    Blend: JUN-CC-PVDZ-JKFIT

    Orbital Energies (a.u.)
    -----------------------

    Doubly Occupied:

       1A    -20.615792     2A    -20.604424     3A    -20.560014
       4A    -20.550059     5A    -11.399525     6A    -11.391180
       7A    -11.299331     8A    -11.287261     9A    -11.274603
      10A    -11.271535    11A    -11.267347    12A    -11.260672
      13A    -11.260199    14A    -11.256436    15A    -11.238515
      16A     -1.472557    17A     -1.460838    18A     -1.370578
      19A     -1.361103    20A     -1.183877    21A     -1.076052
      22A     -1.062082    23A     -0.994280    24A     -0.969270
      25A     -0.946100    26A     -0.882751    27A     -0.844478
      28A     -0.784951    29A     -0.778207    30A     -0.736334
      31A     -0.712306    32A     -0.687421    33A     -0.678592
      34A     -0.674094    35A     -0.671707    36A     -0.654735
      37A     -0.637064    38A     -0.611470    39A     -0.592037
      40A     -0.584959    41A     -0.579182    42A     -0.563676
      43A     -0.556608    44A     -0.541107    45A     -0.537061
      46A     -0.530047    47A     -0.521166    48A     -0.510261
      49A     -0.500699    50A     -0.471388    51A     -0.457265
      52A     -0.453105    53A     -0.445704    54A     -0.356522
      55A     -0.342234

  @DF-RHF Final Energy:  -723.08671290052541

   => Energetics <=

    Nuclear Repulsion Energy =           1007.0945642430471025
    One-Electron Energy =               -2987.7010349054517064
    Two-Electron Energy =                1257.5197577618791911
    DFT Exchange-Correlation Energy =       0.0000000000000000
    Empirical Dispersion Energy =           0.0000000000000000
    PCM Polarization Energy =               0.0000000000000000
    EFP Energy =                            0.0000000000000000
    Total Energy =                       -723.0867129005255265
  Basis Set: (JUN-CC-PVDZ AUX)
    Blend: JUN-CC-PVDZ-JKFIT
  Basis Set: (JUN-CC-PVDZ AUX)
    Blend: JUN-CC-PVDZ-JKFIT
  Basis Set: (JUN-CC-PVDZ AUX)
    Blend: JUN-CC-PVDZ-JKFIT
  Basis Set: (JUN-CC-PVDZ AUX)
    Blend: JUN-CC-PVDZ-JKFIT
  Basis Set: (JUN-CC-PVDZ AUX)
    Blend: JUN-CC-PVDZ-RI

    SAPT Results
  --------------------------------------------------------------------------------------------------------
    Electrostatics                 12.11919972 [mEh]       7.60491296 [kcal/mol]      31.81895886 [kJ/mol]
      Elst10,r                     12.11919972 [mEh]       7.60491296 [kcal/mol]      31.81895886 [kJ/mol]

    Exchange                        7.99351755 [mEh]       5.01600820 [kcal/mol]      20.98698033 [kJ/mol]
      Exch10                        7.99351755 [mEh]       5.01600820 [kcal/mol]      20.98698033 [kJ/mol]
      Exch10(S^2)                   7.95824469 [mEh]       4.99387415 [kcal/mol]      20.89437144 [kJ/mol]

    Induction                      -2.90137285 [mEh]      -1.82063903 [kcal/mol]      -7.61755443 [kJ/mol]
      Ind20,r                      -4.91720857 [mEh]      -3.08559509 [kcal/mol]     -12.91013110 [kJ/mol]
      Exch-Ind20,r                  2.82982032 [mEh]       1.77573913 [kcal/mol]       7.42969325 [kJ/mol]
      delta HF,r (2)               -0.81398460 [mEh]      -0.51078307 [kcal/mol]      -2.13711657 [kJ/mol]
      Induction (A<-B)             -1.35493310 [mEh]      -0.85023339 [kcal/mol]      -3.55737684 [kJ/mol]
      Induction (B<-A)             -1.54643976 [mEh]      -0.97040564 [kcal/mol]      -4.06017758 [kJ/mol]

    Dispersion                     -3.47687888 [mEh]      -2.18177453 [kcal/mol]      -9.12854550 [kJ/mol]
      Disp20                       -4.09460418 [mEh]      -2.56940302 [kcal/mol]     -10.75038326 [kJ/mol]
      Exch-Disp20                   0.61772529 [mEh]       0.38762849 [kcal/mol]       1.62183776 [kJ/mol]

  Total HF                         17.21134441 [mEh]      10.80028213 [kcal/mol]      45.18838476 [kJ/mol]
  Total SAPT0                      13.73446553 [mEh]       8.61850760 [kcal/mol]      36.05983926 [kJ/mol]

  --------------------------------------------------------------------------------------------------------

*** Psi4 exiting successfully. Buy a developer a beer!
