                               Psi4 1.1 release

  ==> Input File <==

--------------------------------------------------------------------------
memory 750000 mb

molecule mol {
0 1
C         -0.26977        1.55258       -0.01368
O         -0.87738        2.59778        0.04803
O          1.07462        1.50982       -0.11135
C          1.75431        2.77291       -0.18321
H          1.61142        3.33499        0.74113
H          1.38006        3.35869       -1.02345
H          2.80404        2.52639       -0.32584
--
0 1
C          1.41158       -0.97308       -0.30650
O          1.97797       -1.03529       -1.36832
O          2.02902       -1.03435        0.88757
C          3.46675       -1.07995        0.84648
H          3.80747       -1.95782        0.29548
H          3.85872       -0.18136        0.36704
H          3.78468       -1.13024        1.88535
--
0 1
C         -3.24074        1.21513        0.26800
H         -4.26187        0.84040        0.36232
H         -3.18931        1.88550       -0.59124
H         -3.00859        1.82547        1.14246
H         -0.04368       -3.11179       -0.26601
C         -0.08472       -0.96996       -0.13685
C         -0.87994        0.18868       -0.00323
C         -0.66973       -2.23481       -0.15143
C         -2.04631       -2.36724       -0.02220
C         -2.83536       -1.23334        0.11590
C         -2.28665        0.05330        0.12432
H         -3.90949       -1.33978        0.21788
H         -2.50180       -3.35118       -0.03020

symmetry c1
no_reorient
no_com
}

set {
basis jun-cc-pvdz
scf_type df
guess sad
freeze_core true
}

energy('fisapt0')
--------------------------------------------------------------------------

    Molecular point group: c1

    Geometry (in Angstrom), charge = 0, multiplicity = 1:

       Center              X                  Y                   Z               Mass
    ------------   -----------------  -----------------  -----------------  -----------------
           C         -0.269770000000     1.552580000000    -0.013680000000    12.000000000000
           O         -0.877380000000     2.597780000000     0.048030000000    15.994914619560
           O          1.074620000000     1.509820000000    -0.111350000000    15.994914619560
           C          1.754310000000     2.772910000000    -0.183210000000    12.000000000000
           H          1.611420000000     3.334990000000     0.741130000000     1.007825032070
           H          1.380060000000     3.358690000000    -1.023450000000     1.007825032070
           H          2.804040000000     2.526390000000    -0.325840000000     1.007825032070
           C          1.411580000000    -0.973080000000    -0.306500000000    12.000000000000
           O          1.977970000000    -1.035290000000    -1.368320000000    15.994914619560
           O          2.029020000000    -1.034350000000     0.887570000000    15.994914619560
           C          3.466750000000    -1.079950000000     0.846480000000    12.000000000000
           H          3.807470000000    -1.957820000000     0.295480000000     1.007825032070
           H          3.858720000000    -0.181360000000     0.367040000000     1.007825032070
           H          3.784680000000    -1.130240000000     1.885350000000     1.007825032070
           C         -3.240740000000     1.215130000000     0.268000000000    12.000000000000
           H         -4.261870000000     0.840400000000     0.362320000000     1.007825032070
           H         -3.189310000000     1.885500000000    -0.591240000000     1.007825032070
           H         -3.008590000000     1.825470000000     1.142460000000     1.007825032070
           H         -0.043680000000    -3.111790000000    -0.266010000000     1.007825032070
           C         -0.084720000000    -0.969960000000    -0.136850000000    12.000000000000
           C         -0.879940000000     0.188680000000    -0.003230000000    12.000000000000
           C         -0.669730000000    -2.234810000000    -0.151430000000    12.000000000000
           C         -2.046310000000    -2.367240000000    -0.022200000000    12.000000000000
           C         -2.835360000000    -1.233340000000     0.115900000000    12.000000000000
           C         -2.286650000000     0.053300000000     0.124320000000    12.000000000000
           H         -3.909490000000    -1.339780000000     0.217880000000     1.007825032070
           H         -2.501800000000    -3.351180000000    -0.030200000000     1.007825032070

  Charge       = 0
  Multiplicity = 1
  Basis Set: JUN-CC-PVDZ
    Blend: JUN-CC-PVDZ
  Basis Set: (JUN-CC-PVDZ AUX)
    Blend: JUN-CC-PVDZ-JKFIT

    Orbital Energies (a.u.)
    -----------------------

    Doubly Occupied:

       1A    -20.614248     2A    -20.611925     3A    -20.557234
       4A    -20.555507     5A    -11.399471     6A    -11.398369
       7A    -11.299090     8A    -11.297244     9A    -11.282276
      10A    -11.276328    11A    -11.272929    12A    -11.265758
      13A    -11.257123    14A    -11.251201    15A    -11.230628
      16A     -1.474754    17A     -1.466084    18A     -1.369079
      19A     -1.367069    20A     -1.183903    21A     -1.074742
      22A     -1.065118    23A     -0.995513    24A     -0.975344
      25A     -0.944787    26A     -0.885180    27A     -0.840868
      28A     -0.790370    29A     -0.780348    30A     -0.740001
      31A     -0.710736    32A     -0.694650    33A     -0.681146
      34A     -0.675036    35A     -0.671089    36A     -0.660858
      37A     -0.644339    38A     -0.610922    39A     -0.590708
      40A     -0.584542    41A     -0.583017    42A     -0.559797
      43A     -0.550273    44A     -0.545981    45A     -0.540098
      46A     -0.530506    47A     -0.520450    48A     -0.512109
      49A     -0.503077    50A     -0.473229    51A     -0.458828
      52A     -0.455382    53A     -0.447332    54A     -0.358751
      55A     -0.342880

  @DF-RHF Final Energy:  -723.08054164368059

   => Energetics <=

    Nuclear Repulsion Energy =           1013.5239236836439431
    One-Electron Energy =               -3000.3524848849474438
    Two-Electron Energy =                1263.7480195576229107
    DFT Exchange-Correlation Energy =       0.0000000000000000
    Empirical Dispersion Energy =           0.0000000000000000
    PCM Polarization Energy =               0.0000000000000000
    EFP Energy =                            0.0000000000000000
    Total Energy =                       -723.0805416436805899
  Basis Set: (JUN-CC-PVDZ AUX)
    Blend: JUN-CC-PVDZ-JKFIT
  Basis Set: (JUN-CC-PVDZ AUX)
    Blend: JUN-CC-PVDZ-JKFIT
  Basis Set: (JUN-CC-PVDZ AUX)
    Blend: JUN-CC-PVDZ-JKFIT
  Basis Set: (JUN-CC-PVDZ AUX)
    Blend: JUN-CC-PVDZ-JKFIT
  Basis Set: (JUN-CC-PVDZ AUX)
    Blend: JUN-CC-PVDZ-RI

    SAPT Results
  --------------------------------------------------------------------------------------------------------
    Electrostatics                 10.18585005 [mEh]       6.39171767 [kcal/mol]      26.74294931 [kJ/mol]
      Elst10,r                     10.18585005 [mEh]       6.39171767 [kcal/mol]      26.74294931 [kJ/mol]

    Exchange                       10.19758531 [mEh]       6.39908166 [kcal/mol]      26.77376023 [kJ/mol]
      Exch10                       10.19758531 [mEh]       6.39908166 [kcal/mol]      26.77376023 [kJ/mol]
      Exch10(S^2)                  10.14710189 [mEh]       6.36740283 [kcal/mol]      26.64121602 [kJ/mol]

    Induction                      -3.08406368 [mEh]      -1.93527926 [kcal/mol]      -8.09720920 [kJ/mol]
      Ind20,r                      -4.73226241 [mEh]      -2.96953962 [kcal/mol]     -12.42455495 [kJ/mol]
      Exch-Ind20,r                  2.69288410 [mEh]       1.68981035 [kcal/mol]       7.07016720 [kJ/mol]
      delta HF,r (2)               -1.04468537 [mEh]      -0.65555000 [kcal/mol]      -2.74282145 [kJ/mol]
      Induction (A<-B)             -2.39661608 [mEh]      -1.50389936 [kcal/mol]      -6.29231551 [kJ/mol]
      Induction (B<-A)             -0.68744761 [mEh]      -0.43137991 [kcal/mol]      -1.80489370 [kJ/mol]

    Dispersion                     -4.33866855 [mEh]      -2.72255573 [kcal/mol]     -11.39117427 [kJ/mol]
      Disp20                       -5.03277127 [mEh]      -3.15811178 [kcal/mol]     -13.21354096 [kJ/mol]
      Exch-Disp20                   0.69410272 [mEh]       0.43555605 [kcal/mol]       1.82236669 [kJ/mol]

  Total HF                         17.29937168 [mEh]      10.85552007 [kcal/mol]      45.41950034 [kJ/mol]
  Total SAPT0                      12.96070313 [mEh]       8.13296434 [kcal/mol]      34.02832606 [kJ/mol]

  --------------------------------------------------------------------------------------------------------

*** Psi4 exiting successfully. Buy a developer a beer!
