                               Psi4 1.1 release

  ==> Input File <==

--------------------------------------------------------------------------
memory 750000 mb

molecule mol {
0 1
C         -2.87124        1.65557        0.30644
H         -3.95623        1.55682        0.24662
H         -2.55394        2.35968       -0.46800
H         -2.61155        2.10128        1.26820
--
0 1
C          0.04446        1.39608        0.13019
O          0.01640        2.22556        1.00541
O          0.82687        1.48592       -0.96546
C          1.76059        2.57977       -0.98292
H          1.23523        3.53485       -0.94127
H          2.30426        2.48108       -1.91980
H          2.43992        2.50648       -0.13176
--
0 1
H         -0.58726       -3.20027       -0.36033
C          1.23946       -1.35094       -0.09406
O          1.78582       -2.22329       -0.72653
O          1.88880       -0.52458        0.75091
C          3.31781       -0.67353        0.80721
H          3.58348       -1.69246        1.09127
H          3.65198        0.03606        1.56070
H          3.76001       -0.44462       -0.16413
C         -0.23514       -1.10527       -0.09387
C         -0.81117        0.16699        0.07137
C         -1.05069       -2.23148       -0.22329
C         -2.43187       -2.09829       -0.16291
C         -2.99836       -0.84057        0.01980
C         -2.20955        0.30855        0.13634
H         -4.07756       -0.74008        0.06469
H         -3.06708       -2.97186       -0.25534

symmetry c1
no_reorient
no_com
}

set {
basis jun-cc-pvdz
scf_type df
guess sad
freeze_core true
}

energy('fisapt0')
--------------------------------------------------------------------------

    Molecular point group: c1

    Geometry (in Angstrom), charge = 0, multiplicity = 1:

       Center              X                  Y                   Z               Mass
    ------------   -----------------  -----------------  -----------------  -----------------
           C         -2.871240000000     1.655570000000     0.306440000000    12.000000000000
           H         -3.956230000000     1.556820000000     0.246620000000     1.007825032070
           H         -2.553940000000     2.359680000000    -0.468000000000     1.007825032070
           H         -2.611550000000     2.101280000000     1.268200000000     1.007825032070
           C          0.044460000000     1.396080000000     0.130190000000    12.000000000000
           O          0.016400000000     2.225560000000     1.005410000000    15.994914619560
           O          0.826870000000     1.485920000000    -0.965460000000    15.994914619560
           C          1.760590000000     2.579770000000    -0.982920000000    12.000000000000
           H          1.235230000000     3.534850000000    -0.941270000000     1.007825032070
           H          2.304260000000     2.481080000000    -1.919800000000     1.007825032070
           H          2.439920000000     2.506480000000    -0.131760000000     1.007825032070
           H         -0.587260000000    -3.200270000000    -0.360330000000     1.007825032070
           C          1.239460000000    -1.350940000000    -0.094060000000    12.000000000000
           O          1.785820000000    -2.223290000000    -0.726530000000    15.994914619560
           O          1.888800000000    -0.524580000000     0.750910000000    15.994914619560
           C          3.317810000000    -0.673530000000     0.807210000000    12.000000000000
           H          3.583480000000    -1.692460000000     1.091270000000     1.007825032070
           H          3.651980000000     0.036060000000     1.560700000000     1.007825032070
           H          3.760010000000    -0.444620000000    -0.164130000000     1.007825032070
           C         -0.235140000000    -1.105270000000    -0.093870000000    12.000000000000
           C         -0.811170000000     0.166990000000     0.071370000000    12.000000000000
           C         -1.050690000000    -2.231480000000    -0.223290000000    12.000000000000
           C         -2.431870000000    -2.098290000000    -0.162910000000    12.000000000000
           C         -2.998360000000    -0.840570000000     0.019800000000    12.000000000000
           C         -2.209550000000     0.308550000000     0.136340000000    12.000000000000
           H         -4.077560000000    -0.740080000000     0.064690000000     1.007825032070
           H         -3.067080000000    -2.971860000000    -0.255340000000     1.007825032070

  Charge       = 0
  Multiplicity = 1
  Basis Set: JUN-CC-PVDZ
    Blend: JUN-CC-PVDZ
  Basis Set: (JUN-CC-PVDZ AUX)
    Blend: JUN-CC-PVDZ-JKFIT

    Orbital Energies (a.u.)
    -----------------------

    Doubly Occupied:

       1A    -20.616170     2A    -20.614802     3A    -20.560538
       4A    -20.560057     5A    -11.399264     6A    -11.399133
       7A    -11.299910     8A    -11.299165     9A    -11.275023
      10A    -11.273887    11A    -11.271218    12A    -11.259780
      13A    -11.258413    14A    -11.257549    15A    -11.237733
      16A     -1.475295    17A     -1.467968    18A     -1.371202
      19A     -1.370315    20A     -1.184869    21A     -1.074995
      22A     -1.066380    23A     -0.994188    24A     -0.977638
      25A     -0.948761    26A     -0.886411    27A     -0.843644
      28A     -0.786846    29A     -0.780365    30A     -0.742915
      31A     -0.712345    32A     -0.700067    33A     -0.683627
      34A     -0.681131    35A     -0.662180    36A     -0.657917
      37A     -0.647920    38A     -0.612630    39A     -0.591364
      40A     -0.587673    41A     -0.582228    42A     -0.564183
      43A     -0.555252    44A     -0.548354    45A     -0.541679
      46A     -0.535931    47A     -0.521454    48A     -0.512884
      49A     -0.502243    50A     -0.472607    51A     -0.462960
      52A     -0.460820    53A     -0.451571    54A     -0.356793
      55A     -0.343239

  @DF-RHF Final Energy:  -723.08546183623332

   => Energetics <=

    Nuclear Repulsion Energy =           1018.7357029149119398
    One-Electron Energy =               -3010.6353527454275536
    Two-Electron Energy =                1268.8141879942822925
    DFT Exchange-Correlation Energy =       0.0000000000000000
    Empirical Dispersion Energy =           0.0000000000000000
    PCM Polarization Energy =               0.0000000000000000
    EFP Energy =                            0.0000000000000000
    Total Energy =                       -723.0854618362332076
  Basis Set: (JUN-CC-PVDZ AUX)
    Blend: JUN-CC-PVDZ-JKFIT
  Basis Set: (JUN-CC-PVDZ AUX)
    Blend: JUN-CC-PVDZ-JKFIT
  Basis Set: (JUN-CC-PVDZ AUX)
    Blend: JUN-CC-PVDZ-JKFIT
  Basis Set: (JUN-CC-PVDZ AUX)
    Blend: JUN-CC-PVDZ-JKFIT
  Basis Set: (JUN-CC-PVDZ AUX)
    Blend: JUN-CC-PVDZ-RI

    SAPT Results
  --------------------------------------------------------------------------------------------------------
    Electrostatics                  9.16968816 [mEh]       5.75406643 [kcal/mol]      24.07501626 [kJ/mol]
      Elst10,r                      9.16968816 [mEh]       5.75406643 [kcal/mol]      24.07501626 [kJ/mol]

    Exchange                        4.53166248 [mEh]       2.84366125 [kcal/mol]      11.89787983 [kJ/mol]
      Exch10                        4.53166248 [mEh]       2.84366125 [kcal/mol]      11.89787983 [kJ/mol]
      Exch10(S^2)                   4.51558344 [mEh]       2.83357151 [kcal/mol]      11.85566432 [kJ/mol]

    Induction                      -1.44933733 [mEh]      -0.90947294 [kcal/mol]      -3.80523517 [kJ/mol]
      Ind20,r                      -2.20057018 [mEh]      -1.38087870 [kcal/mol]      -5.77759702 [kJ/mol]
      Exch-Ind20,r                  1.10951203 [mEh]       0.69622934 [kcal/mol]       2.91302383 [kJ/mol]
      delta HF,r (2)               -0.35827918 [mEh]      -0.22482359 [kcal/mol]      -0.94066198 [kJ/mol]
      Induction (A<-B)             -1.12679475 [mEh]      -0.70707441 [kcal/mol]      -2.95839962 [kJ/mol]
      Induction (B<-A)             -0.32254258 [mEh]      -0.20239853 [kcal/mol]      -0.84683554 [kJ/mol]

    Dispersion                     -2.14559299 [mEh]      -1.34637999 [kcal/mol]      -5.63325440 [kJ/mol]
      Disp20                       -2.46823389 [mEh]      -1.54884021 [kcal/mol]      -6.48034808 [kJ/mol]
      Exch-Disp20                   0.32264090 [mEh]       0.20246023 [kcal/mol]       0.84709368 [kJ/mol]

  Total HF                         12.25201330 [mEh]       7.68825474 [kcal/mol]      32.16766092 [kJ/mol]
  Total SAPT0                      10.10642031 [mEh]       6.34187475 [kcal/mol]      26.53440652 [kJ/mol]

  --------------------------------------------------------------------------------------------------------

*** Psi4 exiting successfully. Buy a developer a beer!
