                               Psi4 1.1 release

  ==> Input File <==

--------------------------------------------------------------------------
memory 750000 mb

molecule mol {
0 1
C         -3.20182       -0.67174       -0.26953
H         -3.31861       -0.00121       -1.12196
H         -3.52616       -0.11691        0.61239
H         -3.86887       -1.52480       -0.40531
--
0 1
C         -0.68726        1.17083        0.08062
O          0.29457        1.87206        0.18620
O         -1.93038        1.68746        0.01777
C         -2.01773        3.12216        0.09240
H         -1.48338        3.58005       -0.74108
H         -1.59357        3.48050        1.03120
H         -3.08063        3.34773        0.03868
--
0 1
H          1.78580       -2.71658        0.22779
C          1.90079       -0.10879        0.32602
O          2.43672        0.06267        1.39176
O          2.41599        0.25937       -0.85897
C          3.59610        1.08115       -0.79551
H          3.36459        2.01770       -0.28574
H          3.87626        1.26547       -1.83023
H          4.39689        0.56436       -0.26451
C          0.63715       -0.90790        0.13951
C         -0.64081       -0.32252        0.01904
C          0.79527       -2.29069        0.12326
C         -0.31571       -3.11119       -0.02540
C         -1.57722       -2.54445       -0.15247
C         -1.77714       -1.15931       -0.12965
H         -2.44047       -3.19028       -0.26853
H         -0.20021       -4.18910       -0.04270

symmetry c1
no_reorient
no_com
}

set {
basis jun-cc-pvdz
scf_type df
guess sad
freeze_core true
}

energy('fisapt0')
--------------------------------------------------------------------------

    Molecular point group: c1

    Geometry (in Angstrom), charge = 0, multiplicity = 1:

       Center              X                  Y                   Z               Mass
    ------------   -----------------  -----------------  -----------------  -----------------
           C         -3.201820000000    -0.671740000000    -0.269530000000    12.000000000000
           H         -3.318610000000    -0.001210000000    -1.121960000000     1.007825032070
           H         -3.526160000000    -0.116910000000     0.612390000000     1.007825032070
           H         -3.868870000000    -1.524800000000    -0.405310000000     1.007825032070
           C         -0.687260000000     1.170830000000     0.080620000000    12.000000000000
           O          0.294570000000     1.872060000000     0.186200000000    15.994914619560
           O         -1.930380000000     1.687460000000     0.017770000000    15.994914619560
           C         -2.017730000000     3.122160000000     0.092400000000    12.000000000000
           H         -1.483380000000     3.580050000000    -0.741080000000     1.007825032070
           H         -1.593570000000     3.480500000000     1.031200000000     1.007825032070
           H         -3.080630000000     3.347730000000     0.038680000000     1.007825032070
           H          1.785800000000    -2.716580000000     0.227790000000     1.007825032070
           C          1.900790000000    -0.108790000000     0.326020000000    12.000000000000
           O          2.436720000000     0.062670000000     1.391760000000    15.994914619560
           O          2.415990000000     0.259370000000    -0.858970000000    15.994914619560
           C          3.596100000000     1.081150000000    -0.795510000000    12.000000000000
           H          3.364590000000     2.017700000000    -0.285740000000     1.007825032070
           H          3.876260000000     1.265470000000    -1.830230000000     1.007825032070
           H          4.396890000000     0.564360000000    -0.264510000000     1.007825032070
           C          0.637150000000    -0.907900000000     0.139510000000    12.000000000000
           C         -0.640810000000    -0.322520000000     0.019040000000    12.000000000000
           C          0.795270000000    -2.290690000000     0.123260000000    12.000000000000
           C         -0.315710000000    -3.111190000000    -0.025400000000    12.000000000000
           C         -1.577220000000    -2.544450000000    -0.152470000000    12.000000000000
           C         -1.777140000000    -1.159310000000    -0.129650000000    12.000000000000
           H         -2.440470000000    -3.190280000000    -0.268530000000     1.007825032070
           H         -0.200210000000    -4.189100000000    -0.042700000000     1.007825032070

  Charge       = 0
  Multiplicity = 1
  Basis Set: JUN-CC-PVDZ
    Blend: JUN-CC-PVDZ
  Basis Set: (JUN-CC-PVDZ AUX)
    Blend: JUN-CC-PVDZ-JKFIT

    Orbital Energies (a.u.)
    -----------------------

    Doubly Occupied:

       1A    -20.616674     2A    -20.601236     3A    -20.558151
       4A    -20.546408     5A    -11.400485     6A    -11.389677
       7A    -11.300691     8A    -11.284932     9A    -11.279040
      10A    -11.278405    11A    -11.272595    12A    -11.265458
      13A    -11.255464    14A    -11.251993    15A    -11.238147
      16A     -1.474570    17A     -1.457844    18A     -1.370398
      19A     -1.357952    20A     -1.183344    21A     -1.074903
      22A     -1.063139    23A     -0.993040    24A     -0.968307
      25A     -0.951685    26A     -0.877535    27A     -0.844926
      28A     -0.793461    29A     -0.770667    30A     -0.733668
      31A     -0.713867    32A     -0.688195    33A     -0.679417
      34A     -0.673527    35A     -0.668805    36A     -0.658916
      37A     -0.635893    38A     -0.608132    39A     -0.589277
      40A     -0.585672    41A     -0.581019    42A     -0.561936
      43A     -0.558593    44A     -0.546069    45A     -0.536593
      46A     -0.526235    47A     -0.514860    48A     -0.504806
      49A     -0.503712    50A     -0.471379    51A     -0.457366
      52A     -0.450375    53A     -0.443627    54A     -0.357393
      55A     -0.343499

  @DF-RHF Final Energy:  -723.07973674918480

   => Energetics <=

    Nuclear Repulsion Energy =           1007.8272531620410746
    One-Electron Energy =               -2989.1860585788654134
    Two-Electron Energy =                1258.2790686676396490
    DFT Exchange-Correlation Energy =       0.0000000000000000
    Empirical Dispersion Energy =           0.0000000000000000
    PCM Polarization Energy =               0.0000000000000000
    EFP Energy =                            0.0000000000000000
    Total Energy =                       -723.0797367491848036
  Basis Set: (JUN-CC-PVDZ AUX)
    Blend: JUN-CC-PVDZ-JKFIT
  Basis Set: (JUN-CC-PVDZ AUX)
    Blend: JUN-CC-PVDZ-JKFIT
  Basis Set: (JUN-CC-PVDZ AUX)
    Blend: JUN-CC-PVDZ-JKFIT
  Basis Set: (JUN-CC-PVDZ AUX)
    Blend: JUN-CC-PVDZ-JKFIT
  Basis Set: (JUN-CC-PVDZ AUX)
    Blend: JUN-CC-PVDZ-RI

    SAPT Results
  --------------------------------------------------------------------------------------------------------
    Electrostatics                  5.94803338 [mEh]       3.73244746 [kcal/mol]      15.61656165 [kJ/mol]
      Elst10,r                      5.94803338 [mEh]       3.73244746 [kcal/mol]      15.61656165 [kJ/mol]

    Exchange                       10.52127457 [mEh]       6.60219974 [kcal/mol]      27.62360638 [kJ/mol]
      Exch10                       10.52127457 [mEh]       6.60219974 [kcal/mol]      27.62360638 [kJ/mol]
      Exch10(S^2)                  10.45588124 [mEh]       6.56116481 [kcal/mol]      27.45191620 [kJ/mol]

    Induction                      -1.59282728 [mEh]      -0.99951425 [kcal/mol]      -4.18196803 [kJ/mol]
      Ind20,r                      -2.92059583 [mEh]      -1.83270163 [kcal/mol]      -7.66802436 [kJ/mol]
      Exch-Ind20,r                  2.06556728 [mEh]       1.29616309 [kcal/mol]       5.42314690 [kJ/mol]
      delta HF,r (2)               -0.73779873 [mEh]      -0.46297571 [kcal/mol]      -1.93709057 [kJ/mol]
      Induction (A<-B)             -0.95514694 [mEh]      -0.59936378 [kcal/mol]      -2.50773830 [kJ/mol]
      Induction (B<-A)             -0.63768034 [mEh]      -0.40015047 [kcal/mol]      -1.67422973 [kJ/mol]

    Dispersion                     -3.04934561 [mEh]      -1.91349334 [kcal/mol]      -8.00605691 [kJ/mol]
      Disp20                       -3.68357756 [mEh]      -2.31147991 [kcal/mol]      -9.67123288 [kJ/mol]
      Exch-Disp20                   0.63423194 [mEh]       0.39798657 [kcal/mol]       1.66517597 [kJ/mol]

  Total HF                         14.87648067 [mEh]       9.33513295 [kcal/mol]      39.05820000 [kJ/mol]
  Total SAPT0                      11.82713506 [mEh]       7.42163961 [kcal/mol]      31.05214309 [kJ/mol]

  --------------------------------------------------------------------------------------------------------

*** Psi4 exiting successfully. Buy a developer a beer!
