 Q-Chem 5.0, Q-Chem, Inc., Pleasanton, CA (2017)
 Q-Chem 5.0.1 for Intel X86 EM64T Linux

User input:
--------------------------------------------------------------
$molecule
0 1
C -0.28306514 -1.08701608 0.53836837
C -0.78188609 0.38614421 0.82615098
C 1.12412054 -1.29755173 0.02806117
C 0.00884486 1.53872616 0.20732261
O 2.02502992 -0.84503192 0.93113802
O 1.43063834 -1.86774686 -0.98917197
O 0.87863737 1.15029551 -0.74004909
O -0.17922453 2.69920205 0.49008180
C 1.56211841 2.18869756 -1.46153031
C 3.40586320 -0.95700056 0.55093223
C -1.40481553 -1.69678271 -0.36438987
C -1.44424425 -0.91657815 -1.66792361
C -1.93982246 0.29502422 -1.39868193
C -2.20628892 0.35669792 0.09824012
C -2.64350768 -1.10403741 0.34709054
C -0.92404208 0.66055229 2.33085397
H 0.84385060 2.82017496 -1.98700093
H 3.59247457 -0.39152517 -0.36399668
H -2.01745172 1.13823829 -2.07277370
H 2.20371500 1.66938369 -2.17007802
H 2.15078882 2.80442114 -0.78026692
H 3.97255530 -0.53886036 1.38021917
H 3.67795342 -2.00097689 0.38782758
H -2.85864877 1.15631875 0.44528118
H -1.34206530 -2.77984411 -0.45495646
H -1.60381428 -0.05878695 2.79137348
H 0.04513476 0.57725858 2.82939227
H -1.31030385 1.66606640 2.49965858
H -3.57646515 -1.34384331 -0.16496332
H -2.72410303 -1.37940549 1.40140750
H -1.03286655 -1.26979889 -2.60255063
H -0.30372801 -1.61052684 1.49984940
$end

$rem
sym_ignore      true
jobtype         opt
method          b3lyp
basis           6-311++G(d,p)
dft_d           d3_op
mem_total       62000
MEM_STATIC      4000
ao2mo_disk      350000
max_scf_cycles  200
geom_opt_max_cycles 1000
geom_opt_tol_displacement 1
GEOM_OPT_TOL_GRADIENT       1
GEOM_OPT_TOL_ENERGY         1
$end

--------------------------------------------------------------

   14    -768.0390483867      6.96E-09 Convergence criterion met
 Total energy in the final basis set = -768.03904839
   12    -768.0390361451      4.27E-09 Convergence criterion met
 Total energy in the final basis set = -768.03903615
   11    -768.0390821826      9.17E-09 Convergence criterion met
 Total energy in the final basis set = -768.03908218
   12    -768.0390401352      5.12E-09 Convergence criterion met
 Total energy in the final basis set = -768.03904014
   12    -768.0390837757      4.64E-09 Convergence criterion met
 Total energy in the final basis set = -768.03908378
   10    -768.0390810261      9.14E-09 Convergence criterion met
 Total energy in the final basis set = -768.03908103
   10    -768.0390903282      7.84E-09 Convergence criterion met
 Total energy in the final basis set = -768.03909033
   10    -768.0390809044      9.45E-09 Convergence criterion met
    8    -768.0390874555      8.82E-09 Convergence criterion met
 Total energy in the final basis set = -768.03908746
    9    -768.0390864104      9.11E-09 Convergence criterion met
 Total energy in the final basis set = -768.03908641
    8    -768.0390854708      6.03E-09 Convergence criterion met
 Total energy in the final basis set = -768.03908547
    7    -768.0390857323      9.63E-09 Convergence criterion met
 Total energy in the final basis set = -768.03908573
    6    -768.0390858263      6.80E-09 Convergence criterion met
 Total energy in the final basis set = -768.03908583
    5    -768.0390858180      7.44E-09 Convergence criterion met
 Total energy in the final basis set = -768.03908582
 Final energy is   -768.039085817980
 **  OPTIMIZATION CONVERGED  **
 Total job time:  1068.80s(wall), 15549.40s(cpu)
        *  Thank you very much for using Q-Chem.  Have a nice day.  *

User input: 2 of 2

r0213.ten.osc.edu 10.25.156
Q-Chem Developer Version! Running on 10.25.156.*
                  Welcome to Q-Chem
     A Quantum Leap Into The Future Of Chemistry

 Q-Chem 5.0, Q-Chem, Inc., Pleasanton, CA (2017)

 Yihan Shao,  Zhengting Gan,  E. Epifanovsky,  A. T. B. Gilbert,  M. Wormit,
 J. Kussmann,  A. W. Lange,  A. Behn,  Jia Deng,  Xintian Feng,  D. Ghosh,
 M. Goldey,  P. R. Horn,  L. D. Jacobson,  I. Kaliman,  T. Kus,  A. Landau,
 Jie Liu,  E. I. Proynov,  R. M. Richard,  R. P. Steele,  E. J. Sundstrom,
 H. L. Woodcock III,  P. M. Zimmerman,  D. Zuev,  B. Albrecht,  E. Alguire,
 S. A. Baeppler,  Z. Benda,  Y. A. Bernard,  E. J. Berquist,  K. B. Bravaya,
 D. Casanova,  Chun-Min Chang,  Yunqing Chen,  A. Chien,  K. D. Closser,
 M. P. Coons,  S. Dasgupta,  M. Diedenhofen,  Hainam Do,  R. G. Edgar,
 Po-Tung Fang,  S. Fatehi,  Qingguo Feng,  Qinghui Ge,  A. Ghysels,
 J. Gomes,  J. Gonthier,  A. Gunina,  M. W. D. Hanson-Heine,
 P. H. P. Harbach,  A. W. Hauser,  J. E. Herr,  E. G. Hohenstein,
 Z. C. Holden,  Kerwin Hui,  T.-C. Jagau,  Hyunjun Ji,  B. Kaduk,
 K. Khistyaev,  Jaehoon Kim,  P. Klunzinger,  K. Koh,  D. Kosenkov,
 T. Kowalczyk,  C. M. Krauter,  A. Kunitsa,  Ka Un Lao,  A. Laurent,
 K. V. Lawler,  Joonho Lee,  D. Lefrancois,  S. Lehtola,  D. S. Levine,
 Yi-Pei Li,  You-Sheng Lin,  Fenglai Liu,  E. Livshits,  A. Luenser,
 P. Manohar,  E. Mansoor,  S. F. Manzer,  Shan-Ping Mao,  Yuezhi Mao,
 N. Mardirossian,  A. V. Marenich,  L. A. Martinez-Martinez,  S. A. Maurer,
 N. J. Mayhall,  S. C. McKenzie,  J.-M. Mewes,  A. F. Morrison,  K. Nanda,
 T. S. Nguyen-Beck,  R. Olivares-Amaya,  J. A. Parkhill,  T. M. Perrine,
 F. Plasser,  S. Prager,  A. Prociuk,  D. R. Rehn,  F. Rob,  M. Schneider,
 N. Sergueev,  S. M. Sharada,  S. Sharma,  D. W. Small,  T. Stauch,
 T. Stein,  Yu-Chuan Su,  A. J. W. Thom,  T. Tsuchimochi,  L. Vogt,
 O. Vydrov,  M. A. Watson,  J. Wenzel,  M. de Wergifosse,  T. A. Wesolowski,
 A. White,  J. Witte,  A. Yamada,  Jun Yang,  K. Yao,  S. Yeganeh,
 S. R. Yost,  Zhi-Qiang You,  A. Zech,  Igor Ying Zhang,  Xing Zhang,
 Yan Zhao,  Ying Zhu,  B. R. Brooks,  G. K. L. Chan,  C. J. Cramer,
 M. S. Gordon,  W. J. Hehre,  A. Klamt,  M. W. Schmidt,  C. D. Sherrill,
 D. G. Truhlar,  A. Aspuru-Guzik,  R. Baer,  A. T. Bell,  N. A. Besley,
 Jeng-Da Chai,  A. Dreuw,  B. D. Dunietz,  T. R. Furlani,  Chao-Ping Hsu,
 Yousung Jung,  Jing Kong,  D. S. Lambrecht,  WanZhen Liang,  C. Ochsenfeld,
 V. A. Rassolov,  L. V. Slipchenko,  J. E. Subotnik,  T. Van Voorhis,
 J. M. Herbert,  A. I. Krylov,  P. M. W. Gill,  M. Head-Gordon

 Contributors to earlier versions of Q-Chem not listed above:
 R. D. Adamson,  B. Austin,  J. Baker,  G. J. O. Beran,  K. Brandhorst,
 S. T. Brown,  E. F. C. Byrd,  A. K. Chakraborty,  C.-L. Cheng,
 Siu Hung Chien,  D. M. Chipman,  D. L. Crittenden,  H. Dachsel,
 R. A. DiStasio Jr.,  R. J. Doerksen,  A. D. Dutoi,  L. Fusti-Molnar,
 W. A. Goddard III,  A. Golubeva-Zadorozhnaya,  S. R. Gwaltney,  G. Hawkins,
 A. Heyden,  S. Hirata,  G. Kedziora,  F. J. Keil,  C. Kelley,  Jihan Kim,
 R. A. King,  R. Z. Khaliullin,  P. P. Korambath,  W. Kurlancheek,
 A. M. Lee,  M. S. Lee,  S. V. Levchenko,  Ching Yeh Lin,  D. Liotard,
 R. C. Lochan,  I. Lotan,  P. E. Maslen,  N. Nair,  D. P. O'Neill,
 D. Neuhauser,  E. Neuscamman,  C. M. Oana,  R. Olson,  B. Peters,
 R. Peverati,  P. A. Pieniazek,  Y. M. Rhee,  J. Ritchie,  M. A. Rohrdanz,
 E. Rosta,  N. J. Russ,  H. F. Schaefer III,  N. E. Schultz,  N. Shenvi,
 A. C. Simmonett,  A. Sodt,  D. Stuck,  K. S. Thanthiriwatte,  V. Vanovschi,
 Tao Wang,  A. Warshel,  C. F. Williams,  Q. Wu,  X. Xu,  W. Zhang

 Please cite Q-Chem as follows:
 Y. Shao et al., Mol. Phys. 113, 184-215 (2015)
 DOI: 10.1080/00268976.2014.952696

 Q-Chem 5.0.1 for Intel X86 EM64T Linux

 Parts of Q-Chem use Armadillo 5.200.1 (Boston Tea Smuggler).
 http://arma.sourceforge.net/

 Q-Chem begins on Tue Oct 24 03:30:15 2017

Host: r0213.ten.osc.edu
0

     Scratch files written to /tmp/pbstmp.1324356/02//
Processing $rem in /users/PAS0291/osu6415/.qchemrc.
molden_format             true
The previous job contains 0 fragments, simply inherited here

Checking the input file for inconsistencies... 	...done.

--------------------------------------------------------------
User input:
--------------------------------------------------------------

$molecule
read
$end

$rem
sym_ignore      true
scf_guess       read
jobtype         freq
method          b3lyp
basis           6-311++G(d,p)
dft_d           d3_op
mem_total       62000
MEM_STATIC      4000
ao2mo_disk      350000
max_scf_cycles  200
$end
--------------------------------------------------------------

             Standard Nuclear Orientation (Angstroms)
    I     Atom           X                Y                Z
 ----------------------------------------------------------------
    1      C      -0.2826434763    -1.0866030622     0.5481922999
    2      C      -0.7841383197     0.3882024437     0.8269381477
    3      C       1.1209920756    -1.2940266306     0.0260917696
    4      C       0.0220450224     1.5382759005     0.2241470518
    5      O       2.0282741587    -0.8463076460     0.9252870329
    6      O       1.4208950234    -1.8494373044    -1.0010830373
    7      O       0.8564934372     1.1535457760    -0.7563050572
    8      O      -0.1198893420     2.6939326804     0.5498786290
    9      C       1.5602841551     2.1916506628    -1.4579960552
   10      C       3.4062206875    -0.9519156878     0.5323680540
   11      C      -1.4057406103    -1.7029027810    -0.3503391935
   12      C      -1.4379282500    -0.9372027480    -1.6626727748
   13      C      -1.9279242905     0.2796458284    -1.4080566960
   14      C      -2.2015979876     0.3584827256     0.0861663984
   15      C      -2.6458477517    -1.0984408132     0.3483024315
   16      C      -0.9437494437     0.6615557911     2.3305144820
   17      H       0.8543132228     2.8474746181    -1.9704154626
   18      H       3.5837561085    -0.3783803865    -0.3793194618
   19      H      -1.9978762429     1.1156177773    -2.0918768971
   20      H       2.1900252767     1.6733974348    -2.1779095112
   21      H       2.1618850936     2.7824497798    -0.7661457806
   22      H       3.9790628029    -0.5397173456     1.3603663444
   23      H       3.6788553725    -1.9939145920     0.3579670590
   24      H      -2.8535527129     1.1635675749     0.4215827742
   25      H      -1.3461951178    -2.7871168523    -0.4290372965
   26      H      -1.6224442312    -0.0622605241     2.7849523930
   27      H       0.0211792731     0.5859416879     2.8384049855
   28      H      -1.3374409634     1.6645328454     2.4963039273
   29      H      -3.5764588926    -1.3400403048    -0.1671355823
   30      H      -2.7346041374    -1.3623731274     1.4047297041
   31      H      -1.0240760199    -1.3016933694    -2.5917159849
   32      H      -0.2967921499    -1.6040520511     1.5127308365
 ----------------------------------------------------------------

    2    -768.0390858180      4.76E-09 Convergence criterion met
 Total energy in the final basis set = -768.03908582

                    Orbital Energies (a.u.)
 --------------------------------------------------------------

 Alpha MOs
 -- Occupied --
-19.174 -19.169 -19.114 -19.112 -10.304 -10.303 -10.231 -10.228
-10.214 -10.200 -10.194 -10.189 -10.177 -10.170 -10.169 -10.167
 -1.118  -1.109  -1.027  -1.024  -0.901  -0.801  -0.767  -0.743
 -0.727  -0.710  -0.678  -0.627  -0.588  -0.567  -0.562  -0.540
 -0.532  -0.521  -0.498  -0.495  -0.481  -0.475  -0.462  -0.458
 -0.438  -0.434  -0.420  -0.413  -0.398  -0.398  -0.383  -0.381
 -0.375  -0.363  -0.356  -0.355  -0.345  -0.338  -0.321  -0.320
 -0.308  -0.286  -0.278  -0.249

          Ground-State Mulliken Net Atomic Charges

     Atom                 Charge (a.u.)
  ----------------------------------------
      1 C                     0.550364
      2 C                     0.124688
      3 C                    -0.969335
      4 C                    -0.525135
      5 O                    -0.024107
      6 O                    -0.186631
      7 O                    -0.032602
      8 O                    -0.199269
      9 C                    -0.242462
     10 C                    -0.184713
     11 C                     0.203244
     12 C                    -0.300301
     13 C                    -0.515264
     14 C                     0.395734
     15 C                    -0.728963
     16 C                    -0.300822
     17 H                     0.179121
     18 H                     0.173499
     19 H                     0.142717
     20 H                     0.164903
     21 H                     0.195283
     22 H                     0.153074
     23 H                     0.171839
     24 H                     0.275570
     25 H                     0.263347
     26 H                     0.132502
     27 H                     0.167515
     28 H                     0.187578
     29 H                     0.188273
     30 H                     0.114160
     31 H                     0.171338
     32 H                     0.254857
  ----------------------------------------
  Sum of atomic charges =    -0.000000

                    Cartesian Multipole Moments
 -----------------------------------------------------------------
    Charge (ESU x 10^10)
                -0.0000
    Dipole Moment (Debye)
         X       0.7460      Y      -0.4574      Z       0.4254
       Tot       0.9730
    Quadrupole Moments (Debye-Ang)
        XX     -86.1107     XY       4.4269     YY    -102.5343
        XZ      -0.6911     YZ      -9.1948     ZZ     -94.5729

 Frequency:        40.68                  69.79                  85.04
 Force Cnst:      0.0070                 0.0111                 0.0146
 Red. Mass:       7.2128                 3.8621                 3.4330
 IR Intens:        2.255                  0.848                  1.139
 Frequency:        98.85                 110.32                 136.33
 Force Cnst:      0.0214                 0.0194                 0.0295
 Red. Mass:       3.7192                 2.7034                 2.6963
 IR Intens:        1.147                  1.082                  1.397
 Frequency:       146.82                 155.22                 205.66
 Force Cnst:      0.0200                 0.0150                 0.1014
 Red. Mass:       1.5787                 1.0533                 4.0676
 IR Intens:        0.114                  0.008                  3.350
 Frequency:       228.21                 235.53                 257.25
 Force Cnst:      0.1226                 0.0350                 0.1730
 Red. Mass:       3.9960                 1.0720                 4.4357
 IR Intens:        5.250                  0.168                  0.953
 Frequency:       282.76                 284.73                 328.12
 Force Cnst:      0.2042                 0.1705                 0.2005
 Red. Mass:       4.3355                 3.5691                 3.1608
 IR Intens:        3.366                 11.655                  0.309
 Frequency:       348.95                 376.02                 387.46
 Force Cnst:      0.2704                 0.5094                 0.3375
 Red. Mass:       3.7688                 6.1147                 3.8155
 IR Intens:        3.268                 14.068                  1.030
 Frequency:       422.00                 486.48                 526.30
 Force Cnst:      0.4261                 0.3871                 0.8434
 Red. Mass:       4.0615                 2.7760                 5.1681
 IR Intens:        1.160                  2.916                 12.883
 Frequency:       550.11                 656.93                 710.22
 Force Cnst:      0.4305                 0.9252                 0.8906
 Red. Mass:       2.4145                 3.6387                 2.9968
 IR Intens:        2.586                  5.369                 21.761
 Frequency:       726.06                 757.91                 778.23
 Force Cnst:      0.9781                 1.3161                 1.6608
 Red. Mass:       3.1490                 3.8888                 4.6543
 IR Intens:       14.960                  6.451                  7.558
 Frequency:       804.04                 812.51                 850.56
 Force Cnst:      1.6036                 2.0258                 1.5143
 Red. Mass:       4.2102                 5.2081                 3.5527
 IR Intens:        4.139                  8.492                 19.886
 Frequency:       864.70                 889.27                 906.36
 Force Cnst:      1.3482                 1.2231                 1.2420
 Red. Mass:       3.0603                 2.6250                 2.5661
 IR Intens:        9.432                 14.237                  5.210
 Frequency:       922.25                 946.42                 950.09
 Force Cnst:      1.1569                 1.4002                 1.1024
 Red. Mass:       2.3085                 2.6532                 2.0729
 IR Intens:        4.323                  3.983                  4.442
 Frequency:       955.72                 982.80                 987.84
 Force Cnst:      1.2374                 1.1943                 0.9476
 Red. Mass:       2.2993                 2.0986                 1.6482
 IR Intens:        7.021                  0.423                  1.551
 Frequency:      1007.99                1057.40                1063.25
 Force Cnst:      2.5121                 1.6919                 1.2460
 Red. Mass:       4.1964                 2.5682                 1.8707
 IR Intens:       12.558                 39.474                  6.488
 Frequency:      1103.99                1115.29                1129.06
 Force Cnst:      1.3785                 1.4265                 1.0847
 Red. Mass:       1.9197                 1.9465                 1.4442
 IR Intens:       12.186                  7.022                  6.000
 Frequency:      1152.91                1154.39                1172.25
 Force Cnst:      1.5727                 1.0661                 1.0433
 Red. Mass:       2.0083                 1.3578                 1.2886
 IR Intens:       37.781                 16.196                  2.567
 Frequency:      1173.72                1193.24                1196.26
 Force Cnst:      1.0405                 1.9438                 1.5987
 Red. Mass:       1.2819                 2.3171                 1.8961
 IR Intens:        4.470                 76.870                138.159
 Frequency:      1209.49                1214.00                1235.83
 Force Cnst:      1.3963                 1.5267                 1.8557
 Red. Mass:       1.6201                 1.7581                 2.0622
 IR Intens:       49.236                 67.991                 69.199
 Frequency:      1260.23                1281.56                1282.10
 Force Cnst:      1.7833                 1.4846                 1.4832
 Red. Mass:       1.9058                 1.5342                 1.5314
 IR Intens:      118.999                 43.836                 12.220
 Frequency:      1290.12                1321.03                1356.97
 Force Cnst:      1.8762                 1.8280                 1.8748
 Red. Mass:       1.9132                 1.7779                 1.7281
 IR Intens:       72.008                 44.038                 11.840
 Frequency:      1383.17                1415.28                1468.00
 Force Cnst:      1.8698                 1.4289                 1.5228
 Red. Mass:       1.6588                 1.2108                 1.1994
 IR Intens:       24.461                 10.454                  7.608
 Frequency:      1469.25                1483.51                1485.61
 Force Cnst:      1.5171                 1.3549                 1.3654
 Red. Mass:       1.1928                 1.0449                 1.0500
 IR Intens:       20.926                  5.547                  9.356
 Frequency:      1493.95                1497.71                1499.24
 Force Cnst:      1.3764                 1.3848                 1.3876
 Red. Mass:       1.0467                 1.0478                 1.0477
 IR Intens:        3.875                 12.679                  7.427
 Frequency:      1503.84                1522.26                1635.21
 Force Cnst:      1.4224                 1.4898                 8.9543
 Red. Mass:       1.0675                 1.0912                 5.6837
 IR Intens:        1.797                 11.967                  2.802
 Frequency:      1768.81                1790.72                3041.78
 Force Cnst:     21.0562                22.0351                 5.7361
 Red. Mass:      11.4227                11.6630                 1.0522
 IR Intens:      292.379                197.593                  6.135
 Frequency:      3045.03                3046.91                3049.17
 Force Cnst:      5.7993                 5.6584                 5.6410
 Red. Mass:       1.0615                 1.0345                 1.0298
 IR Intens:       23.620                 23.411                 36.867
 Frequency:      3059.58                3106.15                3112.48
 Force Cnst:      5.8486                 6.2558                 6.3063
 Red. Mass:       1.0604                 1.1005                 1.1049
 IR Intens:       41.342                 27.600                 18.250
 Frequency:      3115.53                3117.41                3119.39
 Force Cnst:      6.2231                 6.3359                 6.2489
 Red. Mass:       1.0882                 1.1065                 1.0900
 IR Intens:       31.778                 22.116                 21.108
 Frequency:      3122.53                3129.75                3153.11
 Force Cnst:      6.3586                 6.3595                 6.4776
 Red. Mass:       1.1069                 1.1019                 1.1058
 IR Intens:       16.272                 14.177                 13.046
 Frequency:      3156.34                3196.99                3231.58
 Force Cnst:      6.4939                 6.5614                 6.7878
 Red. Mass:       1.1063                 1.0896                 1.1032
 IR Intens:       10.390                  5.917                  5.559

 STANDARD THERMODYNAMIC QUANTITIES AT   298.15 K  AND     1.00 ATM

   This Molecule has  0 Imaginary Frequencies
   Zero point vibrational energy:      166.482 kcal/mol

   Atom    1 Element C  Has Mass   12.00000
   Atom    2 Element C  Has Mass   12.00000
   Atom    3 Element C  Has Mass   12.00000
   Atom    4 Element C  Has Mass   12.00000
   Atom    5 Element O  Has Mass   15.99491
   Atom    6 Element O  Has Mass   15.99491
   Atom    7 Element O  Has Mass   15.99491
   Atom    8 Element O  Has Mass   15.99491
   Atom    9 Element C  Has Mass   12.00000
   Atom   10 Element C  Has Mass   12.00000
   Atom   11 Element C  Has Mass   12.00000
   Atom   12 Element C  Has Mass   12.00000
   Atom   13 Element C  Has Mass   12.00000
   Atom   14 Element C  Has Mass   12.00000
   Atom   15 Element C  Has Mass   12.00000
   Atom   16 Element C  Has Mass   12.00000
   Atom   17 Element H  Has Mass    1.00783
   Atom   18 Element H  Has Mass    1.00783
   Atom   19 Element H  Has Mass    1.00783
   Atom   20 Element H  Has Mass    1.00783
   Atom   21 Element H  Has Mass    1.00783
   Atom   22 Element H  Has Mass    1.00783
   Atom   23 Element H  Has Mass    1.00783
   Atom   24 Element H  Has Mass    1.00783
   Atom   25 Element H  Has Mass    1.00783
   Atom   26 Element H  Has Mass    1.00783
   Atom   27 Element H  Has Mass    1.00783
   Atom   28 Element H  Has Mass    1.00783
   Atom   29 Element H  Has Mass    1.00783
   Atom   30 Element H  Has Mass    1.00783
   Atom   31 Element H  Has Mass    1.00783
   Atom   32 Element H  Has Mass    1.00783
   Molecular Mass:   224.104920 amu
   Principal axes and moments of inertia in amu*Bohr^2:
                             1           2           3
    Eigenvalues --     2528.63249  3215.70865  3893.11530
          X               0.99876     0.04977    -0.00247
          Y              -0.04983     0.99743    -0.05143
          Z              -0.00010     0.05149     0.99867
   Rotational Symmetry Number is   1
   The Molecule is an Asymmetric Top
   Translational Enthalpy:        0.889 kcal/mol
   Rotational Enthalpy:           0.889 kcal/mol
   Vibrational Enthalpy:        174.449 kcal/mol
   gas constant (RT):             0.592 kcal/mol
   Translational Entropy:        42.123  cal/mol.K
   Rotational Entropy:           31.826  cal/mol.K
   Vibrational Entropy:          50.021  cal/mol.K

   Total Enthalpy:              176.819 kcal/mol
   Total Entropy:               123.971  cal/mol.K

 Total job time:  8740.57s(wall), 30971.26s(cpu)
        *  Thank you very much for using Q-Chem.  Have a nice day.  *
