 Q-Chem 5.0, Q-Chem, Inc., Pleasanton, CA (2017)
 Q-Chem 5.0.1 for Intel X86 EM64T Linux

User input:
--------------------------------------------------------------
$molecule
0 1
C -0.65180963 -0.92699201 0.73007596
C -0.69644833 0.66116969 0.77273625
C 0.58029690 -1.70876046 0.31100235
C 0.62357858 1.38319179 0.44989039
O 1.68429535 -0.96778374 0.13346315
O 0.56177591 -2.90990030 0.17140273
O 0.80646887 1.61430328 -0.86364150
O 1.40268125 1.76636603 1.28892792
C 2.05047729 2.23188369 -1.22596354
C 2.87720619 -1.67719650 -0.24818873
C -1.86098120 -1.30238551 -0.21398098
C -1.45749671 -0.87656594 -1.61722939
C -1.46350598 0.45913544 -1.64141475
C -1.87078435 0.94882985 -0.25628552
C -2.86353476 -0.18124013 0.12163180
C -1.08172372 1.13183338 2.19135041
H 2.14293088 3.21627739 -0.76483382
H 2.75327324 -2.11605402 -1.23948708
H -1.15548899 1.10224229 -2.45176850
H 2.02722124 2.31650016 -2.31073425
H 2.88694550 1.60788644 -0.90746620
H 3.66782638 -0.93028423 -0.25342399
H 3.09799949 -2.46651854 0.47082237
H -2.23227683 1.97565041 -0.20201625
H -2.18259539 -2.33397965 -0.09152585
H -1.98797096 0.64180866 2.54504270
H -0.27509944 0.91484173 2.89182289
H -1.24838371 2.21188452 2.20619504
H -3.73045614 -0.19933641 -0.53997164
H -3.20065910 -0.17281461 1.15869694
H -1.13565815 -1.55126350 -2.39924887
H -0.86767812 -1.29539738 1.73766908
$end

$rem
sym_ignore      true
jobtype         ts
method          b3lyp
basis           6-311++G(d,p)
dft_d           d3_op
mem_total       62000
MEM_STATIC      4000
ao2mo_disk      350000
max_scf_cycles  200
geom_opt_max_cycles 1000
geom_opt_tol_displacement 1
GEOM_OPT_TOL_GRADIENT       1
GEOM_OPT_TOL_ENERGY         1
$end

--------------------------------------------------------------

   15    -768.0312025388      3.17E-09 Convergence criterion met
 Total energy in the final basis set = -768.03120254
   11    -768.0310684834      4.04E-09 Convergence criterion met
 Total energy in the final basis set = -768.03106848
   12    -768.0306763744      7.62E-09 Convergence criterion met
 Total energy in the final basis set = -768.03067637
   13    -768.0299448548      3.47E-09 Convergence criterion met
 Total energy in the final basis set = -768.02994485
   12    -768.0299245092      9.78E-09 Convergence criterion met
 Total energy in the final basis set = -768.02992451
   12    -768.0295529951      9.62E-09 Convergence criterion met
 Total energy in the final basis set = -768.02955300
   13    -768.0293919422      3.58E-09 Convergence criterion met
 Total energy in the final basis set = -768.02939194
   12    -768.0301972751      4.00E-09 Convergence criterion met
    9    -768.0312252315      5.94E-09 Convergence criterion met
 Total energy in the final basis set = -768.03122523
    9    -768.0312248069      6.81E-09 Convergence criterion met
 Total energy in the final basis set = -768.03122481
    8    -768.0312247813      3.08E-09 Convergence criterion met
 Total energy in the final basis set = -768.03122478
    7    -768.0312248183      7.00E-09 Convergence criterion met
 Total energy in the final basis set = -768.03122482
    6    -768.0312248203      7.08E-09 Convergence criterion met
 Total energy in the final basis set = -768.03122482
    4    -768.0312248153      9.51E-09 Convergence criterion met
 Total energy in the final basis set = -768.03122482
 Final energy is   -768.031224815254
 **  OPTIMIZATION CONVERGED  **
 Total job time:  2403.56s(wall), 34719.26s(cpu)
        *  Thank you very much for using Q-Chem.  Have a nice day.  *

User input: 2 of 2

r0215.ten.osc.edu 10.25.156
Q-Chem Developer Version! Running on 10.25.156.*
                  Welcome to Q-Chem
     A Quantum Leap Into The Future Of Chemistry

 Q-Chem 5.0, Q-Chem, Inc., Pleasanton, CA (2017)

 Yihan Shao,  Zhengting Gan,  E. Epifanovsky,  A. T. B. Gilbert,  M. Wormit,
 J. Kussmann,  A. W. Lange,  A. Behn,  Jia Deng,  Xintian Feng,  D. Ghosh,
 M. Goldey,  P. R. Horn,  L. D. Jacobson,  I. Kaliman,  T. Kus,  A. Landau,
 Jie Liu,  E. I. Proynov,  R. M. Richard,  R. P. Steele,  E. J. Sundstrom,
 H. L. Woodcock III,  P. M. Zimmerman,  D. Zuev,  B. Albrecht,  E. Alguire,
 S. A. Baeppler,  Z. Benda,  Y. A. Bernard,  E. J. Berquist,  K. B. Bravaya,
 D. Casanova,  Chun-Min Chang,  Yunqing Chen,  A. Chien,  K. D. Closser,
 M. P. Coons,  S. Dasgupta,  M. Diedenhofen,  Hainam Do,  R. G. Edgar,
 Po-Tung Fang,  S. Fatehi,  Qingguo Feng,  Qinghui Ge,  A. Ghysels,
 J. Gomes,  J. Gonthier,  A. Gunina,  M. W. D. Hanson-Heine,
 P. H. P. Harbach,  A. W. Hauser,  J. E. Herr,  E. G. Hohenstein,
 Z. C. Holden,  Kerwin Hui,  T.-C. Jagau,  Hyunjun Ji,  B. Kaduk,
 K. Khistyaev,  Jaehoon Kim,  P. Klunzinger,  K. Koh,  D. Kosenkov,
 T. Kowalczyk,  C. M. Krauter,  A. Kunitsa,  Ka Un Lao,  A. Laurent,
 K. V. Lawler,  Joonho Lee,  D. Lefrancois,  S. Lehtola,  D. S. Levine,
 Yi-Pei Li,  You-Sheng Lin,  Fenglai Liu,  E. Livshits,  A. Luenser,
 P. Manohar,  E. Mansoor,  S. F. Manzer,  Shan-Ping Mao,  Yuezhi Mao,
 N. Mardirossian,  A. V. Marenich,  L. A. Martinez-Martinez,  S. A. Maurer,
 N. J. Mayhall,  S. C. McKenzie,  J.-M. Mewes,  A. F. Morrison,  K. Nanda,
 T. S. Nguyen-Beck,  R. Olivares-Amaya,  J. A. Parkhill,  T. M. Perrine,
 F. Plasser,  S. Prager,  A. Prociuk,  D. R. Rehn,  F. Rob,  M. Schneider,
 N. Sergueev,  S. M. Sharada,  S. Sharma,  D. W. Small,  T. Stauch,
 T. Stein,  Yu-Chuan Su,  A. J. W. Thom,  T. Tsuchimochi,  L. Vogt,
 O. Vydrov,  M. A. Watson,  J. Wenzel,  M. de Wergifosse,  T. A. Wesolowski,
 A. White,  J. Witte,  A. Yamada,  Jun Yang,  K. Yao,  S. Yeganeh,
 S. R. Yost,  Zhi-Qiang You,  A. Zech,  Igor Ying Zhang,  Xing Zhang,
 Yan Zhao,  Ying Zhu,  B. R. Brooks,  G. K. L. Chan,  C. J. Cramer,
 M. S. Gordon,  W. J. Hehre,  A. Klamt,  M. W. Schmidt,  C. D. Sherrill,
 D. G. Truhlar,  A. Aspuru-Guzik,  R. Baer,  A. T. Bell,  N. A. Besley,
 Jeng-Da Chai,  A. Dreuw,  B. D. Dunietz,  T. R. Furlani,  Chao-Ping Hsu,
 Yousung Jung,  Jing Kong,  D. S. Lambrecht,  WanZhen Liang,  C. Ochsenfeld,
 V. A. Rassolov,  L. V. Slipchenko,  J. E. Subotnik,  T. Van Voorhis,
 J. M. Herbert,  A. I. Krylov,  P. M. W. Gill,  M. Head-Gordon

 Contributors to earlier versions of Q-Chem not listed above:
 R. D. Adamson,  B. Austin,  J. Baker,  G. J. O. Beran,  K. Brandhorst,
 S. T. Brown,  E. F. C. Byrd,  A. K. Chakraborty,  C.-L. Cheng,
 Siu Hung Chien,  D. M. Chipman,  D. L. Crittenden,  H. Dachsel,
 R. A. DiStasio Jr.,  R. J. Doerksen,  A. D. Dutoi,  L. Fusti-Molnar,
 W. A. Goddard III,  A. Golubeva-Zadorozhnaya,  S. R. Gwaltney,  G. Hawkins,
 A. Heyden,  S. Hirata,  G. Kedziora,  F. J. Keil,  C. Kelley,  Jihan Kim,
 R. A. King,  R. Z. Khaliullin,  P. P. Korambath,  W. Kurlancheek,
 A. M. Lee,  M. S. Lee,  S. V. Levchenko,  Ching Yeh Lin,  D. Liotard,
 R. C. Lochan,  I. Lotan,  P. E. Maslen,  N. Nair,  D. P. O'Neill,
 D. Neuhauser,  E. Neuscamman,  C. M. Oana,  R. Olson,  B. Peters,
 R. Peverati,  P. A. Pieniazek,  Y. M. Rhee,  J. Ritchie,  M. A. Rohrdanz,
 E. Rosta,  N. J. Russ,  H. F. Schaefer III,  N. E. Schultz,  N. Shenvi,
 A. C. Simmonett,  A. Sodt,  D. Stuck,  K. S. Thanthiriwatte,  V. Vanovschi,
 Tao Wang,  A. Warshel,  C. F. Williams,  Q. Wu,  X. Xu,  W. Zhang

 Please cite Q-Chem as follows:
 Y. Shao et al., Mol. Phys. 113, 184-215 (2015)
 DOI: 10.1080/00268976.2014.952696

 Q-Chem 5.0.1 for Intel X86 EM64T Linux

 Parts of Q-Chem use Armadillo 5.200.1 (Boston Tea Smuggler).
 http://arma.sourceforge.net/

 Q-Chem begins on Tue Oct 24 05:11:06 2017

Host: r0215.ten.osc.edu
0

     Scratch files written to /tmp/pbstmp.1324357/03//
Processing $rem in /users/PAS0291/osu6415/.qchemrc.
molden_format             true
The previous job contains 0 fragments, simply inherited here

Checking the input file for inconsistencies... 	...done.

--------------------------------------------------------------
User input:
--------------------------------------------------------------

$molecule
read
$end

$rem
sym_ignore      true
scf_guess       read
jobtype         freq
method          b3lyp
basis           6-311++G(d,p)
dft_d           d3_op
mem_total       62000
MEM_STATIC      4000
ao2mo_disk      350000
max_scf_cycles  200
$end
--------------------------------------------------------------

             Standard Nuclear Orientation (Angstroms)
    I     Atom           X                Y                Z
 ----------------------------------------------------------------
    1      C      -0.6514077492    -0.9271635777     0.7361065248
    2      C      -0.6957767894     0.6612895283     0.7712682822
    3      C       0.5776926465    -1.7099243638     0.3085525511
    4      C       0.6269775603     1.3800930055     0.4520667263
    5      O       1.6853021082    -0.9719127699     0.1426465577
    6      O       0.5525603577    -2.9082916977     0.1481740047
    7      O       0.8032241006     1.6286160123    -0.8593677124
    8      O       1.4144547149     1.7437900551     1.2916842732
    9      C       2.0488633734     2.2436450546    -1.2209726686
   10      C       2.8742159529    -1.6805612504    -0.2523258213
   11      C      -1.8624420450    -1.3046001869    -0.2055529544
   12      C      -1.4557670488    -0.8875959739    -1.6107362663
   13      C      -1.4577562529     0.4479153145    -1.6423450066
   14      C      -1.8667132715     0.9463037613    -0.2607948710
   15      C      -2.8628086139    -0.1793077560     0.1218268426
   16      C      -1.0837606780     1.1384702656     2.1875457009
   17      H       2.1511374075     3.2200456933    -0.7451403026
   18      H       2.7461991274    -2.1038961598    -1.2498753619
   19      H      -1.1459476070     1.0856555339    -2.4554776356
   20      H       2.0184955674     2.3453161935    -2.3040745666
   21      H       2.8834184075     1.6093072751    -0.9182016900
   22      H       3.6680301556    -0.9370652307    -0.2476628929
   23      H       3.0930665173    -2.4819057965     0.4539096151
   24      H      -2.2264069658     1.9740201771    -0.2126153076
   25      H      -2.1868605798    -2.3346261473    -0.0780397594
   26      H      -1.9882824338     0.6471078822     2.5437258130
   27      H      -0.2763894171     0.9282434959     2.8891177233
   28      H      -1.2549181359     2.2179675831     2.1956591050
   29      H      -3.7286907588    -0.1992980376    -0.5411349621
   30      H      -3.2019099850    -0.1637894724     1.1581428024
   31      H      -1.1341906296    -1.5677367241    -2.3881203467
   32      H      -0.8631834756    -1.2927798666     1.7455607238
 ----------------------------------------------------------------

    2    -768.0312248158      6.98E-09 Convergence criterion met
 Total energy in the final basis set = -768.03122482

                    Orbital Energies (a.u.)
 --------------------------------------------------------------

 Alpha MOs
 -- Occupied --
-19.177 -19.169 -19.114 -19.108 -10.307 -10.301 -10.232 -10.228
-10.213 -10.205 -10.192 -10.190 -10.176 -10.171 -10.168 -10.165
 -1.120  -1.111  -1.028  -1.022  -0.899  -0.798  -0.768  -0.741
 -0.725  -0.711  -0.677  -0.625  -0.587  -0.572  -0.562  -0.541
 -0.534  -0.519  -0.501  -0.493  -0.481  -0.475  -0.468  -0.453
 -0.439  -0.433  -0.414  -0.407  -0.401  -0.394  -0.389  -0.378
 -0.377  -0.360  -0.358  -0.352  -0.347  -0.336  -0.322  -0.318
 -0.307  -0.285  -0.278  -0.249

          Ground-State Mulliken Net Atomic Charges

     Atom                 Charge (a.u.)
  ----------------------------------------
      1 C                     0.162828
      2 C                     0.249016
      3 C                    -0.528261
      4 C                    -0.719828
      5 O                    -0.091141
      6 O                    -0.202698
      7 O                     0.036620
      8 O                    -0.177166
      9 C                    -0.152000
     10 C                    -0.217338
     11 C                     0.079997
     12 C                    -0.143242
     13 C                    -0.650730
     14 C                     0.517680
     15 C                    -0.701986
     16 C                    -0.360641
     17 H                     0.174837
     18 H                     0.191496
     19 H                     0.146540
     20 H                     0.149418
     21 H                     0.170113
     22 H                     0.146780
     23 H                     0.179923
     24 H                     0.272305
     25 H                     0.282244
     26 H                     0.114671
     27 H                     0.201031
     28 H                     0.163886
     29 H                     0.191525
     30 H                     0.110393
     31 H                     0.157120
     32 H                     0.246609
  ----------------------------------------
  Sum of atomic charges =    -0.000000

                    Cartesian Multipole Moments
 -----------------------------------------------------------------
    Charge (ESU x 10^10)
                -0.0000
    Dipole Moment (Debye)
         X       0.1384      Y       1.2904      Z      -1.4761
       Tot       1.9655
    Quadrupole Moments (Debye-Ang)
        XX     -87.1683     XY      -2.3602     YY    -102.4745
        XZ      -8.1390     YZ      -4.6030     ZZ     -94.9062

 Frequency:       -46.27                  69.55                  73.84
 Force Cnst:      0.0093                 0.0124                 0.0115
 Red. Mass:       7.3596                 4.3647                 3.5736
 IR Intens:        2.855                  2.213                  0.124
 Frequency:       105.92                 136.23                 140.09
 Force Cnst:      0.0206                 0.0351                 0.0253
 Red. Mass:       3.1119                 3.2089                 2.1845
 IR Intens:        0.225                  2.863                  1.350
 Frequency:       158.37                 166.72                 177.30
 Force Cnst:      0.0210                 0.0262                 0.0396
 Red. Mass:       1.4242                 1.6011                 2.1384
 IR Intens:        0.096                  0.200                  0.794
 Frequency:       220.05                 225.42                 251.97
 Force Cnst:      0.1103                 0.0383                 0.1152
 Red. Mass:       3.8664                 1.2786                 3.0790
 IR Intens:        2.155                  0.749                  4.870
 Frequency:       280.49                 315.01                 330.37
 Force Cnst:      0.1647                 0.2490                 0.2194
 Red. Mass:       3.5540                 4.2597                 3.4121
 IR Intens:        1.803                  4.361                  8.868
 Frequency:       353.36                 384.44                 426.20
 Force Cnst:      0.3054                 0.3382                 0.4379
 Red. Mass:       4.1518                 3.8834                 4.0917
 IR Intens:        2.870                 10.735                  0.049
 Frequency:       440.55                 499.40                 508.09
 Force Cnst:      0.5294                 0.6524                 0.3681
 Red. Mass:       4.6299                 4.4401                 2.4202
 IR Intens:        5.191                  8.363                  1.271
 Frequency:       564.46                 632.73                 711.33
 Force Cnst:      0.5589                 1.0104                 1.2518
 Red. Mass:       2.9770                 4.2836                 4.1989
 IR Intens:        7.885                  1.762                  3.652
 Frequency:       728.86                 754.90                 775.31
 Force Cnst:      0.5762                 1.4979                 1.7276
 Red. Mass:       1.8410                 4.4614                 4.8780
 IR Intens:       49.629                  5.830                  1.211
 Frequency:       799.89                 814.37                 856.30
 Force Cnst:      1.9909                 1.6348                 1.3710
 Red. Mass:       5.2813                 4.1839                 3.1735
 IR Intens:        1.435                 16.721                  2.854
 Frequency:       863.82                 892.12                 898.42
 Force Cnst:      1.4456                 1.5757                 1.0797
 Red. Mass:       3.2881                 3.3602                 2.2704
 IR Intens:        7.840                 16.491                 22.088
 Frequency:       924.98                 932.44                 944.73
 Force Cnst:      1.2033                 1.2251                 1.3713
 Red. Mass:       2.3870                 2.3915                 2.6078
 IR Intens:        3.086                  1.482                  0.449
 Frequency:       957.73                 977.25                 989.76
 Force Cnst:      0.8827                 1.2179                 1.0288
 Red. Mass:       1.6333                 2.1644                 1.7824
 IR Intens:        4.459                  0.487                  2.459
 Frequency:      1007.31                1042.60                1057.33
 Force Cnst:      2.4643                 2.2969                 1.1932
 Red. Mass:       4.1221                 3.5863                 1.8115
 IR Intens:        8.259                 36.444                 30.135
 Frequency:      1102.04                1107.48                1128.76
 Force Cnst:      2.6524                 1.0082                 1.1881
 Red. Mass:       3.7067                 1.3952                 1.5828
 IR Intens:       16.737                  2.309                 10.094
 Frequency:      1151.34                1154.95                1167.57
 Force Cnst:      1.6005                 0.9406                 1.0321
 Red. Mass:       2.0492                 1.1968                 1.2851
 IR Intens:       40.069                  2.073                  1.447
 Frequency:      1171.04                1191.86                1201.66
 Force Cnst:      1.0385                 1.5822                 1.3778
 Red. Mass:       1.2853                 1.8904                 1.6195
 IR Intens:        1.518                 15.218                  6.398
 Frequency:      1210.85                1213.66                1253.40
 Force Cnst:      1.3631                 1.4382                 2.9589
 Red. Mass:       1.5780                 1.6572                 3.1967
 IR Intens:       14.728                  6.046                171.795
 Frequency:      1274.30                1284.35                1285.60
 Force Cnst:      2.4219                 1.8895                 1.5963
 Red. Mass:       2.5314                 1.9441                 1.6392
 IR Intens:      252.669                 81.122                 73.994
 Frequency:      1286.97                1306.21                1354.96
 Force Cnst:      1.3312                 1.7281                 1.8402
 Red. Mass:       1.3641                 1.7191                 1.7012
 IR Intens:        7.710                 27.518                 10.178
 Frequency:      1363.62                1409.47                1465.79
 Force Cnst:      1.6337                 1.4024                 1.5121
 Red. Mass:       1.4912                 1.1982                 1.1945
 IR Intens:        3.064                 14.124                  4.623
 Frequency:      1471.12                1481.86                1485.02
 Force Cnst:      1.5373                 1.3562                 1.3588
 Red. Mass:       1.2057                 1.0482                 1.0458
 IR Intens:       21.666                  9.169                  3.910
 Frequency:      1492.43                1496.87                1497.61
 Force Cnst:      1.3955                 1.3825                 1.3818
 Red. Mass:       1.0634                 1.0472                 1.0457
 IR Intens:        5.845                 11.536                  7.858
 Frequency:      1497.78                1519.40                1638.10
 Force Cnst:      1.3820                 1.4893                 8.9972
 Red. Mass:       1.0456                 1.0949                 5.6908
 IR Intens:        5.776                 12.093                  2.008
 Frequency:      1767.80                1770.67                3045.55
 Force Cnst:     21.1568                20.9756                 5.6760
 Red. Mass:      11.4904                11.3550                 1.0386
 IR Intens:      232.493                294.194                 17.374
 Frequency:      3049.13                3051.44                3052.07
 Force Cnst:      5.6384                 5.9406                 5.6510
 Red. Mass:       1.0293                 1.0829                 1.0296
 IR Intens:       30.989                  8.600                 39.532
 Frequency:      3072.88                3105.82                3111.42
 Force Cnst:      5.8955                 6.1822                 6.2761
 Red. Mass:       1.0597                 1.0878                 1.1003
 IR Intens:       32.282                 30.479                 23.225
 Frequency:      3120.80                3121.68                3126.59
 Force Cnst:      6.3345                 6.3536                 6.3744
 Red. Mass:       1.1039                 1.1066                 1.1068
 IR Intens:       30.190                 23.413                 15.624
 Frequency:      3134.21                3135.50                3150.65
 Force Cnst:      6.3359                 6.3492                 6.4710
 Red. Mass:       1.0947                 1.0961                 1.1064
 IR Intens:        4.373                 27.365                 14.189
 Frequency:      3158.63                3203.52                3236.48
 Force Cnst:      6.5049                 6.5874                 6.8111
 Red. Mass:       1.1066                 1.0895                 1.1036
 IR Intens:       11.634                  3.849                  9.405

 STANDARD THERMODYNAMIC QUANTITIES AT   298.15 K  AND     1.00 ATM

   This Molecule has  1 Imaginary Frequencies
   Zero point vibrational energy:      166.503 kcal/mol

   Atom    1 Element C  Has Mass   12.00000
   Atom    2 Element C  Has Mass   12.00000
   Atom    3 Element C  Has Mass   12.00000
   Atom    4 Element C  Has Mass   12.00000
   Atom    5 Element O  Has Mass   15.99491
   Atom    6 Element O  Has Mass   15.99491
   Atom    7 Element O  Has Mass   15.99491
   Atom    8 Element O  Has Mass   15.99491
   Atom    9 Element C  Has Mass   12.00000
   Atom   10 Element C  Has Mass   12.00000
   Atom   11 Element C  Has Mass   12.00000
   Atom   12 Element C  Has Mass   12.00000
   Atom   13 Element C  Has Mass   12.00000
   Atom   14 Element C  Has Mass   12.00000
   Atom   15 Element C  Has Mass   12.00000
   Atom   16 Element C  Has Mass   12.00000
   Atom   17 Element H  Has Mass    1.00783
   Atom   18 Element H  Has Mass    1.00783
   Atom   19 Element H  Has Mass    1.00783
   Atom   20 Element H  Has Mass    1.00783
   Atom   21 Element H  Has Mass    1.00783
   Atom   22 Element H  Has Mass    1.00783
   Atom   23 Element H  Has Mass    1.00783
   Atom   24 Element H  Has Mass    1.00783
   Atom   25 Element H  Has Mass    1.00783
   Atom   26 Element H  Has Mass    1.00783
   Atom   27 Element H  Has Mass    1.00783
   Atom   28 Element H  Has Mass    1.00783
   Atom   29 Element H  Has Mass    1.00783
   Atom   30 Element H  Has Mass    1.00783
   Atom   31 Element H  Has Mass    1.00783
   Atom   32 Element H  Has Mass    1.00783
   Molecular Mass:   224.104920 amu
   Principal axes and moments of inertia in amu*Bohr^2:
                             1           2           3
    Eigenvalues --     2714.56520  3010.29310  3999.39735
          X               0.99027    -0.13825     0.01559
          Y               0.13888     0.98895    -0.05191
          Z              -0.00824     0.05357     0.99853
   Rotational Symmetry Number is   1
   The Molecule is an Asymmetric Top
   Translational Enthalpy:        0.889 kcal/mol
   Rotational Enthalpy:           0.889 kcal/mol
   Vibrational Enthalpy:        173.874 kcal/mol
   gas constant (RT):             0.592 kcal/mol
   Translational Entropy:        42.123  cal/mol.K
   Rotational Entropy:           31.858  cal/mol.K
   Vibrational Entropy:          44.281  cal/mol.K

   Total Enthalpy:              176.244 kcal/mol
   Total Entropy:               118.262  cal/mol.K

 Total job time:  8745.31s(wall), 31014.98s(cpu)
        *  Thank you very much for using Q-Chem.  Have a nice day.  *
