 Q-Chem 5.0, Q-Chem, Inc., Pleasanton, CA (2017)
 Q-Chem 5.0.1 for Intel X86 EM64T Linux

User input:
--------------------------------------------------------------
$molecule
0 1
C 0.78385536 -0.79753553 0.77562905
C -0.75115409 -0.41925858 0.72670350
C 1.77643494 0.34181697 0.65320788
C -1.05115691 0.92642841 0.06902976
O 2.30656840 0.44900735 -0.57922816
O 2.09264136 1.04419647 1.58350200
O -2.37284625 1.01860198 -0.20959832
O -0.27219366 1.81526807 -0.16632114
C -2.80650082 2.23987855 -0.83371594
C 3.14134076 1.59913371 -0.80000030
C 0.88910883 -1.99661735 -0.22905690
C 0.48339795 -1.51808085 -1.61380520
C -0.83451477 -1.29608334 -1.59542594
C -1.32622563 -1.58938050 -0.18490821
C -0.39096492 -2.76001155 0.18414110
C -1.37381306 -0.40633104 2.13478346
H -2.57762775 3.09719413 -0.19923836
H 4.00428336 1.58348733 -0.13263498
H -1.44002758 -0.86274074 -2.38028991
H -3.88158930 2.13315797 -0.96205584
H -2.31592413 2.36739994 -1.80028496
H 3.45777111 1.53394419 -1.83910196
H 2.56342309 2.50825534 -0.62841459
H -2.39808401 -1.73197120 -0.06200245
H 1.83594180 -2.53109040 -0.16329753
H -1.23733614 -1.37536162 2.61981663
H -0.89543598 0.35267202 2.75888671
H -2.44342075 -0.19577352 2.08254756
H -0.57602460 -3.64206879 -0.43164557
H -0.41471164 -3.04192589 1.23989605
H 1.17423583 -1.30561435 -2.41643491
H 0.97162341 -1.18982665 1.77748587
$end

$rem
sym_ignore      true
jobtype         opt
method          b3lyp
basis           6-311++G(d,p)
dft_d           d3_op
mem_total       62000
MEM_STATIC      4000
ao2mo_disk      350000
max_scf_cycles  200
geom_opt_max_cycles 1000
geom_opt_tol_displacement 1
GEOM_OPT_TOL_GRADIENT       1
GEOM_OPT_TOL_ENERGY         1
$end

--------------------------------------------------------------

   15    -768.0382624724      4.13E-09 Convergence criterion met
 Total energy in the final basis set = -768.03826247
   11    -768.0382155224      8.16E-09 Convergence criterion met
 Total energy in the final basis set = -768.03821552
   12    -768.0382509221      3.83E-09 Convergence criterion met
 Total energy in the final basis set = -768.03825092
   12    -768.0382000620      5.13E-09 Convergence criterion met
 Total energy in the final basis set = -768.03820006
   11    -768.0382788740      7.54E-09 Convergence criterion met
 Total energy in the final basis set = -768.03827887
   12    -768.0382059211      6.20E-09 Convergence criterion met
 Total energy in the final basis set = -768.03820592
   11    -768.0382666598      8.27E-09 Convergence criterion met
 Total energy in the final basis set = -768.03826666
   11    -768.0382567303      7.58E-09 Convergence criterion met
    5    -768.0382786734      7.87E-09 Convergence criterion met
 Total energy in the final basis set = -768.03827867
    4    -768.0382786572      5.96E-09 Convergence criterion met
 Total energy in the final basis set = -768.03827866
    4    -768.0382786712      5.14E-09 Convergence criterion met
 Total energy in the final basis set = -768.03827867
    4    -768.0382786596      7.18E-09 Convergence criterion met
 Total energy in the final basis set = -768.03827866
    4    -768.0382786700      8.28E-09 Convergence criterion met
 Total energy in the final basis set = -768.03827867
    5    -768.0382786605      4.51E-09 Convergence criterion met
 Total energy in the final basis set = -768.03827866
 Final energy is   -768.038278660546
 **  OPTIMIZATION CONVERGED  **
 Total job time:  1351.97s(wall), 19169.14s(cpu)
        *  Thank you very much for using Q-Chem.  Have a nice day.  *

User input: 2 of 2

r0216.ten.osc.edu 10.25.156
Q-Chem Developer Version! Running on 10.25.156.*
                  Welcome to Q-Chem
     A Quantum Leap Into The Future Of Chemistry

 Q-Chem 5.0, Q-Chem, Inc., Pleasanton, CA (2017)

 Yihan Shao,  Zhengting Gan,  E. Epifanovsky,  A. T. B. Gilbert,  M. Wormit,
 J. Kussmann,  A. W. Lange,  A. Behn,  Jia Deng,  Xintian Feng,  D. Ghosh,
 M. Goldey,  P. R. Horn,  L. D. Jacobson,  I. Kaliman,  T. Kus,  A. Landau,
 Jie Liu,  E. I. Proynov,  R. M. Richard,  R. P. Steele,  E. J. Sundstrom,
 H. L. Woodcock III,  P. M. Zimmerman,  D. Zuev,  B. Albrecht,  E. Alguire,
 S. A. Baeppler,  Z. Benda,  Y. A. Bernard,  E. J. Berquist,  K. B. Bravaya,
 D. Casanova,  Chun-Min Chang,  Yunqing Chen,  A. Chien,  K. D. Closser,
 M. P. Coons,  S. Dasgupta,  M. Diedenhofen,  Hainam Do,  R. G. Edgar,
 Po-Tung Fang,  S. Fatehi,  Qingguo Feng,  Qinghui Ge,  A. Ghysels,
 J. Gomes,  J. Gonthier,  A. Gunina,  M. W. D. Hanson-Heine,
 P. H. P. Harbach,  A. W. Hauser,  J. E. Herr,  E. G. Hohenstein,
 Z. C. Holden,  Kerwin Hui,  T.-C. Jagau,  Hyunjun Ji,  B. Kaduk,
 K. Khistyaev,  Jaehoon Kim,  P. Klunzinger,  K. Koh,  D. Kosenkov,
 T. Kowalczyk,  C. M. Krauter,  A. Kunitsa,  Ka Un Lao,  A. Laurent,
 K. V. Lawler,  Joonho Lee,  D. Lefrancois,  S. Lehtola,  D. S. Levine,
 Yi-Pei Li,  You-Sheng Lin,  Fenglai Liu,  E. Livshits,  A. Luenser,
 P. Manohar,  E. Mansoor,  S. F. Manzer,  Shan-Ping Mao,  Yuezhi Mao,
 N. Mardirossian,  A. V. Marenich,  L. A. Martinez-Martinez,  S. A. Maurer,
 N. J. Mayhall,  S. C. McKenzie,  J.-M. Mewes,  A. F. Morrison,  K. Nanda,
 T. S. Nguyen-Beck,  R. Olivares-Amaya,  J. A. Parkhill,  T. M. Perrine,
 F. Plasser,  S. Prager,  A. Prociuk,  D. R. Rehn,  F. Rob,  M. Schneider,
 N. Sergueev,  S. M. Sharada,  S. Sharma,  D. W. Small,  T. Stauch,
 T. Stein,  Yu-Chuan Su,  A. J. W. Thom,  T. Tsuchimochi,  L. Vogt,
 O. Vydrov,  M. A. Watson,  J. Wenzel,  M. de Wergifosse,  T. A. Wesolowski,
 A. White,  J. Witte,  A. Yamada,  Jun Yang,  K. Yao,  S. Yeganeh,
 S. R. Yost,  Zhi-Qiang You,  A. Zech,  Igor Ying Zhang,  Xing Zhang,
 Yan Zhao,  Ying Zhu,  B. R. Brooks,  G. K. L. Chan,  C. J. Cramer,
 M. S. Gordon,  W. J. Hehre,  A. Klamt,  M. W. Schmidt,  C. D. Sherrill,
 D. G. Truhlar,  A. Aspuru-Guzik,  R. Baer,  A. T. Bell,  N. A. Besley,
 Jeng-Da Chai,  A. Dreuw,  B. D. Dunietz,  T. R. Furlani,  Chao-Ping Hsu,
 Yousung Jung,  Jing Kong,  D. S. Lambrecht,  WanZhen Liang,  C. Ochsenfeld,
 V. A. Rassolov,  L. V. Slipchenko,  J. E. Subotnik,  T. Van Voorhis,
 J. M. Herbert,  A. I. Krylov,  P. M. W. Gill,  M. Head-Gordon

 Contributors to earlier versions of Q-Chem not listed above:
 R. D. Adamson,  B. Austin,  J. Baker,  G. J. O. Beran,  K. Brandhorst,
 S. T. Brown,  E. F. C. Byrd,  A. K. Chakraborty,  C.-L. Cheng,
 Siu Hung Chien,  D. M. Chipman,  D. L. Crittenden,  H. Dachsel,
 R. A. DiStasio Jr.,  R. J. Doerksen,  A. D. Dutoi,  L. Fusti-Molnar,
 W. A. Goddard III,  A. Golubeva-Zadorozhnaya,  S. R. Gwaltney,  G. Hawkins,
 A. Heyden,  S. Hirata,  G. Kedziora,  F. J. Keil,  C. Kelley,  Jihan Kim,
 R. A. King,  R. Z. Khaliullin,  P. P. Korambath,  W. Kurlancheek,
 A. M. Lee,  M. S. Lee,  S. V. Levchenko,  Ching Yeh Lin,  D. Liotard,
 R. C. Lochan,  I. Lotan,  P. E. Maslen,  N. Nair,  D. P. O'Neill,
 D. Neuhauser,  E. Neuscamman,  C. M. Oana,  R. Olson,  B. Peters,
 R. Peverati,  P. A. Pieniazek,  Y. M. Rhee,  J. Ritchie,  M. A. Rohrdanz,
 E. Rosta,  N. J. Russ,  H. F. Schaefer III,  N. E. Schultz,  N. Shenvi,
 A. C. Simmonett,  A. Sodt,  D. Stuck,  K. S. Thanthiriwatte,  V. Vanovschi,
 Tao Wang,  A. Warshel,  C. F. Williams,  Q. Wu,  X. Xu,  W. Zhang

 Please cite Q-Chem as follows:
 Y. Shao et al., Mol. Phys. 113, 184-215 (2015)
 DOI: 10.1080/00268976.2014.952696

 Q-Chem 5.0.1 for Intel X86 EM64T Linux

 Parts of Q-Chem use Armadillo 5.200.1 (Boston Tea Smuggler).
 http://arma.sourceforge.net/

 Q-Chem begins on Tue Oct 24 04:53:35 2017

Host: r0216.ten.osc.edu
0

     Scratch files written to /tmp/pbstmp.1324358/04//
Processing $rem in /users/PAS0291/osu6415/.qchemrc.
molden_format             true
The previous job contains 0 fragments, simply inherited here

Checking the input file for inconsistencies... 	...done.

--------------------------------------------------------------
User input:
--------------------------------------------------------------

$molecule
read
$end

$rem
sym_ignore      true
scf_guess       read
jobtype         freq
method          b3lyp
basis           6-311++G(d,p)
dft_d           d3_op
mem_total       62000
MEM_STATIC      4000
ao2mo_disk      350000
max_scf_cycles  200
$end
--------------------------------------------------------------

             Standard Nuclear Orientation (Angstroms)
    I     Atom           X                Y                Z
 ----------------------------------------------------------------
    1      C       0.7842808700    -0.7999012396     0.7855584864
    2      C      -0.7503388062    -0.4203826017     0.7251373163
    3      C       1.7839777233     0.3325592612     0.6543355100
    4      C      -1.0461345930     0.9303997389     0.0776353305
    5      O       2.2737906696     0.4630251670    -0.5923104410
    6      O       2.1441699360     1.0061542492     1.5901435032
    7      O      -2.3628730668     1.0197067603    -0.2234047195
    8      O      -0.2672847568     1.8258319061    -0.1321506174
    9      C      -2.7924986028     2.2477088467    -0.8369483890
   10      C       3.1101322145     1.6109723709    -0.8164065225
   11      C       0.8910461140    -2.0032625808    -0.2159575843
   12      C       0.4964428103    -1.5267617062    -1.6049009869
   13      C      -0.8206100274    -1.2994317688    -1.5961286894
   14      C      -1.3229534054    -1.5882045094    -0.1889971535
   15      C      -0.3943763849    -2.7614155541     0.1894796508
   16      C      -1.3807364397    -0.4108588511     2.1307857999
   17      H      -2.5775518210     3.0969378560    -0.1869581166
   18      H       3.9922771960     1.5771670347    -0.1753991142
   19      H      -1.4192789817    -0.8672098437    -2.3867986304
   20      H      -3.8649845466     2.1380439981    -0.9834586937
   21      H      -2.2877834767     2.3909174683    -1.7939801706
   22      H       3.3951807202     1.5629838000    -1.8655071191
   23      H       2.5438035818     2.5205543834    -0.6117948796
   24      H      -2.3961135261    -1.7268897592    -0.0733089614
   25      H       1.8357766645    -2.5406279635    -0.1427137623
   26      H      -1.2467129240    -1.3806293917     2.6147705294
   27      H      -0.9063583323     0.3471069833     2.7592966614
   28      H      -2.4501469040    -0.2003812625     2.0731653801
   29      H      -0.5776988579    -3.6440108138    -0.4260197454
   30      H      -0.4268708335    -3.0415428647     1.2454338743
   31      H       1.1931260324    -1.3207069058    -2.4040482661
   32      H       0.9683759640    -1.1870816771     1.7896189206
 ----------------------------------------------------------------

    2    -768.0382786597      1.78E-09 Convergence criterion met
 Total energy in the final basis set = -768.03827866

                    Orbital Energies (a.u.)
 --------------------------------------------------------------

 Alpha MOs
 -- Occupied --
-19.175 -19.160 -19.119 -19.100 -10.306 -10.294 -10.231 -10.216
-10.214 -10.196 -10.191 -10.190 -10.177 -10.173 -10.172 -10.170
 -1.117  -1.101  -1.030  -1.013  -0.901  -0.802  -0.767  -0.736
 -0.720  -0.707  -0.682  -0.626  -0.585  -0.570  -0.562  -0.535
 -0.534  -0.517  -0.495  -0.488  -0.475  -0.475  -0.460  -0.453
 -0.433  -0.427  -0.421  -0.409  -0.401  -0.391  -0.386  -0.386
 -0.376  -0.363  -0.359  -0.352  -0.348  -0.336  -0.320  -0.318
 -0.299  -0.283  -0.270  -0.251

          Ground-State Mulliken Net Atomic Charges

     Atom                 Charge (a.u.)
  ----------------------------------------
      1 C                     0.198676
      2 C                     0.241668
      3 C                    -0.683942
      4 C                    -0.579725
      5 O                     0.005267
      6 O                    -0.187983
      7 O                    -0.008596
      8 O                    -0.188580
      9 C                    -0.200177
     10 C                    -0.203475
     11 C                     0.200367
     12 C                    -0.331210
     13 C                    -0.509433
     14 C                     0.482840
     15 C                    -0.757113
     16 C                    -0.385246
     17 H                     0.176018
     18 H                     0.162623
     19 H                     0.142468
     20 H                     0.153705
     21 H                     0.176229
     22 H                     0.142498
     23 H                     0.193755
     24 H                     0.269234
     25 H                     0.267921
     26 H                     0.145451
     27 H                     0.189110
     28 H                     0.160857
     29 H                     0.187157
     30 H                     0.110952
     31 H                     0.158132
     32 H                     0.270552
  ----------------------------------------
  Sum of atomic charges =    -0.000000

                    Cartesian Multipole Moments
 -----------------------------------------------------------------
    Charge (ESU x 10^10)
                -0.0000
    Dipole Moment (Debye)
         X      -2.0596      Y      -1.1364      Z      -1.6702
       Tot       2.8849
    Quadrupole Moments (Debye-Ang)
        XX     -88.7375     XY      -5.1794     YY     -93.4506
        XZ      -4.9602     YZ      -7.3423     ZZ     -96.4704

 Frequency:        29.65                  76.04                  85.20
 Force Cnst:      0.0033                 0.0119                 0.0131
 Red. Mass:       6.2930                 3.4999                 3.0661
 IR Intens:        1.674                  1.506                  0.847
 Frequency:       112.28                 117.11                 135.82
 Force Cnst:      0.0153                 0.0266                 0.0202
 Red. Mass:       2.0599                 3.2892                 1.8630
 IR Intens:        1.275                  1.037                  0.460
 Frequency:       146.74                 161.12                 178.41
 Force Cnst:      0.0162                 0.0401                 0.0720
 Red. Mass:       1.2733                 2.6189                 3.8413
 IR Intens:        0.054                  0.504                  1.335
 Frequency:       229.15                 241.03                 249.53
 Force Cnst:      0.1323                 0.0375                 0.1529
 Red. Mass:       4.2751                 1.0953                 4.1664
 IR Intens:        3.885                  0.087                  7.648
 Frequency:       262.43                 293.05                 323.70
 Force Cnst:      0.1635                 0.1512                 0.2278
 Red. Mass:       4.0303                 2.9883                 3.6904
 IR Intens:        4.725                  1.561                  5.984
 Frequency:       347.45                 363.38                 411.23
 Force Cnst:      0.3192                 0.3363                 0.4536
 Red. Mass:       4.4882                 4.3228                 4.5528
 IR Intens:       18.983                  7.394                  3.010
 Frequency:       416.69                 466.34                 536.96
 Force Cnst:      0.4080                 0.3900                 0.6073
 Red. Mass:       3.9878                 3.0438                 3.5752
 IR Intens:        1.283                  0.662                  8.159
 Frequency:       558.43                 678.84                 724.77
 Force Cnst:      0.4788                 0.8879                 0.7589
 Red. Mass:       2.6060                 3.2703                 2.4522
 IR Intens:        4.432                 10.072                 42.278
 Frequency:       729.48                 767.96                 774.27
 Force Cnst:      1.2977                 1.7384                 1.8412
 Red. Mass:       4.1390                 5.0030                 5.2126
 IR Intens:        7.456                  0.427                 10.189
 Frequency:       792.60                 814.12                 835.41
 Force Cnst:      1.6208                 1.6936                 1.5412
 Red. Mass:       4.3788                 4.3371                 3.7482
 IR Intens:        8.006                  6.739                 14.179
 Frequency:       854.04                 894.96                 899.77
 Force Cnst:      1.7533                 1.1623                 1.1298
 Red. Mass:       4.0799                 2.4629                 2.3686
 IR Intens:        2.169                  3.476                 19.980
 Frequency:       918.21                 932.55                 951.55
 Force Cnst:      1.1435                 1.4475                 0.7799
 Red. Mass:       2.3020                 2.8251                 1.4619
 IR Intens:        4.006                  2.796                  3.264
 Frequency:       972.20                 984.35                 989.96
 Force Cnst:      1.3096                 1.3275                 1.0572
 Red. Mass:       2.3517                 2.3253                 1.8310
 IR Intens:        3.083                  1.567                  0.170
 Frequency:      1008.32                1050.15                1059.66
 Force Cnst:      1.9445                 1.5377                 1.5955
 Red. Mass:       3.2462                 2.3666                 2.4116
 IR Intens:        5.387                 23.727                 38.379
 Frequency:      1096.22                1113.36                1129.57
 Force Cnst:      2.4872                 0.9899                 1.3697
 Red. Mass:       3.5129                 1.3554                 1.8220
 IR Intens:       22.163                  7.483                 78.782
 Frequency:      1139.82                1156.36                1171.15
 Force Cnst:      1.6655                 1.1318                 1.0370
 Red. Mass:       2.1758                 1.4367                 1.2832
 IR Intens:      174.842                  3.454                  1.059
 Frequency:      1172.32                1188.40                1208.55
 Force Cnst:      1.0425                 1.6493                 1.3144
 Red. Mass:       1.2875                 1.9821                 1.5274
 IR Intens:        0.166                 28.018                 19.196
 Frequency:      1209.83                1235.19                1265.32
 Force Cnst:      1.2927                 1.7287                 1.8521
 Red. Mass:       1.4990                 1.9231                 1.9634
 IR Intens:       16.084                 77.218                 81.316
 Frequency:      1280.59                1282.01                1283.13
 Force Cnst:      1.6711                 1.3503                 3.0100
 Red. Mass:       1.7296                 1.3944                 3.1030
 IR Intens:       52.161                 15.005                179.179
 Frequency:      1292.67                1325.74                1356.42
 Force Cnst:      2.0496                 1.6338                 1.7080
 Red. Mass:       2.0818                 1.5778                 1.5756
 IR Intens:       50.322                  4.967                 18.620
 Frequency:      1380.46                1402.90                1467.68
 Force Cnst:      1.5739                 1.3912                 1.5327
 Red. Mass:       1.4018                 1.1998                 1.2076
 IR Intens:        6.604                 10.183                 15.004
 Frequency:      1469.13                1482.25                1483.68
 Force Cnst:      1.4979                 1.3512                 1.3559
 Red. Mass:       1.1779                 1.0438                 1.0455
 IR Intens:        7.910                  7.253                 10.206
 Frequency:      1495.13                1497.36                1498.75
 Force Cnst:      1.3782                 1.3847                 1.3841
 Red. Mass:       1.0464                 1.0482                 1.0458
 IR Intens:        2.728                 12.690                  8.027
 Frequency:      1500.09                1514.17                1636.27
 Force Cnst:      1.4233                 1.4688                 9.0483
 Red. Mass:       1.0735                 1.0874                 5.7359
 IR Intens:        2.911                 16.036                  2.059
 Frequency:      1776.10                1794.03                3036.01
 Force Cnst:     20.0909                22.5975                 5.6156
 Red. Mass:      10.8097                11.9165                 1.0340
 IR Intens:      233.846                271.700                 15.170
 Frequency:      3048.49                3049.64                3052.83
 Force Cnst:      5.6380                 5.6384                 5.8157
 Red. Mass:       1.0297                 1.0290                 1.0591
 IR Intens:       36.047                 44.820                 33.461
 Frequency:      3076.48                3102.27                3105.97
 Force Cnst:      6.0438                 6.2597                 6.2789
 Red. Mass:       1.0838                 1.1039                 1.1047
 IR Intens:        9.188                 30.117                 13.880
 Frequency:      3110.93                3113.86                3121.84
 Force Cnst:      6.2102                 6.2951                 6.3565
 Red. Mass:       1.0891                 1.1019                 1.1070
 IR Intens:       27.998                 22.927                 18.153
 Frequency:      3125.08                3125.71                3151.80
 Force Cnst:      6.2685                 6.3719                 6.4777
 Red. Mass:       1.0894                 1.1069                 1.1068
 IR Intens:       24.458                 14.451                 14.832
 Frequency:      3154.01                3202.01                3233.51
 Force Cnst:      6.4834                 6.5772                 6.7991
 Red. Mass:       1.1062                 1.0888                 1.1037
 IR Intens:       13.606                  5.599                  7.929

 STANDARD THERMODYNAMIC QUANTITIES AT   298.15 K  AND     1.00 ATM

   This Molecule has  0 Imaginary Frequencies
   Zero point vibrational energy:      166.531 kcal/mol

   Atom    1 Element C  Has Mass   12.00000
   Atom    2 Element C  Has Mass   12.00000
   Atom    3 Element C  Has Mass   12.00000
   Atom    4 Element C  Has Mass   12.00000
   Atom    5 Element O  Has Mass   15.99491
   Atom    6 Element O  Has Mass   15.99491
   Atom    7 Element O  Has Mass   15.99491
   Atom    8 Element O  Has Mass   15.99491
   Atom    9 Element C  Has Mass   12.00000
   Atom   10 Element C  Has Mass   12.00000
   Atom   11 Element C  Has Mass   12.00000
   Atom   12 Element C  Has Mass   12.00000
   Atom   13 Element C  Has Mass   12.00000
   Atom   14 Element C  Has Mass   12.00000
   Atom   15 Element C  Has Mass   12.00000
   Atom   16 Element C  Has Mass   12.00000
   Atom   17 Element H  Has Mass    1.00783
   Atom   18 Element H  Has Mass    1.00783
   Atom   19 Element H  Has Mass    1.00783
   Atom   20 Element H  Has Mass    1.00783
   Atom   21 Element H  Has Mass    1.00783
   Atom   22 Element H  Has Mass    1.00783
   Atom   23 Element H  Has Mass    1.00783
   Atom   24 Element H  Has Mass    1.00783
   Atom   25 Element H  Has Mass    1.00783
   Atom   26 Element H  Has Mass    1.00783
   Atom   27 Element H  Has Mass    1.00783
   Atom   28 Element H  Has Mass    1.00783
   Atom   29 Element H  Has Mass    1.00783
   Atom   30 Element H  Has Mass    1.00783
   Atom   31 Element H  Has Mass    1.00783
   Atom   32 Element H  Has Mass    1.00783
   Molecular Mass:   224.104920 amu
   Principal axes and moments of inertia in amu*Bohr^2:
                             1           2           3
    Eigenvalues --     2625.55653  3269.43463  4159.78803
          X               0.99829    -0.04722    -0.03460
          Y               0.04723     0.99888    -0.00055
          Z               0.03458    -0.00109     0.99940
   Rotational Symmetry Number is   1
   The Molecule is an Asymmetric Top
   Translational Enthalpy:        0.889 kcal/mol
   Rotational Enthalpy:           0.889 kcal/mol
   Vibrational Enthalpy:        174.510 kcal/mol
   gas constant (RT):             0.592 kcal/mol
   Translational Entropy:        42.123  cal/mol.K
   Rotational Entropy:           31.946  cal/mol.K
   Vibrational Entropy:          50.393  cal/mol.K

   Total Enthalpy:              176.880 kcal/mol
   Total Entropy:               124.462  cal/mol.K

 Total job time:  8556.19s(wall), 30439.13s(cpu)
        *  Thank you very much for using Q-Chem.  Have a nice day.  *
