 Q-Chem 5.0, Q-Chem, Inc., Pleasanton, CA (2017)
 Q-Chem 5.0.1 for Intel X86 EM64T Linux

User input:
--------------------------------------------------------------
$molecule
0  1
--
0  1
C        +0.20238000        +1.04766000        +0.59128000
C        +0.63819000        -0.38392000        +1.03507000
C        +1.32502000        +1.40342000        -0.40773000
C        +2.63024000        +1.71632000        +0.35656000
C        +3.06844000        +0.28546000        +0.80025000
C        +1.92879000        -0.57154000        +0.20725000
O        +1.61715000        +0.12844000        -1.01410000
H        +3.36771000        +2.16806000        -0.30914000
H        +2.46905000        +2.39751000        +1.19495000
H        +4.02649000        +0.00980000        +0.35668000
H        +3.15140000        +0.17666000        +1.88393000
H        +1.05332000        +2.11810000        -1.18255000
H        +2.19020000        -1.60239000        -0.02473000
H        +0.81538000        -0.46660000        +2.10960000
H        -0.10758000        -1.13032000        +0.75591000
H        -0.76622000        +1.02844000        +0.08894000
H        +0.14243000        +1.75630000        +1.41989000
--
0  1
C        +0.24598000        +2.36274000        +4.78993000
C        +0.68179000        +0.93116000        +5.23372000
C        +1.36862000        +2.71850000        +3.79092000
C        +2.67384000        +3.03140000        +4.55521000
C        +3.11204000        +1.60054000        +4.99890000
C        +1.97239000        +0.74354000        +4.40590000
O        +1.66075000        +1.44352000        +3.18455000
H        +3.41131000        +3.48314000        +3.88951000
H        +2.51265000        +3.71259000        +5.39360000
H        +4.07009000        +1.32488000        +4.55533000
H        +3.19500000        +1.49174000        +6.08258000
H        +1.09692000        +3.43318000        +3.01610000
H        +2.23380000        -0.28731000        +4.17392000
H        +0.85898000        +0.84848000        +6.30825000
H        -0.06398000        +0.18476000        +4.95456000
H        -0.72262000        +2.34352000        +4.28759000
H        +0.18603000        +3.07138000        +5.61854000
$end

$rem
JOBTYPE                   SP
METHOD                    B3LYP
DFT_D                     d3_op
BASIS                     6-311++G(d,p)
SYMMETRY                  False
THRESH                    12
SCF_CONVERGENCE           8
MAX_SUB_FILE_NUM          128
MEM_STATIC                400
MEM_TOTAL                 4000
$end
--------------------------------------------------------------

             Standard Nuclear Orientation (Angstroms)
    I     Atom           X                Y                Z
 ----------------------------------------------------------------
    1      C      -1.7360630874    -1.2641750347     0.7815009288
    2      C      -1.7362146589    -1.2659861190    -0.7793635475
    3      C      -2.5718325903     0.0003717330     1.0769963388
    4      C      -1.7360235825     1.2649954223     0.7806939774
    5      C      -1.7360315906     1.2656782395    -0.7801519245
    6      C      -2.5693998525     0.0000575000    -1.0778121441
    7      O      -3.5286820504    -0.0003331102    -0.0014456523
    8      H      -2.2288770756     2.1542700344     1.1773974146
    9      H      -0.7339819839     1.2126697103     1.2120574887
   10      H      -2.2321807326     2.1535202996    -1.1753418638
   11      H      -0.7336623000     1.2158264029    -1.2112583426
   12      H      -3.1002354792     0.0007208451     2.0286920307
   13      H      -3.0963239416    -0.0003057393    -2.0302576823
   14      H      -0.7338318378    -1.2176277137    -1.2103358716
   15      H      -2.2331337740    -2.1534266536    -1.1752635971
   16      H      -2.2307766096    -2.1523033584     1.1782218076
   17      H      -0.7341418704    -1.2111513900     1.2124319584
   18      C       2.6639366971    -1.2643668126     0.7812801919
   19      C       2.6637851256    -1.2661778969    -0.7795842845
   20      C       1.8281671941     0.0001799552     1.0767756019
   21      C       2.6639762020     1.2648036445     0.7804732404
   22      C       2.6639681939     1.2654864616    -0.7803726614
   23      C       1.8305999320    -0.0001342779    -1.0780328810
   24      O       0.8713177341    -0.0005248881    -0.0016663892
   25      H       2.1711227089     2.1540782566     1.1771766776
   26      H       3.6660178006     1.2124779325     1.2118367518
   27      H       2.1678190519     2.1533285218    -1.1755626008
   28      H       3.6663374844     1.2156346250    -1.2114790796
   29      H       1.2997643052     0.0005290672     2.0284712937
   30      H       1.3036758429    -0.0004975171    -2.0304784193
   31      H       3.6661679466    -1.2178194915    -1.2105566085
   32      H       2.1668660105    -2.1536184314    -1.1754843340
   33      H       2.1692231749    -2.1524951363     1.1780010707
   34      H       3.6658579141    -1.2113431679     1.2122112214
 ----------------------------------------------------------------

   13    -619.9369773788      6.21E-09 Convergence criterion met
 Total energy in the final basis set = -619.93697738

                    Orbital Energies (a.u.)
 --------------------------------------------------------------

 Alpha MOs
 -- Occupied --
-19.128 -19.103 -10.229 -10.229 -10.204 -10.204 -10.178 -10.178
-10.178 -10.178 -10.152 -10.152 -10.152 -10.152  -1.060  -1.032
 -0.808  -0.781  -0.760  -0.756  -0.734  -0.730  -0.621  -0.596
 -0.584  -0.581  -0.557  -0.555  -0.536  -0.510  -0.490  -0.479
 -0.460  -0.449  -0.429  -0.416  -0.403  -0.399  -0.392  -0.376
 -0.374  -0.370  -0.357  -0.353  -0.349  -0.345  -0.335  -0.332
 -0.323  -0.315  -0.304  -0.291  -0.276  -0.247

          Ground-State Mulliken Net Atomic Charges

     Atom                 Charge (a.u.)
  ----------------------------------------
      1 C                    -0.374123
      2 C                    -0.388268
      3 C                     0.082800
      4 C                    -0.375098
      5 C                    -0.386890
      6 C                     0.092821
      7 O                    -0.162321
      8 H                     0.176605
      9 H                     0.056736
     10 H                     0.177074
     11 H                     0.057781
     12 H                     0.229346
     13 H                     0.228904
     14 H                     0.058054
     15 H                     0.176969
     16 H                     0.176808
     17 H                     0.056492
     18 C                    -0.467474
     19 C                    -0.470898
     20 C                     0.134932
     21 C                    -0.467990
     22 C                    -0.470822
     23 C                     0.138839
     24 O                     0.113535
     25 H                     0.161829
     26 H                     0.135949
     27 H                     0.161783
     28 H                     0.135959
     29 H                     0.207774
     30 H                     0.207524
     31 H                     0.135912
     32 H                     0.161730
     33 H                     0.161725
     34 H                     0.136002
  ----------------------------------------
  Sum of atomic charges =     0.000000

                    Cartesian Multipole Moments
 -----------------------------------------------------------------
    Charge (ESU x 10^10)
                 0.0000
    Dipole Moment (Debye)
         X       4.4248      Y       0.0033      Z       0.0017
       Tot       4.4248
    Quadrupole Moments (Debye-Ang)
        XX     -95.8478     XY       0.0035     YY     -87.4544
        XZ      -0.0082     YZ       0.0056     ZZ     -82.9739

 Total job time:  149.89s(wall), 596.13s(cpu)
        *  Thank you very much for using Q-Chem.  Have a nice day.  *
