 Q-Chem 5.0, Q-Chem, Inc., Pleasanton, CA (2017)
 Q-Chem 5.0.1 for Intel X86 EM64T Linux

User input:
--------------------------------------------------------------
$molecule
0  1
C        +0.24598000        +2.36274000        +4.78993000
C        +0.68179000        +0.93116000        +5.23372000
C        +1.36862000        +2.71850000        +3.79092000
C        +2.67384000        +3.03140000        +4.55521000
C        +3.11204000        +1.60054000        +4.99890000
C        +1.97239000        +0.74354000        +4.40590000
O        +1.66075000        +1.44352000        +3.18455000
H        +3.41131000        +3.48314000        +3.88951000
H        +2.51265000        +3.71259000        +5.39360000
H        +4.07009000        +1.32488000        +4.55533000
H        +3.19500000        +1.49174000        +6.08258000
H        +1.09692000        +3.43318000        +3.01610000
H        +2.23380000        -0.28731000        +4.17392000
H        +0.85898000        +0.84848000        +6.30825000
H        -0.06398000        +0.18476000        +4.95456000
H        -0.72262000        +2.34352000        +4.28759000
H        +0.18603000        +3.07138000        +5.61854000
@C        +0.20238000        +1.04766000        +0.59128000
@C        +0.63819000        -0.38392000        +1.03507000
@C        +1.32502000        +1.40342000        -0.40773000
@C        +2.63024000        +1.71632000        +0.35656000
@C        +3.06844000        +0.28546000        +0.80025000
@C        +1.92879000        -0.57154000        +0.20725000
@O        +1.61715000        +0.12844000        -1.01410000
@H        +3.36771000        +2.16806000        -0.30914000
@H        +2.46905000        +2.39751000        +1.19495000
@H        +4.02649000        +0.00980000        +0.35668000
@H        +3.15140000        +0.17666000        +1.88393000
@H        +1.05332000        +2.11810000        -1.18255000
@H        +2.19020000        -1.60239000        -0.02473000
@H        +0.81538000        -0.46660000        +2.10960000
@H        -0.10758000        -1.13032000        +0.75591000
@H        -0.76622000        +1.02844000        +0.08894000
@H        +0.14243000        +1.75630000        +1.41989000
$end

$rem
JOBTYPE                   SP
METHOD                    B3LYP
DFT_D                     d3_op
BASIS                     6-311++G(d,p)
SYMMETRY                  False
THRESH                    12
SCF_CONVERGENCE           8
MAX_SUB_FILE_NUM          128
MEM_STATIC                400
MEM_TOTAL                 4000
$end
--------------------------------------------------------------

             Standard Nuclear Orientation (Angstroms)
    I     Atom           X                Y                Z
 ----------------------------------------------------------------
    1      C       0.2459800000     2.3627400000     4.7899300000
    2      C       0.6817900000     0.9311600000     5.2337200000
    3      C       1.3686200000     2.7185000000     3.7909200000
    4      C       2.6738400000     3.0314000000     4.5552100000
    5      C       3.1120400000     1.6005400000     4.9989000000
    6      C       1.9723900000     0.7435400000     4.4059000000
    7      O       1.6607500000     1.4435200000     3.1845500000
    8      H       3.4113100000     3.4831400000     3.8895100000
    9      H       2.5126500000     3.7125900000     5.3936000000
   10      H       4.0700900000     1.3248800000     4.5553300000
   11      H       3.1950000000     1.4917400000     6.0825800000
   12      H       1.0969200000     3.4331800000     3.0161000000
   13      H       2.2338000000    -0.2873100000     4.1739200000
   14      H       0.8589800000     0.8484800000     6.3082500000
   15      H      -0.0639800000     0.1847600000     4.9545600000
   16      H      -0.7226200000     2.3435200000     4.2875900000
   17      H       0.1860300000     3.0713800000     5.6185400000
   18      GH      0.2023800000     1.0476600000     0.5912800000
   19      GH      0.6381900000    -0.3839200000     1.0350700000
   20      GH      1.3250200000     1.4034200000    -0.4077300000
   21      GH      2.6302400000     1.7163200000     0.3565600000
   22      GH      3.0684400000     0.2854600000     0.8002500000
   23      GH      1.9287900000    -0.5715400000     0.2072500000
   24      GH      1.6171500000     0.1284400000    -1.0141000000
   25      GH      3.3677100000     2.1680600000    -0.3091400000
   26      GH      2.4690500000     2.3975100000     1.1949500000
   27      GH      4.0264900000     0.0098000000     0.3566800000
   28      GH      3.1514000000     0.1766600000     1.8839300000
   29      GH      1.0533200000     2.1181000000    -1.1825500000
   30      GH      2.1902000000    -1.6023900000    -0.0247300000
   31      GH      0.8153800000    -0.4666000000     2.1096000000
   32      GH     -0.1075800000    -1.1303200000     0.7559100000
   33      GH     -0.7662200000     1.0284400000     0.0889400000
   34      GH      0.1424300000     1.7563000000     1.4198900000
 ----------------------------------------------------------------

   11    -309.9686004495      9.70E-09 Convergence criterion met
 Total energy in the final basis set = -309.96860045

                    Orbital Energies (a.u.)
 --------------------------------------------------------------

 Alpha MOs
 -- Occupied --
-19.118 -10.219 -10.219 -10.170 -10.170 -10.170 -10.170  -1.046
 -0.798  -0.751  -0.746  -0.612  -0.572  -0.571  -0.524  -0.478
 -0.468  -0.418  -0.408  -0.389  -0.367  -0.361  -0.348  -0.342
 -0.323  -0.306  -0.263

          Ground-State Mulliken Net Atomic Charges

     Atom                 Charge (a.u.)
  ----------------------------------------
      1 C                    -0.483031
      2 C                    -0.489528
      3 C                     0.202861
      4 C                    -0.486149
      5 C                    -0.487373
      6 C                     0.207541
      7 O                     0.095263
      8 H                     0.157925
      9 H                     0.130976
     10 H                     0.157531
     11 H                     0.130770
     12 H                     0.197438
     13 H                     0.197572
     14 H                     0.130745
     15 H                     0.157920
     16 H                     0.157303
     17 H                     0.130746
     18 GH                   -0.033259
     19 GH                   -0.037377
     20 GH                    0.071734
     21 GH                   -0.033219
     22 GH                   -0.037336
     23 GH                    0.074489
     24 GH                   -0.001344
     25 GH                   -0.005353
     26 GH                   -0.025666
     27 GH                   -0.005383
     28 GH                   -0.024874
     29 GH                    0.005009
     30 GH                    0.004935
     31 GH                   -0.024781
     32 GH                   -0.005369
     33 GH                   -0.005344
     34 GH                   -0.025371
  ----------------------------------------
  Sum of atomic charges =     0.000000

                    Cartesian Multipole Moments
 -----------------------------------------------------------------
    Charge (ESU x 10^10)
                 0.0000
    Dipole Moment (Debye)
         X       0.0201      Y       0.5262      Z       1.6711
       Tot       1.7521
    Quadrupole Moments (Debye-Ang)
        XX     -43.1122     XY       0.3371     YY     -39.8972
        XZ       3.0257     YZ       3.7087     ZZ     -31.8888

 Total job time:  120.82s(wall), 480.53s(cpu)
        *  Thank you very much for using Q-Chem.  Have a nice day.  *
