 Q-Chem 5.0, Q-Chem, Inc., Pleasanton, CA (2017)
 Q-Chem 5.0.1 for Intel X86 EM64T Linux

User input:
--------------------------------------------------------------
$molecule
0  1
--
0  1
C        +0.22270000        +1.04488000        +0.58595000
C        +0.62626000        -0.41353000        +0.99871000
C        +1.33008000        +1.39974000        -0.43491000
C        +2.63070000        +1.71700000        +0.32855000
C        +3.04336000        +0.29351000        +0.80300000
C        +1.94423000        -0.59299000        +0.15262000
O        +1.62840000        +0.13663000        -1.04376000
H        +3.37234000        +2.13782000        -0.35195000
H        +2.48236000        +2.42488000        +1.14651000
H        +4.02182000        +0.00994000        +0.41161000
H        +3.07359000        +0.18738000        +1.88928000
H        +1.03270000        +2.19943000        -1.08064000
H        +2.24339000        -1.61496000        +0.04786000
H        +0.81693000        -0.48905000        +2.04887000
H        -0.12524000        -1.15356000        +0.81843000
H        -0.74673000        +1.06811000        +0.13365000
H        +0.15552000        +1.72617000        +1.40828000
--
0  1
C        +4.08301000        +3.29220000        +4.12679000
C        +4.48657000        +1.83379000        +4.53955000
C        +5.19039000        +3.64706000        +3.10593000
C        +6.49101000        +3.96432000        +3.86939000
C        +6.90367000        +2.54083000        +4.34384000
C        +5.80454000        +1.65433000        +3.69346000
O        +5.48871000        +2.38395000        +2.49708000
H        +7.23265000        +4.38514000        +3.18889000
H        +6.34267000        +4.67220000        +4.68735000
H        +7.88213000        +2.25726000        +3.95245000
H        +6.93390000        +2.43470000        +5.43012000
H        +4.89301000        +4.44675000        +2.46020000
H        +6.10370000        +0.63236000        +3.58870000
H        +4.67724000        +1.75827000        +5.58971000
H        +3.73507000        +1.09376000        +4.35927000
H        +3.11358000        +3.31543000        +3.67449000
H        +4.01583000        +3.97349000        +4.94912000
$end

$rem
JOBTYPE                   SP
METHOD                    B3LYP
DFT_D                     d3_op
BASIS                     6-311++G(d,p)
SYMMETRY                  False
THRESH                    12
SCF_CONVERGENCE           8
MAX_SUB_FILE_NUM          128
MEM_STATIC                400
MEM_TOTAL                 4000
$end
--------------------------------------------------------------

             Standard Nuclear Orientation (Angstroms)
    I     Atom           X                Y                Z
 ----------------------------------------------------------------
    1      C       3.4220098627    -0.5122272211     1.2491638263
    2      C       3.4695695557     1.0163926019     0.9009530689
    3      C       3.1125970373    -1.1389411175    -0.1313667308
    4      C       1.6222592345    -0.9199298439    -0.4570425803
    5      C       1.6129989197     0.6060587692    -0.7619816848
    6      C       3.1196250580     0.9680155413    -0.6353794502
    7      O       3.7639210699    -0.2482274024    -1.0465421781
    8      H       1.3408437936    -1.5009521036    -1.3364845030
    9      H       0.9607228154    -1.2061937600     0.3630671369
   10      H       1.2718509413     0.8082480548    -1.7787017044
   11      H       0.9881715083     1.1838730337    -0.0779472924
   12      H       3.3890771960    -2.1719249468    -0.1689076914
   13      H       3.3756198640     1.8672436651    -1.1557153847
   14      H       2.7416954075     1.5712541684     1.4552293641
   15      H       4.3954167423     1.4995928533     1.1338093191
   16      H       4.3609599764    -0.8546097753     1.6313369785
   17      H       2.7114983329    -0.7627269503     2.0089789993
   18      C      -2.2743450686    -0.4590493470     1.4458895118
   19      C      -2.2267853756     1.0695704760     1.0976787544
   20      C      -2.5837578939    -1.0857632434     0.0653589547
   21      C      -4.0740956968    -0.8667519698    -0.2603168948
   22      C      -4.0833560116     0.6592366433    -0.5652559993
   23      C      -2.5767298733     1.0211934153    -0.4386537647
   24      O      -1.9324338614    -0.1950495283    -0.8498164926
   25      H      -4.3555111377    -1.4477742295    -1.1397588175
   26      H      -4.7356321158    -1.1530158859     0.5597928223
   27      H      -4.4245039900     0.8614259288    -1.5819760189
   28      H      -4.7081834230     1.2370509077     0.1187783931
   29      H      -2.3072777353    -2.1187470727     0.0278179941
   30      H      -2.3207350672     1.9204215391    -0.9589896992
   31      H      -2.9546595237     1.6244320425     1.6519550495
   32      H      -1.3009381889     1.5527707274     1.3305350046
   33      H      -1.3353949548    -0.8014319013     1.8280626640
   34      H      -2.9848565984    -0.7095490763     2.2057046848
 ----------------------------------------------------------------

   13    -619.9217841484      6.37E-09 Convergence criterion met
 Total energy in the final basis set = -619.92178415

                    Orbital Energies (a.u.)
 --------------------------------------------------------------

 Alpha MOs
 -- Occupied --
-19.126 -19.117 -10.225 -10.222 -10.215 -10.212 -10.171 -10.170
-10.169 -10.168 -10.160 -10.159 -10.159 -10.158  -1.054  -1.044
 -0.801  -0.791  -0.753  -0.751  -0.741  -0.741  -0.618  -0.607
 -0.582  -0.577  -0.571  -0.566  -0.530  -0.520  -0.482  -0.471
 -0.468  -0.458  -0.434  -0.424  -0.410  -0.399  -0.398  -0.388
 -0.368  -0.363  -0.357  -0.355  -0.353  -0.344  -0.343  -0.332
 -0.321  -0.310  -0.308  -0.297  -0.268  -0.257

          Ground-State Mulliken Net Atomic Charges

     Atom                 Charge (a.u.)
  ----------------------------------------
      1 C                    -0.453904
      2 C                    -0.436417
      3 C                     0.065193
      4 C                    -0.322585
      5 C                    -0.296233
      6 C                     0.039933
      7 O                    -0.141294
      8 H                     0.187430
      9 H                     0.066395
     10 H                     0.178610
     11 H                     0.056143
     12 H                     0.229237
     13 H                     0.231281
     14 H                     0.105552
     15 H                     0.176128
     16 H                     0.169768
     17 H                     0.113486
     18 C                    -0.324394
     19 C                    -0.370609
     20 C                     0.105446
     21 C                    -0.567757
     22 C                    -0.493479
     23 C                     0.141221
     24 O                    -0.054642
     25 H                     0.168992
     26 H                     0.125191
     27 H                     0.168235
     28 H                     0.125142
     29 H                     0.221706
     30 H                     0.226525
     31 H                     0.136248
     32 H                     0.143651
     33 H                     0.131640
     34 H                     0.148159
  ----------------------------------------
  Sum of atomic charges =     0.000000

                    Cartesian Multipole Moments
 -----------------------------------------------------------------
    Charge (ESU x 10^10)
                 0.0000
    Dipole Moment (Debye)
         X      -2.7840      Y       0.5569      Z       2.3846
       Tot       3.7077
    Quadrupole Moments (Debye-Ang)
        XX     -92.0074     XY       1.0506     YY     -81.5560
        XZ       3.8394     YZ      -2.3790     ZZ     -90.1987

 Total job time:  139.78s(wall), 555.88s(cpu)
        *  Thank you very much for using Q-Chem.  Have a nice day.  *
