 Q-Chem 5.0, Q-Chem, Inc., Pleasanton, CA (2017)
 Q-Chem 5.0.1 for Intel X86 EM64T Linux

User input:
--------------------------------------------------------------
$molecule
0  1
C        +4.08301000        +3.29220000        +4.12679000
C        +4.48657000        +1.83379000        +4.53955000
C        +5.19039000        +3.64706000        +3.10593000
C        +6.49101000        +3.96432000        +3.86939000
C        +6.90367000        +2.54083000        +4.34384000
C        +5.80454000        +1.65433000        +3.69346000
O        +5.48871000        +2.38395000        +2.49708000
H        +7.23265000        +4.38514000        +3.18889000
H        +6.34267000        +4.67220000        +4.68735000
H        +7.88213000        +2.25726000        +3.95245000
H        +6.93390000        +2.43470000        +5.43012000
H        +4.89301000        +4.44675000        +2.46020000
H        +6.10370000        +0.63236000        +3.58870000
H        +4.67724000        +1.75827000        +5.58971000
H        +3.73507000        +1.09376000        +4.35927000
H        +3.11358000        +3.31543000        +3.67449000
H        +4.01583000        +3.97349000        +4.94912000
@C        +0.22270000        +1.04488000        +0.58595000
@C        +0.62626000        -0.41353000        +0.99871000
@C        +1.33008000        +1.39974000        -0.43491000
@C        +2.63070000        +1.71700000        +0.32855000
@C        +3.04336000        +0.29351000        +0.80300000
@C        +1.94423000        -0.59299000        +0.15262000
@O        +1.62840000        +0.13663000        -1.04376000
@H        +3.37234000        +2.13782000        -0.35195000
@H        +2.48236000        +2.42488000        +1.14651000
@H        +4.02182000        +0.00994000        +0.41161000
@H        +3.07359000        +0.18738000        +1.88928000
@H        +1.03270000        +2.19943000        -1.08064000
@H        +2.24339000        -1.61496000        +0.04786000
@H        +0.81693000        -0.48905000        +2.04887000
@H        -0.12524000        -1.15356000        +0.81843000
@H        -0.74673000        +1.06811000        +0.13365000
@H        +0.15552000        +1.72617000        +1.40828000
$end

$rem
JOBTYPE                   SP
METHOD                    B3LYP
DFT_D                     d3_op
BASIS                     6-311++G(d,p)
SYMMETRY                  False
THRESH                    12
SCF_CONVERGENCE           8
MAX_SUB_FILE_NUM          128
MEM_STATIC                400
MEM_TOTAL                 4000
$end
--------------------------------------------------------------

             Standard Nuclear Orientation (Angstroms)
    I     Atom           X                Y                Z
 ----------------------------------------------------------------
    1      C       4.0830100000     3.2922000000     4.1267900000
    2      C       4.4865700000     1.8337900000     4.5395500000
    3      C       5.1903900000     3.6470600000     3.1059300000
    4      C       6.4910100000     3.9643200000     3.8693900000
    5      C       6.9036700000     2.5408300000     4.3438400000
    6      C       5.8045400000     1.6543300000     3.6934600000
    7      O       5.4887100000     2.3839500000     2.4970800000
    8      H       7.2326500000     4.3851400000     3.1888900000
    9      H       6.3426700000     4.6722000000     4.6873500000
   10      H       7.8821300000     2.2572600000     3.9524500000
   11      H       6.9339000000     2.4347000000     5.4301200000
   12      H       4.8930100000     4.4467500000     2.4602000000
   13      H       6.1037000000     0.6323600000     3.5887000000
   14      H       4.6772400000     1.7582700000     5.5897100000
   15      H       3.7350700000     1.0937600000     4.3592700000
   16      H       3.1135800000     3.3154300000     3.6744900000
   17      H       4.0158300000     3.9734900000     4.9491200000
   18      GH      0.2227000000     1.0448800000     0.5859500000
   19      GH      0.6262600000    -0.4135300000     0.9987100000
   20      GH      1.3300800000     1.3997400000    -0.4349100000
   21      GH      2.6307000000     1.7170000000     0.3285500000
   22      GH      3.0433600000     0.2935100000     0.8030000000
   23      GH      1.9442300000    -0.5929900000     0.1526200000
   24      GH      1.6284000000     0.1366300000    -1.0437600000
   25      GH      3.3723400000     2.1378200000    -0.3519500000
   26      GH      2.4823600000     2.4248800000     1.1465100000
   27      GH      4.0218200000     0.0099400000     0.4116100000
   28      GH      3.0735900000     0.1873800000     1.8892800000
   29      GH      1.0327000000     2.1994300000    -1.0806400000
   30      GH      2.2433900000    -1.6149600000     0.0478600000
   31      GH      0.8169300000    -0.4890500000     2.0488700000
   32      GH     -0.1252400000    -1.1535600000     0.8184300000
   33      GH     -0.7467300000     1.0681100000     0.1336500000
   34      GH      0.1555200000     1.7261700000     1.4082800000
 ----------------------------------------------------------------

   12    -309.9597817414      6.22E-09 Convergence criterion met
 Total energy in the final basis set = -309.95978174

                    Orbital Energies (a.u.)
 --------------------------------------------------------------

 Alpha MOs
 -- Occupied --
-19.123 -10.221 -10.218 -10.168 -10.167 -10.165 -10.163  -1.050
 -0.798  -0.749  -0.747  -0.614  -0.578  -0.574  -0.527  -0.478
 -0.465  -0.431  -0.406  -0.395  -0.364  -0.360  -0.351  -0.339
 -0.317  -0.304  -0.264

          Ground-State Mulliken Net Atomic Charges

     Atom                 Charge (a.u.)
  ----------------------------------------
      1 C                    -0.335659
      2 C                    -0.380017
      3 C                     0.126895
      4 C                    -0.566666
      5 C                    -0.491654
      6 C                     0.159478
      7 O                    -0.069404
      8 H                     0.167847
      9 H                     0.124775
     10 H                     0.167165
     11 H                     0.124477
     12 H                     0.218646
     13 H                     0.223333
     14 H                     0.135623
     15 H                     0.140967
     16 H                     0.129022
     17 H                     0.147226
     18 GH                   -0.002546
     19 GH                   -0.000542
     20 GH                   -0.017336
     21 GH                    0.020562
     22 GH                   -0.003761
     23 GH                   -0.016731
     24 GH                   -0.000067
     25 GH                    0.002284
     26 GH                   -0.001937
     27 GH                    0.000683
     28 GH                   -0.004178
     29 GH                   -0.000403
     30 GH                   -0.000276
     31 GH                    0.000904
     32 GH                   -0.000065
     33 GH                   -0.000208
     34 GH                    0.001563
  ----------------------------------------
  Sum of atomic charges =     0.000000

                    Cartesian Multipole Moments
 -----------------------------------------------------------------
    Charge (ESU x 10^10)
                 0.0000
    Dipole Moment (Debye)
         X      -0.0126      Y       0.5177      Z       1.7216
       Tot       1.7978
    Quadrupole Moments (Debye-Ang)
        XX     -43.3192     XY       1.9142     YY     -38.3022
        XZ       9.3642     YZ       4.8372     ZZ     -34.0388

 Total job time:  128.11s(wall), 509.44s(cpu)
        *  Thank you very much for using Q-Chem.  Have a nice day.  *
