 Q-Chem 5.0, Q-Chem, Inc., Pleasanton, CA (2017)
 Q-Chem 5.0.1 for Intel X86 EM64T Linux

User input:
--------------------------------------------------------------
$molecule
0  1
C        +0.22270000        +1.04488000        +0.58595000
C        +0.62626000        -0.41353000        +0.99871000
C        +1.33008000        +1.39974000        -0.43491000
C        +2.63070000        +1.71700000        +0.32855000
C        +3.04336000        +0.29351000        +0.80300000
C        +1.94423000        -0.59299000        +0.15262000
O        +1.62840000        +0.13663000        -1.04376000
H        +3.37234000        +2.13782000        -0.35195000
H        +2.48236000        +2.42488000        +1.14651000
H        +4.02182000        +0.00994000        +0.41161000
H        +3.07359000        +0.18738000        +1.88928000
H        +1.03270000        +2.19943000        -1.08064000
H        +2.24339000        -1.61496000        +0.04786000
H        +0.81693000        -0.48905000        +2.04887000
H        -0.12524000        -1.15356000        +0.81843000
H        -0.74673000        +1.06811000        +0.13365000
H        +0.15552000        +1.72617000        +1.40828000
@C        +3.20259000        +2.77965000        +3.31923000
@C        +3.60615000        +1.32124000        +3.73199000
@C        +4.30997000        +3.13451000        +2.29837000
@C        +5.61059000        +3.45177000        +3.06183000
@C        +6.02325000        +2.02828000        +3.53628000
@C        +4.92412000        +1.14178000        +2.88590000
@O        +4.60829000        +1.87140000        +1.68952000
@H        +6.35223000        +3.87259000        +2.38133000
@H        +5.46225000        +4.15965000        +3.87979000
@H        +7.00171000        +1.74471000        +3.14489000
@H        +6.05348000        +1.92215000        +4.62256000
@H        +4.01259000        +3.93420000        +1.65264000
@H        +5.22328000        +0.11981000        +2.78114000
@H        +3.79682000        +1.24572000        +4.78215000
@H        +2.85465000        +0.58121000        +3.55171000
@H        +2.23316000        +2.80288000        +2.86693000
@H        +3.13541000        +3.46094000        +4.14156000
$end

$rem
JOBTYPE                   SP
METHOD                    B3LYP
DFT_D                     d3_op
BASIS                     6-311++G(d,p)
SYMMETRY                  False
THRESH                    12
SCF_CONVERGENCE           8
MAX_SUB_FILE_NUM          128
MEM_STATIC                400
MEM_TOTAL                 4000
$end
--------------------------------------------------------------

             Standard Nuclear Orientation (Angstroms)
    I     Atom           X                Y                Z
 ----------------------------------------------------------------
    1      C       0.2227000000     1.0448800000     0.5859500000
    2      C       0.6262600000    -0.4135300000     0.9987100000
    3      C       1.3300800000     1.3997400000    -0.4349100000
    4      C       2.6307000000     1.7170000000     0.3285500000
    5      C       3.0433600000     0.2935100000     0.8030000000
    6      C       1.9442300000    -0.5929900000     0.1526200000
    7      O       1.6284000000     0.1366300000    -1.0437600000
    8      H       3.3723400000     2.1378200000    -0.3519500000
    9      H       2.4823600000     2.4248800000     1.1465100000
   10      H       4.0218200000     0.0099400000     0.4116100000
   11      H       3.0735900000     0.1873800000     1.8892800000
   12      H       1.0327000000     2.1994300000    -1.0806400000
   13      H       2.2433900000    -1.6149600000     0.0478600000
   14      H       0.8169300000    -0.4890500000     2.0488700000
   15      H      -0.1252400000    -1.1535600000     0.8184300000
   16      H      -0.7467300000     1.0681100000     0.1336500000
   17      H       0.1555200000     1.7261700000     1.4082800000
   18      GH      3.2025900000     2.7796500000     3.3192300000
   19      GH      3.6061500000     1.3212400000     3.7319900000
   20      GH      4.3099700000     3.1345100000     2.2983700000
   21      GH      5.6105900000     3.4517700000     3.0618300000
   22      GH      6.0232500000     2.0282800000     3.5362800000
   23      GH      4.9241200000     1.1417800000     2.8859000000
   24      GH      4.6082900000     1.8714000000     1.6895200000
   25      GH      6.3522300000     3.8725900000     2.3813300000
   26      GH      5.4622500000     4.1596500000     3.8797900000
   27      GH      7.0017100000     1.7447100000     3.1448900000
   28      GH      6.0534800000     1.9221500000     4.6225600000
   29      GH      4.0125900000     3.9342000000     1.6526400000
   30      GH      5.2232800000     0.1198100000     2.7811400000
   31      GH      3.7968200000     1.2457200000     4.7821500000
   32      GH      2.8546500000     0.5812100000     3.5517100000
   33      GH      2.2331600000     2.8028800000     2.8669300000
   34      GH      3.1354100000     3.4609400000     4.1415600000
 ----------------------------------------------------------------

   12    -309.9598512939      6.35E-09 Convergence criterion met
 Total energy in the final basis set = -309.95985129

                    Orbital Energies (a.u.)
 --------------------------------------------------------------

 Alpha MOs
 -- Occupied --
-19.123 -10.221 -10.218 -10.168 -10.167 -10.165 -10.163  -1.050
 -0.798  -0.749  -0.747  -0.614  -0.578  -0.574  -0.527  -0.478
 -0.465  -0.431  -0.406  -0.395  -0.364  -0.360  -0.351  -0.339
 -0.317  -0.304  -0.264

          Ground-State Mulliken Net Atomic Charges

     Atom                 Charge (a.u.)
  ----------------------------------------
      1 C                    -0.365951
      2 C                    -0.364831
      3 C                    -0.173495
      4 C                    -0.194940
      5 C                    -0.209258
      6 C                    -0.160342
      7 O                    -0.116945
      8 H                     0.195115
      9 H                     0.058559
     10 H                     0.189328
     11 H                     0.054780
     12 H                     0.228054
     13 H                     0.226741
     14 H                     0.100315
     15 H                     0.187278
     16 H                     0.178912
     17 H                     0.111372
     18 GH                   -0.014595
     19 GH                   -0.008537
     20 GH                    0.008363
     21 GH                    0.000863
     22 GH                    0.000196
     23 GH                    0.007938
     24 GH                    0.032336
     25 GH                   -0.000267
     26 GH                    0.000454
     27 GH                    0.000079
     28 GH                    0.000274
     29 GH                    0.005629
     30 GH                    0.005019
     31 GH                   -0.000647
     32 GH                    0.013421
     33 GH                    0.005161
     34 GH                   -0.000376
  ----------------------------------------
  Sum of atomic charges =     0.000000

                    Cartesian Multipole Moments
 -----------------------------------------------------------------
    Charge (ESU x 10^10)
                 0.0000
    Dipole Moment (Debye)
         X      -0.0144      Y       0.5156      Z       1.7166
       Tot       1.7924
    Quadrupole Moments (Debye-Ang)
        XX     -43.2357     XY      -0.0523     YY     -40.6310
        XZ       2.7838     YZ      -0.8508     ZZ     -46.2168

 Total job time:  157.58s(wall), 627.14s(cpu)
        *  Thank you very much for using Q-Chem.  Have a nice day.  *
