 Q-Chem 5.0, Q-Chem, Inc., Pleasanton, CA (2017)
 Q-Chem 5.0.1 for Intel X86 EM64T Linux

User input:
--------------------------------------------------------------
$molecule
0  1
--
0  1
C        +0.22270000        +1.04488000        +0.58595000
C        +0.62626000        -0.41353000        +0.99871000
C        +1.33008000        +1.39974000        -0.43491000
C        +2.63070000        +1.71700000        +0.32855000
C        +3.04336000        +0.29351000        +0.80300000
C        +1.94423000        -0.59299000        +0.15262000
O        +1.62840000        +0.13663000        -1.04376000
H        +3.37234000        +2.13782000        -0.35195000
H        +2.48236000        +2.42488000        +1.14651000
H        +4.02182000        +0.00994000        +0.41161000
H        +3.07359000        +0.18738000        +1.88928000
H        +1.03270000        +2.19943000        -1.08064000
H        +2.24339000        -1.61496000        +0.04786000
H        +0.81693000        -0.48905000        +2.04887000
H        -0.12524000        -1.15356000        +0.81843000
H        -0.74673000        +1.06811000        +0.13365000
H        +0.15552000        +1.72617000        +1.40828000
--
0  1
C        +3.20259000        +2.77965000        +3.31923000
C        +3.60615000        +1.32124000        +3.73199000
C        +4.30997000        +3.13451000        +2.29837000
C        +5.61059000        +3.45177000        +3.06183000
C        +6.02325000        +2.02828000        +3.53628000
C        +4.92412000        +1.14178000        +2.88590000
O        +4.60829000        +1.87140000        +1.68952000
H        +6.35223000        +3.87259000        +2.38133000
H        +5.46225000        +4.15965000        +3.87979000
H        +7.00171000        +1.74471000        +3.14489000
H        +6.05348000        +1.92215000        +4.62256000
H        +4.01259000        +3.93420000        +1.65264000
H        +5.22328000        +0.11981000        +2.78114000
H        +3.79682000        +1.24572000        +4.78215000
H        +2.85465000        +0.58121000        +3.55171000
H        +2.23316000        +2.80288000        +2.86693000
H        +3.13541000        +3.46094000        +4.14156000
$end

$rem
JOBTYPE                   SP
METHOD                    B3LYP
DFT_D                     d3_op
BASIS                     6-311++G(d,p)
SYMMETRY                  False
THRESH                    12
SCF_CONVERGENCE           8
MAX_SUB_FILE_NUM          128
MEM_STATIC                400
MEM_TOTAL                 4000
$end
--------------------------------------------------------------

             Standard Nuclear Orientation (Angstroms)
    I     Atom           X                Y                Z
 ----------------------------------------------------------------
    1      C       2.7980907620    -0.5702735897     1.1853202137
    2      C       2.8472329046     0.9704322308     0.8954894977
    3      C       2.4525361999    -1.1412119165    -0.2107430711
    4      C       0.9564226099    -0.9015940959    -0.4924608191
    5      C       0.9497552986     0.6351122260    -0.7378260275
    6      C       2.4612005757     0.9836568266    -0.6328832487
    7      O       3.0879636949    -0.2191996351    -1.1058772894
    8      H       0.6508514321    -1.4464858746    -1.3868426262
    9      H       0.3124125009    -1.2158743332     0.3313330407
   10      H       0.5862477193     0.8784859701    -1.7376327634
   11      H       0.3447648534     1.1893292147    -0.0174013202
   12      H       2.7214839230    -2.1734516667    -0.2947336287
   13      H       2.7106907304     1.9010016891    -1.1239302017
   14      H       2.1360492124     1.5073147373     1.4878316920
   15      H       3.7813227630     1.4391690747     1.1249659384
   16      H       3.7435125742    -0.9323540692     1.5317083937
   17      H       2.1039392866    -0.8462087781     1.9514203026
   18      C      -1.5939986698    -0.5111646627     1.4423172588
   19      C      -1.5448565272     1.0295411578     1.1524865428
   20      C      -1.9395532319    -1.0821029895     0.0462539740
   21      C      -3.4356668219    -0.8424851689    -0.2354637740
   22      C      -3.4423341332     0.6942211530    -0.4808289824
   23      C      -1.9308888561     1.0427657536    -0.3758862035
   24      O      -1.3041257369    -0.1600907081    -0.8488802442
   25      H      -3.7412379997    -1.3873769476    -1.1298455811
   26      H      -4.0796769309    -1.1567654062     0.5883300859
   27      H      -3.8058417125     0.9375948971    -1.4806357183
   28      H      -4.0473245784     1.2484381417     0.2395957249
   29      H      -1.6706055088    -2.1143427397    -0.0377365836
   30      H      -1.6813987014     1.9601106161    -0.8669331566
   31      H      -2.2560402194     1.5664236643     1.7448287372
   32      H      -0.6107666688     1.4982780017     1.3819629835
   33      H      -0.6485768576    -0.8732451422     1.7887054388
   34      H      -2.2881501452    -0.7870998511     2.2084173478
 ----------------------------------------------------------------

   13    -619.8876917950      7.02E-09 Convergence criterion met
 Total energy in the final basis set = -619.88769180

                    Orbital Energies (a.u.)
 --------------------------------------------------------------

 Alpha MOs
 -- Occupied --
-19.126 -19.108 -10.229 -10.226 -10.204 -10.202 -10.174 -10.174
-10.173 -10.172 -10.155 -10.154 -10.146 -10.146  -1.061  -1.035
 -0.807  -0.785  -0.759  -0.758  -0.734  -0.732  -0.625  -0.603
 -0.587  -0.583  -0.569  -0.558  -0.536  -0.512  -0.495  -0.480
 -0.457  -0.445  -0.440  -0.416  -0.414  -0.407  -0.392  -0.384
 -0.378  -0.368  -0.358  -0.349  -0.346  -0.344  -0.336  -0.325
 -0.320  -0.311  -0.304  -0.288  -0.270  -0.241

          Ground-State Mulliken Net Atomic Charges

     Atom                 Charge (a.u.)
  ----------------------------------------
      1 C                    -0.363720
      2 C                    -0.360026
      3 C                    -0.230881
      4 C                    -0.113994
      5 C                    -0.157735
      6 C                    -0.241349
      7 O                    -0.125281
      8 H                     0.210141
      9 H                     0.024759
     10 H                     0.202863
     11 H                     0.014142
     12 H                     0.215933
     13 H                     0.214158
     14 H                     0.086101
     15 H                     0.181673
     16 H                     0.174212
     17 H                     0.100211
     18 C                    -0.421907
     19 C                    -0.402559
     20 C                     0.188164
     21 C                    -0.591950
     22 C                    -0.557120
     23 C                     0.197304
     24 O                     0.051107
     25 H                     0.169043
     26 H                     0.127950
     27 H                     0.171545
     28 H                     0.124334
     29 H                     0.228142
     30 H                     0.230173
     31 H                     0.168965
     32 H                     0.168464
     33 H                     0.137913
     34 H                     0.179227
  ----------------------------------------
  Sum of atomic charges =     0.000000

                    Cartesian Multipole Moments
 -----------------------------------------------------------------
    Charge (ESU x 10^10)
                 0.0000
    Dipole Moment (Debye)
         X      -3.3487      Y       0.4648      Z       2.3690
       Tot       4.1282
    Quadrupole Moments (Debye-Ang)
        XX     -92.8498     XY       0.8965     YY     -81.8094
        XZ       3.9257     YZ      -1.9851     ZZ     -90.6307

 Total job time:  180.52s(wall), 718.16s(cpu)
        *  Thank you very much for using Q-Chem.  Have a nice day.  *
