 Q-Chem 5.0, Q-Chem, Inc., Pleasanton, CA (2017)
 Q-Chem 5.0.1 for Intel X86 EM64T Linux

User input:
--------------------------------------------------------------
$molecule
0  1
--
0  1
C        +0.22270000        +1.04488000        +0.58595000
C        +0.62626000        -0.41353000        +0.99871000
C        +1.33008000        +1.39974000        -0.43491000
C        +2.63070000        +1.71700000        +0.32855000
C        +3.04336000        +0.29351000        +0.80300000
C        +1.94423000        -0.59299000        +0.15262000
O        +1.62840000        +0.13663000        -1.04376000
H        +3.37234000        +2.13782000        -0.35195000
H        +2.48236000        +2.42488000        +1.14651000
H        +4.02182000        +0.00994000        +0.41161000
H        +3.07359000        +0.18738000        +1.88928000
H        +1.03270000        +2.19943000        -1.08064000
C        +2.35450000        -2.01267000        -0.16812000
H        +3.25743000        -2.00195000        -0.74215000
H        +1.57951000        -2.48932000        -0.73123000
H        +2.51687000        -2.55129000        +0.74206000
H        -0.74673000        +1.06811000        +0.13365000
H        +0.15552000        +1.72617000        +1.40828000
H        +0.81693000        -0.48905000        +2.04887000
H        -0.12524000        -1.15356000        +0.81843000
--
0  1
C        +3.40467000        +2.61325000        +3.18889000
C        +3.80823000        +1.15484000        +3.60165000
C        +4.51205000        +2.96811000        +2.16803000
C        +5.81267000        +3.28537000        +2.93149000
C        +6.22533000        +1.86188000        +3.40594000
C        +5.12620000        +0.97538000        +2.75556000
O        +4.81037000        +1.70500000        +1.55918000
H        +6.55431000        +3.70619000        +2.25099000
H        +5.66433000        +3.99325000        +3.74945000
H        +7.20379000        +1.57831000        +3.01455000
H        +6.25556000        +1.75575000        +4.49222000
H        +4.21467000        +3.76780000        +1.52230000
C        +5.53647000        -0.44430000        +2.43482000
H        +6.43940000        -0.43358000        +1.86079000
H        +4.76148000        -0.92095000        +1.87171000
H        +5.69884000        -0.98292000        +3.34500000
H        +2.43524000        +2.63648000        +2.73659000
H        +3.33749000        +3.29454000        +4.01122000
H        +3.99890000        +1.07932000        +4.65181000
H        +3.05673000        +0.41481000        +3.42137000
$end

$rem
JOBTYPE                   SP
METHOD                    B3LYP
DFT_D                     d3_op
BASIS                     6-311++G(d,p)
SYMMETRY                  False
THRESH                    12
SCF_CONVERGENCE           8
MAX_SUB_FILE_NUM          128
MEM_STATIC                400
MEM_TOTAL                 4000
$end
--------------------------------------------------------------

             Standard Nuclear Orientation (Angstroms)
    I     Atom           X                Y                Z
 ----------------------------------------------------------------
    1      C       2.7299009709    -1.5363810103     0.7753418252
    2      C       2.7866616548    -0.0492021743     1.2705877781
    3      C       2.3402556028    -1.3572357529    -0.7114179696
    4      C       0.8394570589    -1.0176097809    -0.7974144437
    5      C       0.8416164512     0.4441800024    -0.2636721605
    6      C       2.3588350990     0.7044536981    -0.0462593522
    7      O       2.9601043856    -0.1132525664    -1.0627487755
    8      H       0.5038593229    -1.0596980340    -1.8346233670
    9      H       0.2152267026    -1.6960219664    -0.2123924096
   10      H       0.4531964053     1.1417335154    -1.0076688091
   11      H       0.2623482273     0.5749370788     0.6525879445
   12      H       2.5963076109    -2.2168544478    -1.2948554228
   13      C       2.7999647093     2.1450976049    -0.1752427769
   14      H       2.4505785667     2.5432178479    -1.1049403298
   15      H       3.8683656015     2.1950479509    -0.1448768232
   16      H       2.3930873309     2.7164141419     0.6328112851
   17      H       3.6807843942    -2.0169654013     0.8741790968
   18      H       2.0543506463    -2.1534451258     1.3301025679
   19      H       2.0975425010     0.1282669579     2.0696583907
   20      H       3.7314222301     0.2528292743     1.6719629004
   21      C      -1.6626168970    -1.3913247775     0.9869065923
   22      C      -1.6058562131     0.0958540585     1.4821525451
   23      C      -2.0522622652    -1.2121795201    -0.4998532025
   24      C      -3.5530608090    -0.8725535481    -0.5858496767
   25      C      -3.5509014168     0.5892362352    -0.0521073935
   26      C      -2.0336827689     0.8495099310     0.1653054148
   27      O      -1.4324134824     0.0318036664    -0.8511840085
   28      H      -3.8886585450    -0.9146418012    -1.6230585999
   29      H      -4.1772911653    -1.5509657336    -0.0008276426
   30      H      -3.9393214626     1.2867897482    -0.7961040420
   31      H      -4.1301696406     0.7199933116     0.8641527115
   32      H      -1.7962102570    -2.0717982150    -1.0832906557
   33      C      -1.5925531587     2.2901538377     0.0363219901
   34      H      -1.9419393012     2.6882740807    -0.8933755627
   35      H      -0.5241522665     2.3401041837     0.0666879439
   36      H      -1.9994305371     2.8614703747     0.8443760521
   37      H      -0.7117334737    -1.8719091685     1.0857438638
   38      H      -2.3381672216    -2.0083888930     1.5416673349
   39      H      -2.2949753669     0.2733231908     2.2812231577
   40      H      -0.6610956379     0.3978855072     1.8835276674
 ----------------------------------------------------------------

   13    -698.5506326245      7.29E-09 Convergence criterion met
 Total energy in the final basis set = -698.55063262

                    Orbital Energies (a.u.)
 --------------------------------------------------------------

 Alpha MOs
 -- Occupied --
-19.121 -19.105 -10.233 -10.223 -10.209 -10.202 -10.172 -10.172
-10.171 -10.170 -10.157 -10.155 -10.154 -10.146 -10.146 -10.142
 -1.060  -1.035  -0.807  -0.788  -0.784  -0.764  -0.759  -0.734
 -0.691  -0.674  -0.628  -0.604  -0.583  -0.571  -0.561  -0.546
 -0.512  -0.498  -0.492  -0.483  -0.461  -0.449  -0.446  -0.430
 -0.424  -0.415  -0.415  -0.399  -0.392  -0.385  -0.380  -0.373
 -0.365  -0.355  -0.354  -0.347  -0.342  -0.335  -0.328  -0.322
 -0.318  -0.305  -0.302  -0.286  -0.268  -0.241

          Ground-State Mulliken Net Atomic Charges

     Atom                 Charge (a.u.)
  ----------------------------------------
      1 C                    -0.532893
      2 C                    -0.134709
      3 C                    -0.048393
      4 C                    -0.077367
      5 C                    -0.134432
      6 C                    -0.303221
      7 O                    -0.025550
      8 H                     0.210033
      9 H                     0.042916
     10 H                     0.220981
     11 H                    -0.168204
     12 H                     0.233592
     13 C                    -0.555618
     14 H                     0.147767
     15 H                     0.164234
     16 H                     0.150972
     17 H                     0.172687
     18 H                     0.111682
     19 H                     0.112894
     20 H                     0.171240
     21 C                    -0.411269
     22 C                    -0.440505
     23 C                     0.204911
     24 C                    -0.677663
     25 C                    -0.461200
     26 C                     0.362164
     27 O                     0.115925
     28 H                     0.161542
     29 H                     0.131240
     30 H                     0.160799
     31 H                     0.133354
     32 H                     0.238593
     33 C                    -0.444593
     34 H                     0.160909
     35 H                     0.126083
     36 H                     0.147401
     37 H                     0.122712
     38 H                     0.185720
     39 H                     0.176404
     40 H                     0.248864
  ----------------------------------------
  Sum of atomic charges =    -0.000000

                    Cartesian Multipole Moments
 -----------------------------------------------------------------
    Charge (ESU x 10^10)
                -0.0000
    Dipole Moment (Debye)
         X      -3.0403      Y      -0.5907      Z       2.2423
       Tot       3.8236
    Quadrupole Moments (Debye-Ang)
        XX    -105.0132     XY       0.1748     YY     -95.8529
        XZ       3.4715     YZ       1.4528     ZZ    -103.3457

 Total job time:  271.47s(wall), 1078.01s(cpu)
        *  Thank you very much for using Q-Chem.  Have a nice day.  *
