 Q-Chem 5.0, Q-Chem, Inc., Pleasanton, CA (2017)
 Q-Chem 5.0.1 for Intel X86 EM64T Linux

User input:
--------------------------------------------------------------
$molecule
0  1
C        +4.34480000        +3.07663000        +3.95794000
C        +4.74836000        +1.61822000        +4.37070000
C        +5.45218000        +3.43149000        +2.93708000
C        +6.75280000        +3.74875000        +3.70054000
C        +7.16546000        +2.32526000        +4.17499000
C        +6.06633000        +1.43876000        +3.52461000
O        +5.75050000        +2.16838000        +2.32823000
H        +7.49444000        +4.16957000        +3.02004000
H        +6.60446000        +4.45663000        +4.51850000
H        +8.14392000        +2.04169000        +3.78360000
H        +7.19569000        +2.21913000        +5.26127000
H        +5.15480000        +4.23118000        +2.29135000
C        +6.47660000        +0.01908000        +3.20387000
H        +7.37953000        +0.02980000        +2.62984000
H        +5.70161000        -0.45757000        +2.64076000
H        +6.63897000        -0.51954000        +4.11405000
H        +3.37537000        +3.09986000        +3.50564000
H        +4.27762000        +3.75792000        +4.78027000
H        +4.93903000        +1.54270000        +5.42086000
H        +3.99686000        +0.87819000        +4.19042000
@C        +0.22270000        +1.04488000        +0.58595000
@C        +0.62626000        -0.41353000        +0.99871000
@C        +1.33008000        +1.39974000        -0.43491000
@C        +2.63070000        +1.71700000        +0.32855000
@C        +3.04336000        +0.29351000        +0.80300000
@C        +1.94423000        -0.59299000        +0.15262000
@O        +1.62840000        +0.13663000        -1.04376000
@H        +3.37234000        +2.13782000        -0.35195000
@H        +2.48236000        +2.42488000        +1.14651000
@H        +4.02182000        +0.00994000        +0.41161000
@H        +3.07359000        +0.18738000        +1.88928000
@H        +1.03270000        +2.19943000        -1.08064000
@C        +2.35450000        -2.01267000        -0.16812000
@H        +3.25743000        -2.00195000        -0.74215000
@H        +1.57951000        -2.48932000        -0.73123000
@H        +2.51687000        -2.55129000        +0.74206000
@H        -0.74673000        +1.06811000        +0.13365000
@H        +0.15552000        +1.72617000        +1.40828000
@H        +0.81693000        -0.48905000        +2.04887000
@H        -0.12524000        -1.15356000        +0.81843000
$end

$rem
JOBTYPE                   SP
METHOD                    B3LYP
DFT_D                     d3_op
BASIS                     6-311++G(d,p)
SYMMETRY                  False
THRESH                    12
SCF_CONVERGENCE           8
MAX_SUB_FILE_NUM          128
MEM_STATIC                400
MEM_TOTAL                 4000
$end
--------------------------------------------------------------

             Standard Nuclear Orientation (Angstroms)
    I     Atom           X                Y                Z
 ----------------------------------------------------------------
    1      C       4.3448000000     3.0766300000     3.9579400000
    2      C       4.7483600000     1.6182200000     4.3707000000
    3      C       5.4521800000     3.4314900000     2.9370800000
    4      C       6.7528000000     3.7487500000     3.7005400000
    5      C       7.1654600000     2.3252600000     4.1749900000
    6      C       6.0663300000     1.4387600000     3.5246100000
    7      O       5.7505000000     2.1683800000     2.3282300000
    8      H       7.4944400000     4.1695700000     3.0200400000
    9      H       6.6044600000     4.4566300000     4.5185000000
   10      H       8.1439200000     2.0416900000     3.7836000000
   11      H       7.1956900000     2.2191300000     5.2612700000
   12      H       5.1548000000     4.2311800000     2.2913500000
   13      C       6.4766000000     0.0190800000     3.2038700000
   14      H       7.3795300000     0.0298000000     2.6298400000
   15      H       5.7016100000    -0.4575700000     2.6407600000
   16      H       6.6389700000    -0.5195400000     4.1140500000
   17      H       3.3753700000     3.0998600000     3.5056400000
   18      H       4.2776200000     3.7579200000     4.7802700000
   19      H       4.9390300000     1.5427000000     5.4208600000
   20      H       3.9968600000     0.8781900000     4.1904200000
   21      GH      0.2227000000     1.0448800000     0.5859500000
   22      GH      0.6262600000    -0.4135300000     0.9987100000
   23      GH      1.3300800000     1.3997400000    -0.4349100000
   24      GH      2.6307000000     1.7170000000     0.3285500000
   25      GH      3.0433600000     0.2935100000     0.8030000000
   26      GH      1.9442300000    -0.5929900000     0.1526200000
   27      GH      1.6284000000     0.1366300000    -1.0437600000
   28      GH      3.3723400000     2.1378200000    -0.3519500000
   29      GH      2.4823600000     2.4248800000     1.1465100000
   30      GH      4.0218200000     0.0099400000     0.4116100000
   31      GH      3.0735900000     0.1873800000     1.8892800000
   32      GH      1.0327000000     2.1994300000    -1.0806400000
   33      GH      2.3545000000    -2.0126700000    -0.1681200000
   34      GH      3.2574300000    -2.0019500000    -0.7421500000
   35      GH      1.5795100000    -2.4893200000    -0.7312300000
   36      GH      2.5168700000    -2.5512900000     0.7420600000
   37      GH     -0.7467300000     1.0681100000     0.1336500000
   38      GH      0.1555200000     1.7261700000     1.4082800000
   39      GH      0.8169300000    -0.4890500000     2.0488700000
   40      GH     -0.1252400000    -1.1535600000     0.8184300000
 ----------------------------------------------------------------

   13    -349.2962712843      2.61E-09 Convergence criterion met
 Total energy in the final basis set = -349.29627128

                    Orbital Energies (a.u.)
 --------------------------------------------------------------

 Alpha MOs
 -- Occupied --
-19.119 -10.225 -10.216 -10.166 -10.166 -10.163 -10.162 -10.154
 -1.049  -0.798  -0.775  -0.748  -0.684  -0.615  -0.575  -0.556
 -0.503  -0.482  -0.465  -0.440  -0.418  -0.405  -0.392  -0.377
 -0.360  -0.348  -0.344  -0.336  -0.316  -0.301  -0.262

          Ground-State Mulliken Net Atomic Charges

     Atom                 Charge (a.u.)
  ----------------------------------------
      1 C                    -0.411056
      2 C                    -0.367642
      3 C                     0.205702
      4 C                    -0.675565
      5 C                    -0.416129
      6 C                     0.266672
      7 O                    -0.041964
      8 H                     0.164690
      9 H                     0.127159
     10 H                     0.152881
     11 H                     0.140025
     12 H                     0.232010
     13 C                    -0.363448
     14 H                     0.154397
     15 H                     0.144265
     16 H                     0.138366
     17 H                     0.123978
     18 H                     0.155100
     19 H                     0.150964
     20 H                     0.162388
     21 GH                   -0.003507
     22 GH                    0.004066
     23 GH                   -0.016131
     24 GH                    0.023200
     25 GH                   -0.013453
     26 GH                   -0.022880
     27 GH                    0.000154
     28 GH                    0.002281
     29 GH                   -0.006221
     30 GH                    0.005933
     31 GH                   -0.017151
     32 GH                   -0.000297
     33 GH                   -0.002191
     34 GH                   -0.000419
     35 GH                   -0.000020
     36 GH                    0.001078
     37 GH                   -0.000150
     38 GH                    0.001314
     39 GH                    0.001574
     40 GH                    0.000027
  ----------------------------------------
  Sum of atomic charges =     0.000000

                    Cartesian Multipole Moments
 -----------------------------------------------------------------
    Charge (ESU x 10^10)
                 0.0000
    Dipole Moment (Debye)
         X      -0.0076      Y       0.4037      Z       1.6148
       Tot       1.6645
    Quadrupole Moments (Debye-Ang)
        XX     -49.8524     XY       1.5741     YY     -45.9768
        XZ       9.1701     YZ       3.9665     ZZ     -41.7651

 Total job time:  207.13s(wall), 821.95s(cpu)
        *  Thank you very much for using Q-Chem.  Have a nice day.  *
