 Q-Chem 5.0, Q-Chem, Inc., Pleasanton, CA (2017)
 Q-Chem 5.0.1 for Intel X86 EM64T Linux

User input:
--------------------------------------------------------------
$molecule
0  1
C        +3.40467000        +2.61325000        +3.18889000
C        +3.80823000        +1.15484000        +3.60165000
C        +4.51205000        +2.96811000        +2.16803000
C        +5.81267000        +3.28537000        +2.93149000
C        +6.22533000        +1.86188000        +3.40594000
C        +5.12620000        +0.97538000        +2.75556000
O        +4.81037000        +1.70500000        +1.55918000
H        +6.55431000        +3.70619000        +2.25099000
H        +5.66433000        +3.99325000        +3.74945000
H        +7.20379000        +1.57831000        +3.01455000
H        +6.25556000        +1.75575000        +4.49222000
H        +4.21467000        +3.76780000        +1.52230000
C        +5.53647000        -0.44430000        +2.43482000
H        +6.43940000        -0.43358000        +1.86079000
H        +4.76148000        -0.92095000        +1.87171000
H        +5.69884000        -0.98292000        +3.34500000
H        +2.43524000        +2.63648000        +2.73659000
H        +3.33749000        +3.29454000        +4.01122000
H        +3.99890000        +1.07932000        +4.65181000
H        +3.05673000        +0.41481000        +3.42137000
@C        +0.22270000        +1.04488000        +0.58595000
@C        +0.62626000        -0.41353000        +0.99871000
@C        +1.33008000        +1.39974000        -0.43491000
@C        +2.63070000        +1.71700000        +0.32855000
@C        +3.04336000        +0.29351000        +0.80300000
@C        +1.94423000        -0.59299000        +0.15262000
@O        +1.62840000        +0.13663000        -1.04376000
@H        +3.37234000        +2.13782000        -0.35195000
@H        +2.48236000        +2.42488000        +1.14651000
@H        +4.02182000        +0.00994000        +0.41161000
@H        +3.07359000        +0.18738000        +1.88928000
@H        +1.03270000        +2.19943000        -1.08064000
@C        +2.35450000        -2.01267000        -0.16812000
@H        +3.25743000        -2.00195000        -0.74215000
@H        +1.57951000        -2.48932000        -0.73123000
@H        +2.51687000        -2.55129000        +0.74206000
@H        -0.74673000        +1.06811000        +0.13365000
@H        +0.15552000        +1.72617000        +1.40828000
@H        +0.81693000        -0.48905000        +2.04887000
@H        -0.12524000        -1.15356000        +0.81843000
$end

$rem
JOBTYPE                   SP
METHOD                    B3LYP
DFT_D                     d3_op
BASIS                     6-311++G(d,p)
SYMMETRY                  False
THRESH                    12
SCF_CONVERGENCE           8
MAX_SUB_FILE_NUM          128
MEM_STATIC                400
MEM_TOTAL                 4000
$end
--------------------------------------------------------------

             Standard Nuclear Orientation (Angstroms)
    I     Atom           X                Y                Z
 ----------------------------------------------------------------
    1      C       3.4046700000     2.6132500000     3.1888900000
    2      C       3.8082300000     1.1548400000     3.6016500000
    3      C       4.5120500000     2.9681100000     2.1680300000
    4      C       5.8126700000     3.2853700000     2.9314900000
    5      C       6.2253300000     1.8618800000     3.4059400000
    6      C       5.1262000000     0.9753800000     2.7555600000
    7      O       4.8103700000     1.7050000000     1.5591800000
    8      H       6.5543100000     3.7061900000     2.2509900000
    9      H       5.6643300000     3.9932500000     3.7494500000
   10      H       7.2037900000     1.5783100000     3.0145500000
   11      H       6.2555600000     1.7557500000     4.4922200000
   12      H       4.2146700000     3.7678000000     1.5223000000
   13      C       5.5364700000    -0.4443000000     2.4348200000
   14      H       6.4394000000    -0.4335800000     1.8607900000
   15      H       4.7614800000    -0.9209500000     1.8717100000
   16      H       5.6988400000    -0.9829200000     3.3450000000
   17      H       2.4352400000     2.6364800000     2.7365900000
   18      H       3.3374900000     3.2945400000     4.0112200000
   19      H       3.9989000000     1.0793200000     4.6518100000
   20      H       3.0567300000     0.4148100000     3.4213700000
   21      GH      0.2227000000     1.0448800000     0.5859500000
   22      GH      0.6262600000    -0.4135300000     0.9987100000
   23      GH      1.3300800000     1.3997400000    -0.4349100000
   24      GH      2.6307000000     1.7170000000     0.3285500000
   25      GH      3.0433600000     0.2935100000     0.8030000000
   26      GH      1.9442300000    -0.5929900000     0.1526200000
   27      GH      1.6284000000     0.1366300000    -1.0437600000
   28      GH      3.3723400000     2.1378200000    -0.3519500000
   29      GH      2.4823600000     2.4248800000     1.1465100000
   30      GH      4.0218200000     0.0099400000     0.4116100000
   31      GH      3.0735900000     0.1873800000     1.8892800000
   32      GH      1.0327000000     2.1994300000    -1.0806400000
   33      GH      2.3545000000    -2.0126700000    -0.1681200000
   34      GH      3.2574300000    -2.0019500000    -0.7421500000
   35      GH      1.5795100000    -2.4893200000    -0.7312300000
   36      GH      2.5168700000    -2.5512900000     0.7420600000
   37      GH     -0.7467300000     1.0681100000     0.1336500000
   38      GH      0.1555200000     1.7261700000     1.4082800000
   39      GH      0.8169300000    -0.4890500000     2.0488700000
   40      GH     -0.1252400000    -1.1535600000     0.8184300000
 ----------------------------------------------------------------

   13    -349.2971027808      2.62E-09 Convergence criterion met
 Total energy in the final basis set = -349.29710278

                    Orbital Energies (a.u.)
 --------------------------------------------------------------

 Alpha MOs
 -- Occupied --
-19.119 -10.225 -10.216 -10.166 -10.166 -10.163 -10.162 -10.154
 -1.049  -0.798  -0.775  -0.748  -0.684  -0.614  -0.575  -0.556
 -0.503  -0.482  -0.464  -0.440  -0.418  -0.405  -0.392  -0.377
 -0.360  -0.348  -0.344  -0.336  -0.316  -0.301  -0.262

          Ground-State Mulliken Net Atomic Charges

     Atom                 Charge (a.u.)
  ----------------------------------------
      1 C                    -0.342542
      2 C                    -0.497942
      3 C                     0.248259
      4 C                    -0.695460
      5 C                    -0.432887
      6 C                     0.413456
      7 O                     0.040919
      8 H                     0.158842
      9 H                     0.128751
     10 H                     0.157985
     11 H                     0.132756
     12 H                     0.227763
     13 C                    -0.457548
     14 H                     0.152150
     15 H                     0.101821
     16 H                     0.149085
     17 H                     0.123253
     18 H                     0.184184
     19 H                     0.175978
     20 H                     0.196611
     21 GH                   -0.008470
     22 GH                   -0.002661
     23 GH                   -0.088765
     24 GH                    0.077923
     25 GH                   -0.021762
     26 GH                   -0.119504
     27 GH                   -0.002700
     28 GH                    0.005256
     29 GH                    0.001235
     30 GH                    0.043932
     31 GH                   -0.080334
     32 GH                   -0.002513
     33 GH                    0.029116
     34 GH                   -0.003216
     35 GH                   -0.000321
     36 GH                    0.006017
     37 GH                   -0.000118
     38 GH                    0.002263
     39 GH                   -0.000530
     40 GH                   -0.000282
  ----------------------------------------
  Sum of atomic charges =    -0.000000

                    Cartesian Multipole Moments
 -----------------------------------------------------------------
    Charge (ESU x 10^10)
                -0.0000
    Dipole Moment (Debye)
         X      -0.0103      Y       0.3966      Z       1.6018
       Tot       1.6502
    Quadrupole Moments (Debye-Ang)
        XX     -49.8765     XY       1.1655     YY     -46.4016
        XZ       7.6165     YZ       2.8893     ZZ     -44.2776

 Total job time:  259.27s(wall), 1030.49s(cpu)
        *  Thank you very much for using Q-Chem.  Have a nice day.  *
