 Q-Chem 5.0, Q-Chem, Inc., Pleasanton, CA (2017)
 Q-Chem 5.0.1 for Intel X86 EM64T Linux

User input:
--------------------------------------------------------------
$molecule
0  1
--
0  1
C        +0.22270000        +1.04488000        +0.58595000
C        +0.62626000        -0.41353000        +0.99871000
C        +1.33008000        +1.39974000        -0.43491000
C        +2.63070000        +1.71700000        +0.32855000
C        +3.04336000        +0.29351000        +0.80300000
C        +1.94423000        -0.59299000        +0.15262000
O        +1.62840000        +0.13663000        -1.04376000
H        +3.37234000        +2.13782000        -0.35195000
H        +2.48236000        +2.42488000        +1.14651000
H        +4.02182000        +0.00994000        +0.41161000
H        +3.07359000        +0.18738000        +1.88928000
H        +1.03270000        +2.19943000        -1.08064000
C        +2.35450000        -2.01267000        -0.16812000
H        +3.25743000        -2.00195000        -0.74215000
H        +1.57951000        -2.48932000        -0.73123000
H        +2.51687000        -2.55129000        +0.74206000
H        -0.74673000        +1.06811000        +0.13365000
H        +0.15552000        +1.72617000        +1.40828000
H        +0.81693000        -0.48905000        +2.04887000
H        -0.12524000        -1.15356000        +0.81843000
--
0  1
C        +4.34480000        +3.07663000        +3.95794000
C        +4.74836000        +1.61822000        +4.37070000
C        +5.45218000        +3.43149000        +2.93708000
C        +6.75280000        +3.74875000        +3.70054000
C        +7.16546000        +2.32526000        +4.17499000
C        +6.06633000        +1.43876000        +3.52461000
O        +5.75050000        +2.16838000        +2.32823000
H        +7.49444000        +4.16957000        +3.02004000
H        +6.60446000        +4.45663000        +4.51850000
H        +8.14392000        +2.04169000        +3.78360000
H        +7.19569000        +2.21913000        +5.26127000
H        +5.15480000        +4.23118000        +2.29135000
C        +6.47660000        +0.01908000        +3.20387000
H        +7.37953000        +0.02980000        +2.62984000
H        +5.70161000        -0.45757000        +2.64076000
H        +6.63897000        -0.51954000        +4.11405000
H        +3.37537000        +3.09986000        +3.50564000
H        +4.27762000        +3.75792000        +4.78027000
H        +4.93903000        +1.54270000        +5.42086000
H        +3.99686000        +0.87819000        +4.19042000
$end

$rem
JOBTYPE                   SP
METHOD                    B3LYP
DFT_D                     d3_op
BASIS                     6-311++G(d,p)
SYMMETRY                  False
THRESH                    12
SCF_CONVERGENCE           8
MAX_SUB_FILE_NUM          128
MEM_STATIC                400
MEM_TOTAL                 4000
$end
--------------------------------------------------------------

             Standard Nuclear Orientation (Angstroms)
    I     Atom           X                Y                Z
 ----------------------------------------------------------------
    1      C       3.3864579986    -1.5051372497     0.8143527268
    2      C       3.4117682583    -0.0156384889     1.3052132483
    3      C       3.0228644122    -1.3367364981    -0.6802415707
    4      C       1.5191544571    -1.0196516807    -0.7962202458
    5      C       1.4895136205     0.4437810512    -0.2678255845
    6      C       2.9982729694     0.7272079834    -0.0223107121
    7      O       3.6309534617    -0.0848924655    -1.0241227171
    8      H       1.2042117622    -1.0701603326    -1.8395129119
    9      H       0.8938592350    -1.7052756533    -0.2208220662
   10      H       1.1052291140     1.1330245650    -1.0216497320
   11      H       0.8908769104     0.5690029395     0.6366826998
   12      H       3.3027227212    -2.1944109825    -1.2555501828
   13      C       3.4205235643     2.1737858376    -0.1480241547
   14      H       3.0832432500     2.5635893006    -1.0856825115
   15      H       4.4872913307     2.2396465310    -0.0973635554
   16      H       2.9898150485     2.7417075526     0.6500098382
   17      H       4.3422444443    -1.9712615036     0.9331378189
   18      H       2.7095355168    -2.1302807500     1.3582896746
   19      H       2.7048770318     0.1542733647     2.0902795517
   20      H       4.3440861554     0.3016808997     1.7235304409
   21      C      -2.3102178690    -1.4005586025     0.9786098374
   22      C      -2.2849076093     0.0889401583     1.4694703589
   23      C      -2.6738114555    -1.2321578509    -0.5159844601
   24      C      -4.1775214106    -0.9150730335    -0.6319631352
   25      C      -4.2071622471     0.5483596984    -0.1035684739
   26      C      -2.6984028982     0.8317866306     0.1419463985
   27      O      -2.0657224059     0.0196861818    -0.8598656065
   28      H      -4.4924641054    -0.9655816853    -1.6752558013
   29      H      -4.8028166326    -1.6006970061    -0.0565649556
   30      H      -4.5914467536     1.2376032122    -0.8573926214
   31      H      -4.8057989572     0.6735815867     0.8009398104
   32      H      -2.3939531464    -2.0898323352    -1.0912930722
   33      C      -2.2761523034     2.2783644848     0.0162329559
   34      H      -2.6134326176     2.6681679478    -0.9214254009
   35      H      -1.2093845369     2.3442251782     0.0668935552
   36      H      -2.7068608191     2.8462861998     0.8142669488
   37      H      -1.3544314233    -1.8666828563     1.0973949295
   38      H      -2.9871403508    -2.0257021027     1.5225467852
   39      H      -2.9917988358     0.2588520120     2.2545366623
   40      H      -1.3525897122     0.4062595470     1.8877875514
 ----------------------------------------------------------------

   13    -698.5957248182      5.57E-09 Convergence criterion met
 Total energy in the final basis set = -698.59572482

                    Orbital Energies (a.u.)
 --------------------------------------------------------------

 Alpha MOs
 -- Occupied --
-19.121 -19.114 -10.228 -10.220 -10.219 -10.210 -10.169 -10.168
-10.167 -10.166 -10.159 -10.158 -10.158 -10.158 -10.157 -10.150
 -1.052  -1.044  -0.801  -0.793  -0.778  -0.770  -0.751  -0.742
 -0.686  -0.679  -0.618  -0.609  -0.578  -0.570  -0.559  -0.550
 -0.506  -0.498  -0.485  -0.476  -0.468  -0.459  -0.443  -0.435
 -0.420  -0.413  -0.408  -0.399  -0.395  -0.387  -0.380  -0.373
 -0.363  -0.355  -0.351  -0.347  -0.343  -0.339  -0.338  -0.331
 -0.319  -0.311  -0.304  -0.295  -0.266  -0.256

          Ground-State Mulliken Net Atomic Charges

     Atom                 Charge (a.u.)
  ----------------------------------------
      1 C                    -0.661087
      2 C                    -0.234005
      3 C                     0.371170
      4 C                    -0.561026
      5 C                    -0.116589
      6 C                    -0.047433
      7 O                    -0.068800
      8 H                     0.190339
      9 H                     0.066237
     10 H                     0.172007
     11 H                     0.012998
     12 H                     0.251125
     13 C                    -0.459833
     14 H                     0.147682
     15 H                     0.158598
     16 H                     0.139877
     17 H                     0.170761
     18 H                     0.115556
     19 H                     0.133077
     20 H                     0.168218
     21 C                    -0.407325
     22 C                    -0.344328
     23 C                     0.184294
     24 C                    -0.671787
     25 C                    -0.422052
     26 C                     0.221687
     27 O                    -0.027039
     28 H                     0.165504
     29 H                     0.127376
     30 H                     0.153981
     31 H                     0.140723
     32 H                     0.234409
     33 C                    -0.346494
     34 H                     0.156780
     35 H                     0.148394
     36 H                     0.138029
     37 H                     0.128766
     38 H                     0.154882
     39 H                     0.152054
     40 H                     0.163275
  ----------------------------------------
  Sum of atomic charges =     0.000000

                    Cartesian Multipole Moments
 -----------------------------------------------------------------
    Charge (ESU x 10^10)
                 0.0000
    Dipole Moment (Debye)
         X      -2.4351      Y      -0.6335      Z       2.2730
       Tot       3.3908
    Quadrupole Moments (Debye-Ang)
        XX    -104.0090     XY      -0.1601     YY     -95.3335
        XZ       3.3435     YZ       1.5809     ZZ    -103.1358

 Total job time:  218.65s(wall), 868.39s(cpu)
        *  Thank you very much for using Q-Chem.  Have a nice day.  *
