 Q-Chem 5.0, Q-Chem, Inc., Pleasanton, CA (2017)
 Q-Chem 5.0.1 for Intel X86 EM64T Linux

User input:
--------------------------------------------------------------
$molecule
0  1
C        +0.20553000        +1.04146000        +0.58269000
C        +0.65000000        -0.38925000        +1.00740000
C        +1.32948000        +1.41743000        -0.40725000
C        +2.62919000        +1.72756000        +0.36622000
C        +3.06783000        +0.29650000        +0.79479000
C        +1.94651000        -0.57906000        +0.17708000
O        +1.63056000        +0.15702000        -1.03120000
H        +3.36767000        +2.18673000        -0.29348000
H        +2.46319000        +2.40269000        +1.20873000
H        +4.03298000        +0.02999000        +0.35944000
H        +3.13919000        +0.17160000        +1.87760000
H        +1.05575000        +2.14422000        -1.17046000
C        +2.32428000        -2.00466000        -0.15206000
H        +3.19961000        -2.02906000        -0.80581000
H        +1.50021000        -2.51513000        -0.65630000
H        +2.56254000        -2.55434000        +0.76296000
H        -0.76025000        +1.02051000        +0.07473000
H        +0.13481000        +1.74083000        +1.41846000
H        +0.82947000        -0.48542000        +2.08050000
H        -0.09122000        -1.13848000        +0.72072000
@C        +0.22158000        +2.30323000        +4.79786000
@C        +0.66605000        +0.87252000        +5.22257000
@C        +1.34553000        +2.67920000        +3.80792000
@C        +2.64524000        +2.98933000        +4.58139000
@C        +3.08388000        +1.55827000        +5.00996000
@C        +1.96256000        +0.68271000        +4.39225000
@O        +1.64661000        +1.41879000        +3.18397000
@H        +3.38372000        +3.44850000        +3.92169000
@H        +2.47924000        +3.66446000        +5.42390000
@H        +4.04903000        +1.29176000        +4.57461000
@H        +3.15524000        +1.43337000        +6.09277000
@H        +1.07180000        +3.40599000        +3.04471000
@C        +2.34033000        -0.74289000        +4.06311000
@H        +3.21566000        -0.76729000        +3.40936000
@H        +1.51626000        -1.25336000        +3.55887000
@H        +2.57859000        -1.29257000        +4.97813000
@H        -0.74420000        +2.28228000        +4.28990000
@H        +0.15086000        +3.00260000        +5.63363000
@H        +0.84552000        +0.77635000        +6.29567000
@H        -0.07517000        +0.12329000        +4.93589000
$end

$rem
JOBTYPE                   SP
METHOD                    B3LYP
DFT_D                     d3_op
BASIS                     6-311++G(d,p)
SYMMETRY                  False
THRESH                    12
SCF_CONVERGENCE           8
MAX_SUB_FILE_NUM          128
MEM_STATIC                400
MEM_TOTAL                 4000
$end
--------------------------------------------------------------

             Standard Nuclear Orientation (Angstroms)
    I     Atom           X                Y                Z
 ----------------------------------------------------------------
    1      C       0.2055300000     1.0414600000     0.5826900000
    2      C       0.6500000000    -0.3892500000     1.0074000000
    3      C       1.3294800000     1.4174300000    -0.4072500000
    4      C       2.6291900000     1.7275600000     0.3662200000
    5      C       3.0678300000     0.2965000000     0.7947900000
    6      C       1.9465100000    -0.5790600000     0.1770800000
    7      O       1.6305600000     0.1570200000    -1.0312000000
    8      H       3.3676700000     2.1867300000    -0.2934800000
    9      H       2.4631900000     2.4026900000     1.2087300000
   10      H       4.0329800000     0.0299900000     0.3594400000
   11      H       3.1391900000     0.1716000000     1.8776000000
   12      H       1.0557500000     2.1442200000    -1.1704600000
   13      C       2.3242800000    -2.0046600000    -0.1520600000
   14      H       3.1996100000    -2.0290600000    -0.8058100000
   15      H       1.5002100000    -2.5151300000    -0.6563000000
   16      H       2.5625400000    -2.5543400000     0.7629600000
   17      H      -0.7602500000     1.0205100000     0.0747300000
   18      H       0.1348100000     1.7408300000     1.4184600000
   19      H       0.8294700000    -0.4854200000     2.0805000000
   20      H      -0.0912200000    -1.1384800000     0.7207200000
   21      GH      0.2215800000     2.3032300000     4.7978600000
   22      GH      0.6660500000     0.8725200000     5.2225700000
   23      GH      1.3455300000     2.6792000000     3.8079200000
   24      GH      2.6452400000     2.9893300000     4.5813900000
   25      GH      3.0838800000     1.5582700000     5.0099600000
   26      GH      1.9625600000     0.6827100000     4.3922500000
   27      GH      1.6466100000     1.4187900000     3.1839700000
   28      GH      3.3837200000     3.4485000000     3.9216900000
   29      GH      2.4792400000     3.6644600000     5.4239000000
   30      GH      4.0490300000     1.2917600000     4.5746100000
   31      GH      3.1552400000     1.4333700000     6.0927700000
   32      GH      1.0718000000     3.4059900000     3.0447100000
   33      GH      2.3403300000    -0.7428900000     4.0631100000
   34      GH      3.2156600000    -0.7672900000     3.4093600000
   35      GH      1.5162600000    -1.2533600000     3.5588700000
   36      GH      2.5785900000    -1.2925700000     4.9781300000
   37      GH     -0.7442000000     2.2822800000     4.2899000000
   38      GH      0.1508600000     3.0026000000     5.6336300000
   39      GH      0.8455200000     0.7763500000     6.2956700000
   40      GH     -0.0751700000     0.1232900000     4.9358900000
 ----------------------------------------------------------------

   13    -349.3033901621      2.95E-09 Convergence criterion met
 Total energy in the final basis set = -349.30339016

                    Orbital Energies (a.u.)
 --------------------------------------------------------------

 Alpha MOs
 -- Occupied --
-19.115 -10.224 -10.217 -10.168 -10.168 -10.168 -10.168 -10.161
 -1.045  -0.799  -0.773  -0.750  -0.679  -0.613  -0.573  -0.554
 -0.498  -0.481  -0.467  -0.434  -0.414  -0.405  -0.391  -0.371
 -0.362  -0.346  -0.344  -0.339  -0.319  -0.302  -0.262

          Ground-State Mulliken Net Atomic Charges

     Atom                 Charge (a.u.)
  ----------------------------------------
      1 C                    -0.365260
      2 C                    -0.089185
      3 C                    -0.100545
      4 C                    -0.371762
      5 C                    -0.085074
      6 C                    -0.214620
      7 O                    -0.066390
      8 H                     0.190158
      9 H                     0.123790
     10 H                     0.212147
     11 H                     0.063089
     12 H                     0.236173
     13 C                    -0.561696
     14 H                     0.151165
     15 H                     0.151067
     16 H                     0.145492
     17 H                     0.189996
     18 H                     0.123183
     19 H                     0.062161
     20 H                     0.212751
     21 GH                    0.007253
     22 GH                    0.004068
     23 GH                   -0.074160
     24 GH                    0.006810
     25 GH                    0.004761
     26 GH                   -0.023004
     27 GH                    0.022001
     28 GH                    0.002941
     29 GH                   -0.000300
     30 GH                    0.001516
     31 GH                    0.000311
     32 GH                    0.002003
     33 GH                    0.001410
     34 GH                    0.019131
     35 GH                    0.019458
     36 GH                   -0.005435
     37 GH                    0.002968
     38 GH                   -0.000280
     39 GH                    0.000289
     40 GH                    0.001621
  ----------------------------------------
  Sum of atomic charges =     0.000000

                    Cartesian Multipole Moments
 -----------------------------------------------------------------
    Charge (ESU x 10^10)
                 0.0000
    Dipole Moment (Debye)
         X       0.0429      Y       0.3639      Z       1.6090
       Tot       1.6502
    Quadrupole Moments (Debye-Ang)
        XX     -49.7589     XY       0.0333     YY     -48.0928
        XZ       2.7784     YZ      -0.5581     ZZ     -52.5972

 Total job time:  230.35s(wall), 913.49s(cpu)
        *  Thank you very much for using Q-Chem.  Have a nice day.  *
