 Q-Chem 5.0, Q-Chem, Inc., Pleasanton, CA (2017)
 Q-Chem 5.0.1 for Intel X86 EM64T Linux

User input:
--------------------------------------------------------------
$molecule
0  1
--
0  1
C        +0.20553000        +1.04146000        +0.58269000
C        +0.65000000        -0.38925000        +1.00740000
C        +1.32948000        +1.41743000        -0.40725000
C        +2.62919000        +1.72756000        +0.36622000
C        +3.06783000        +0.29650000        +0.79479000
C        +1.94651000        -0.57906000        +0.17708000
O        +1.63056000        +0.15702000        -1.03120000
H        +3.36767000        +2.18673000        -0.29348000
H        +2.46319000        +2.40269000        +1.20873000
H        +4.03298000        +0.02999000        +0.35944000
H        +3.13919000        +0.17160000        +1.87760000
H        +1.05575000        +2.14422000        -1.17046000
C        +2.32428000        -2.00466000        -0.15206000
H        +3.19961000        -2.02906000        -0.80581000
H        +1.50021000        -2.51513000        -0.65630000
H        +2.56254000        -2.55434000        +0.76296000
H        -0.76025000        +1.02051000        +0.07473000
H        +0.13481000        +1.74083000        +1.41846000
H        +0.82947000        -0.48542000        +2.08050000
H        -0.09122000        -1.13848000        +0.72072000
--
0  1
C        +0.22158000        +2.30323000        +4.79786000
C        +0.66605000        +0.87252000        +5.22257000
C        +1.34553000        +2.67920000        +3.80792000
C        +2.64524000        +2.98933000        +4.58139000
C        +3.08388000        +1.55827000        +5.00996000
C        +1.96256000        +0.68271000        +4.39225000
O        +1.64661000        +1.41879000        +3.18397000
H        +3.38372000        +3.44850000        +3.92169000
H        +2.47924000        +3.66446000        +5.42390000
H        +4.04903000        +1.29176000        +4.57461000
H        +3.15524000        +1.43337000        +6.09277000
H        +1.07180000        +3.40599000        +3.04471000
C        +2.34033000        -0.74289000        +4.06311000
H        +3.21566000        -0.76729000        +3.40936000
H        +1.51626000        -1.25336000        +3.55887000
H        +2.57859000        -1.29257000        +4.97813000
H        -0.74420000        +2.28228000        +4.28990000
H        +0.15086000        +3.00260000        +5.63363000
H        +0.84552000        +0.77635000        +6.29567000
H        -0.07517000        +0.12329000        +4.93589000
$end

$rem
JOBTYPE                   SP
METHOD                    B3LYP
DFT_D                     d3_op
BASIS                     6-311++G(d,p)
SYMMETRY                  False
THRESH                    12
SCF_CONVERGENCE           8
MAX_SUB_FILE_NUM          128
MEM_STATIC                400
MEM_TOTAL                 4000
$end
--------------------------------------------------------------

             Standard Nuclear Orientation (Angstroms)
    I     Atom           X                Y                Z
 ----------------------------------------------------------------
    1      C       1.4794880220    -1.2456269595     1.2627782197
    2      C       1.6125392463     0.3058757441     1.2628191884
    3      C       2.2880515589    -1.6106330816    -0.0011813464
    4      C       1.4815009604    -1.2433499362    -1.2654051260
    5      C       1.6109645375     0.3081695018    -1.2593525430
    6      C       2.4814153100     0.5505574439     0.0012397932
    7      O       3.3331522931    -0.6225249667     0.0005348900
    8      H       1.9443515605    -1.6754693941    -2.1544697949
    9      H       0.4481257551    -1.5942258483    -1.2184860869
   10      H       2.1330077304     0.6665054537    -2.1488119155
   11      H       0.6491443207     0.8226786141    -1.2014560863
   12      H       2.7294423542    -2.6060299739    -0.0018981794
   13      C       3.3134591324     1.8119372486    -0.0004150590
   14      H       3.9491802431     1.8517476805    -0.8883682279
   15      H       3.9517002363     1.8537994482     0.8854883291
   16      H       2.6656120625     2.6931133541    -0.0010277605
   17      H       1.9405211998    -1.6815913711     2.1507966392
   18      H       0.4455354916    -1.5933530255     1.2112034582
   19      H       0.6515398895     0.8221372234     1.2084493344
   20      H       2.1365258255     0.6609968883     2.1529119596
   21      C      -2.9048480302    -0.8747137041     1.2627295245
   22      C      -2.7717968060     0.6767889995     1.2627704932
   23      C      -2.0962844933    -1.2397198262    -0.0012300416
   24      C      -2.9028350918    -0.8724366808    -1.2654538212
   25      C      -2.7733715148     0.6790827572    -1.2594012382
   26      C      -1.9029207422     0.9214706993     0.0011910981
   27      O      -1.0511837591    -0.2516117113     0.0004861949
   28      H      -2.4399844918    -1.3045561387    -2.1545184901
   29      H      -3.9362102971    -1.2233125929    -1.2185347821
   30      H      -2.2513283218     1.0374187091    -2.1488606107
   31      H      -3.7351917316     1.1935918695    -1.2015047815
   32      H      -1.6548936980    -2.2351167185    -0.0019468746
   33      C      -1.0708769198     2.1828505040    -0.0004637542
   34      H      -0.4351558091     2.2226609359    -0.8884169231
   35      H      -0.4326358160     2.2247127036     0.8854396339
   36      H      -1.7187239898     3.0640266095    -0.0010764557
   37      H      -2.4438148525    -1.3106781157     2.1507479440
   38      H      -3.9388005606    -1.2224397701     1.2111547631
   39      H      -3.7327961628     1.1930504788     1.2084006392
   40      H      -2.2478102268     1.0319101437     2.1528632644
 ----------------------------------------------------------------

   13    -698.6021621048      6.47E-09 Convergence criterion met
 Total energy in the final basis set = -698.60216210

                    Orbital Energies (a.u.)
 --------------------------------------------------------------

 Alpha MOs
 -- Occupied --
-19.125 -19.101 -10.234 -10.227 -10.210 -10.203 -10.176 -10.176
-10.176 -10.176 -10.170 -10.152 -10.150 -10.150 -10.149 -10.149
 -1.057  -1.030  -0.809  -0.786  -0.781  -0.759  -0.759  -0.733
 -0.690  -0.666  -0.621  -0.597  -0.584  -0.566  -0.557  -0.539
 -0.509  -0.494  -0.485  -0.477  -0.464  -0.457  -0.440  -0.426
 -0.421  -0.414  -0.402  -0.400  -0.389  -0.382  -0.378  -0.371
 -0.360  -0.358  -0.354  -0.348  -0.340  -0.333  -0.329  -0.327
 -0.318  -0.310  -0.302  -0.287  -0.273  -0.246

          Ground-State Mulliken Net Atomic Charges

     Atom                 Charge (a.u.)
  ----------------------------------------
      1 C                    -0.368624
      2 C                    -0.007147
      3 C                    -0.128789
      4 C                    -0.370038
      5 C                    -0.005027
      6 C                    -0.230997
      7 O                    -0.074518
      8 H                     0.175765
      9 H                     0.080447
     10 H                     0.201111
     11 H                     0.020543
     12 H                     0.225826
     13 C                    -0.542334
     14 H                     0.148743
     15 H                     0.148578
     16 H                     0.139427
     17 H                     0.175971
     18 H                     0.079270
     19 H                     0.021116
     20 H                     0.201118
     21 C                    -0.588684
     22 C                    -0.325400
     23 C                     0.242726
     24 C                    -0.591418
     25 C                    -0.321355
     26 C                    -0.026262
     27 O                     0.161914
     28 H                     0.155025
     29 H                     0.147325
     30 H                     0.165128
     31 H                     0.149557
     32 H                     0.224604
     33 C                    -0.428805
     34 H                     0.178555
     35 H                     0.178528
     36 H                     0.170915
     37 H                     0.155504
     38 H                     0.146981
     39 H                     0.149481
     40 H                     0.165243
  ----------------------------------------
  Sum of atomic charges =     0.000000

                    Cartesian Multipole Moments
 -----------------------------------------------------------------
    Charge (ESU x 10^10)
                 0.0000
    Dipole Moment (Debye)
         X      -4.2393      Y       0.6168      Z      -0.0046
       Tot       4.2839
    Quadrupole Moments (Debye-Ang)
        XX    -107.5774     XY       2.1962     YY     -96.8706
        XZ       0.0023     YZ       0.0050     ZZ    -100.9638

 Total job time:  261.16s(wall), 1032.52s(cpu)
        *  Thank you very much for using Q-Chem.  Have a nice day.  *
