 Q-Chem 5.0, Q-Chem, Inc., Pleasanton, CA (2017)
 Q-Chem 5.0.1 for Intel X86 EM64T Linux

User input:
--------------------------------------------------------------
$molecule
0  1
C        +3.52522000        +2.81006000        +2.89625000
C        +3.92878000        +1.35165000        +3.30901000
C        +4.63260000        +3.16492000        +1.87539000
C        +5.93322000        +3.48218000        +2.63885000
C        +6.34588000        +2.05869000        +3.11330000
C        +5.24675000        +1.17219000        +2.46292000
O        +4.93092000        +1.90181000        +1.26654000
H        +6.67486000        +3.90300000        +1.95835000
H        +5.78488000        +4.19006000        +3.45681000
H        +7.32434000        +1.77512000        +2.72191000
H        +6.37611000        +1.95256000        +4.19958000
C        +4.20280000        +4.15595000        +0.81600000
C        +5.65702000        -0.24749000        +2.14218000
H        +6.56563000        -0.24160000        +1.53664000
H        +5.85242000        -0.80541000        +3.06109000
H        +4.87587000        -0.76378000        +1.58158000
H        +5.02097000        +4.34704000        +0.15344000
H        +3.90171000        +5.06996000        +1.28380000
H        +3.38177000        +3.75171000        +0.26156000
H        +4.11945000        +1.27613000        +4.35917000
H        +3.17728000        +0.61162000        +3.12873000
H        +2.55579000        +2.83329000        +2.44395000
H        +3.45804000        +3.49135000        +3.71858000
@C        +0.22270000        +1.04488000        +0.58595000
@C        +0.62626000        -0.41353000        +0.99871000
@C        +1.33008000        +1.39974000        -0.43491000
@C        +2.63070000        +1.71700000        +0.32855000
@C        +3.04336000        +0.29351000        +0.80300000
@C        +1.94423000        -0.59299000        +0.15262000
@O        +1.62840000        +0.13663000        -1.04376000
@H        +3.37234000        +2.13782000        -0.35195000
@H        +2.48236000        +2.42488000        +1.14651000
@H        +4.02182000        +0.00994000        +0.41161000
@H        +3.07359000        +0.18738000        +1.88928000
@C        +0.90028000        +2.39077000        -1.49430000
@C        +2.35450000        -2.01267000        -0.16812000
@H        +3.26311000        -2.00678000        -0.77366000
@H        +2.54990000        -2.57059000        +0.75079000
@H        +1.57335000        -2.52896000        -0.72872000
@H        +1.71845000        +2.58186000        -2.15686000
@H        +0.59919000        +3.30478000        -1.02650000
@H        +0.07925000        +1.98653000        -2.04874000
@H        +0.81693000        -0.48905000        +2.04887000
@H        -0.12524000        -1.15356000        +0.81843000
@H        -0.74673000        +1.06811000        +0.13365000
@H        +0.15552000        +1.72617000        +1.40828000
$end

$rem
JOBTYPE                   SP
METHOD                    B3LYP
DFT_D                     d3_op
BASIS                     6-311++G(d,p)
SYMMETRY                  False
THRESH                    12
SCF_CONVERGENCE           8
MAX_SUB_FILE_NUM          128
MEM_STATIC                400
MEM_TOTAL                 4000
$end
--------------------------------------------------------------

             Standard Nuclear Orientation (Angstroms)
    I     Atom           X                Y                Z
 ----------------------------------------------------------------
    1      C       3.5252200000     2.8100600000     2.8962500000
    2      C       3.9287800000     1.3516500000     3.3090100000
    3      C       4.6326000000     3.1649200000     1.8753900000
    4      C       5.9332200000     3.4821800000     2.6388500000
    5      C       6.3458800000     2.0586900000     3.1133000000
    6      C       5.2467500000     1.1721900000     2.4629200000
    7      O       4.9309200000     1.9018100000     1.2665400000
    8      H       6.6748600000     3.9030000000     1.9583500000
    9      H       5.7848800000     4.1900600000     3.4568100000
   10      H       7.3243400000     1.7751200000     2.7219100000
   11      H       6.3761100000     1.9525600000     4.1995800000
   12      C       4.2028000000     4.1559500000     0.8160000000
   13      C       5.6570200000    -0.2474900000     2.1421800000
   14      H       6.5656300000    -0.2416000000     1.5366400000
   15      H       5.8524200000    -0.8054100000     3.0610900000
   16      H       4.8758700000    -0.7637800000     1.5815800000
   17      H       5.0209700000     4.3470400000     0.1534400000
   18      H       3.9017100000     5.0699600000     1.2838000000
   19      H       3.3817700000     3.7517100000     0.2615600000
   20      H       4.1194500000     1.2761300000     4.3591700000
   21      H       3.1772800000     0.6116200000     3.1287300000
   22      H       2.5557900000     2.8332900000     2.4439500000
   23      H       3.4580400000     3.4913500000     3.7185800000
   24      GH      0.2227000000     1.0448800000     0.5859500000
   25      GH      0.6262600000    -0.4135300000     0.9987100000
   26      GH      1.3300800000     1.3997400000    -0.4349100000
   27      GH      2.6307000000     1.7170000000     0.3285500000
   28      GH      3.0433600000     0.2935100000     0.8030000000
   29      GH      1.9442300000    -0.5929900000     0.1526200000
   30      GH      1.6284000000     0.1366300000    -1.0437600000
   31      GH      3.3723400000     2.1378200000    -0.3519500000
   32      GH      2.4823600000     2.4248800000     1.1465100000
   33      GH      4.0218200000     0.0099400000     0.4116100000
   34      GH      3.0735900000     0.1873800000     1.8892800000
   35      GH      0.9002800000     2.3907700000    -1.4943000000
   36      GH      2.3545000000    -2.0126700000    -0.1681200000
   37      GH      3.2631100000    -2.0067800000    -0.7736600000
   38      GH      2.5499000000    -2.5705900000     0.7507900000
   39      GH      1.5733500000    -2.5289600000    -0.7287200000
   40      GH      1.7184500000     2.5818600000    -2.1568600000
   41      GH      0.5991900000     3.3047800000    -1.0265000000
   42      GH      0.0792500000     1.9865300000    -2.0487400000
   43      GH      0.8169300000    -0.4890500000     2.0488700000
   44      GH     -0.1252400000    -1.1535600000     0.8184300000
   45      GH     -0.7467300000     1.0681100000     0.1336500000
   46      GH      0.1555200000     1.7261700000     1.4082800000
 ----------------------------------------------------------------

   12    -388.6340928621      6.99E-09 Convergence criterion met
 Total energy in the final basis set = -388.63409286

                    Orbital Energies (a.u.)
 --------------------------------------------------------------

 Alpha MOs
 -- Occupied --
-19.115 -10.224 -10.221 -10.166 -10.165 -10.162 -10.161 -10.160
-10.151  -1.049  -0.799  -0.789  -0.748  -0.717  -0.652  -0.616
 -0.562  -0.555  -0.486  -0.474  -0.464  -0.444  -0.420  -0.410
 -0.406  -0.402  -0.384  -0.360  -0.346  -0.343  -0.340  -0.333
 -0.316  -0.299  -0.261

          Ground-State Mulliken Net Atomic Charges

     Atom                 Charge (a.u.)
  ----------------------------------------
      1 C                    -0.400828
      2 C                    -0.390412
      3 C                     0.223815
      4 C                    -0.457026
      5 C                    -0.476797
      6 C                     0.290303
      7 O                     0.119284
      8 H                     0.153644
      9 H                     0.138234
     10 H                     0.157399
     11 H                     0.133532
     12 C                    -0.361045
     13 C                    -0.406071
     14 H                     0.152144
     15 H                     0.155153
     16 H                     0.106543
     17 H                     0.152923
     18 H                     0.152772
     19 H                     0.089015
     20 H                     0.185202
     21 H                     0.165636
     22 H                     0.171962
     23 H                     0.190804
     24 GH                   -0.011541
     25 GH                    0.001125
     26 GH                   -0.097280
     27 GH                    0.021905
     28 GH                   -0.054181
     29 GH                   -0.131754
     30 GH                   -0.002575
     31 GH                    0.022631
     32 GH                   -0.066265
     33 GH                    0.055104
     34 GH                   -0.021426
     35 GH                    0.026653
     36 GH                    0.005442
     37 GH                   -0.002297
     38 GH                    0.003627
     39 GH                   -0.000024
     40 GH                   -0.001568
     41 GH                    0.004034
     42 GH                   -0.000057
     43 GH                    0.001295
     44 GH                   -0.000322
     45 GH                   -0.000763
     46 GH                    0.002049
  ----------------------------------------
  Sum of atomic charges =    -0.000000

                    Cartesian Multipole Moments
 -----------------------------------------------------------------
    Charge (ESU x 10^10)
                -0.0000
    Dipole Moment (Debye)
         X      -0.0358      Y       0.4278      Z       1.4970
       Tot       1.5574
    Quadrupole Moments (Debye-Ang)
        XX     -56.7201     XY       1.4986     YY     -53.3131
        XZ       7.2440     YZ       3.1529     ZZ     -52.1572

 Total job time:  341.64s(wall), 1352.52s(cpu)
        *  Thank you very much for using Q-Chem.  Have a nice day.  *
