 Q-Chem 5.0, Q-Chem, Inc., Pleasanton, CA (2017)
 Q-Chem 5.0.1 for Intel X86 EM64T Linux

User input:
--------------------------------------------------------------
$molecule
0  1
C        +0.20186000        +1.01419000        +0.57588000
C        +0.65458000        -0.40740000        +1.00877000
C        +1.31047000        +1.40432000        -0.43622000
C        +2.61036000        +1.71622000        +0.34904000
C        +3.06420000        +0.29616000        +0.78527000
C        +1.94960000        -0.59295000        +0.17632000
O        +1.62620000        +0.12693000        -1.03574000
H        +3.34518000        +2.18171000        -0.31153000
H        +2.43386000        +2.39558000        +1.18603000
H        +4.02983000        +0.03650000        +0.34656000
H        +3.14253000        +0.17627000        +1.86830000
C        +0.91819000        +2.41036000        -1.49368000
C        +2.33867000        -2.01935000        -0.13734000
H        +3.21332000        -2.04461000        -0.79203000
H        +2.58239000        -2.55643000        +0.78377000
H        +1.51806000        -2.54232000        -0.63447000
H        +1.73500000        +2.55908000        -2.20400000
H        +0.68341000        +3.37378000        -1.03196000
H        +0.03753000        +2.06800000        -2.04235000
H        +0.83643000        -0.49892000        +2.08202000
H        -0.08220000        -1.16297000        +0.72684000
H        -0.76801000        +0.98583000        +0.07445000
H        +0.13288000        +1.72189000        +1.40479000
@C        +0.21818000        +2.30584000        +4.78199000
@C        +0.67090000        +0.88425000        +5.21488000
@C        +1.32679000        +2.69597000        +3.76989000
@C        +2.62668000        +3.00787000        +4.55515000
@C        +3.08052000        +1.58781000        +4.99138000
@C        +1.96592000        +0.69870000        +4.38243000
@O        +1.64252000        +1.41858000        +3.17037000
@H        +3.36150000        +3.47336000        +3.89458000
@H        +2.45018000        +3.68723000        +5.39214000
@H        +4.04615000        +1.32815000        +4.55267000
@H        +3.15885000        +1.46792000        +6.07441000
@C        +0.93451000        +3.70201000        +2.71243000
@C        +2.35499000        -0.72770000        +4.06877000
@H        +3.22964000        -0.75296000        +3.41408000
@H        +2.59871000        -1.26478000        +4.98988000
@H        +1.53438000        -1.25067000        +3.57164000
@H        +1.75132000        +3.85073000        +2.00211000
@H        +0.69973000        +4.66543000        +3.17415000
@H        +0.05385000        +3.35965000        +2.16376000
@H        +0.85275000        +0.79273000        +6.28813000
@H        -0.06588000        +0.12868000        +4.93295000
@H        -0.75169000        +2.27748000        +4.28056000
@H        +0.14920000        +3.01354000        +5.61090000
$end

$rem
JOBTYPE                   SP
METHOD                    B3LYP
DFT_D                     d3_op
BASIS                     6-311++G(d,p)
SYMMETRY                  False
THRESH                    12
SCF_CONVERGENCE           8
MAX_SUB_FILE_NUM          128
MEM_STATIC                400
MEM_TOTAL                 4000
$end
--------------------------------------------------------------

             Standard Nuclear Orientation (Angstroms)
    I     Atom           X                Y                Z
 ----------------------------------------------------------------
    1      C       0.2018600000     1.0141900000     0.5758800000
    2      C       0.6545800000    -0.4074000000     1.0087700000
    3      C       1.3104700000     1.4043200000    -0.4362200000
    4      C       2.6103600000     1.7162200000     0.3490400000
    5      C       3.0642000000     0.2961600000     0.7852700000
    6      C       1.9496000000    -0.5929500000     0.1763200000
    7      O       1.6262000000     0.1269300000    -1.0357400000
    8      H       3.3451800000     2.1817100000    -0.3115300000
    9      H       2.4338600000     2.3955800000     1.1860300000
   10      H       4.0298300000     0.0365000000     0.3465600000
   11      H       3.1425300000     0.1762700000     1.8683000000
   12      C       0.9181900000     2.4103600000    -1.4936800000
   13      C       2.3386700000    -2.0193500000    -0.1373400000
   14      H       3.2133200000    -2.0446100000    -0.7920300000
   15      H       2.5823900000    -2.5564300000     0.7837700000
   16      H       1.5180600000    -2.5423200000    -0.6344700000
   17      H       1.7350000000     2.5590800000    -2.2040000000
   18      H       0.6834100000     3.3737800000    -1.0319600000
   19      H       0.0375300000     2.0680000000    -2.0423500000
   20      H       0.8364300000    -0.4989200000     2.0820200000
   21      H      -0.0822000000    -1.1629700000     0.7268400000
   22      H      -0.7680100000     0.9858300000     0.0744500000
   23      H       0.1328800000     1.7218900000     1.4047900000
   24      GH      0.2181800000     2.3058400000     4.7819900000
   25      GH      0.6709000000     0.8842500000     5.2148800000
   26      GH      1.3267900000     2.6959700000     3.7698900000
   27      GH      2.6266800000     3.0078700000     4.5551500000
   28      GH      3.0805200000     1.5878100000     4.9913800000
   29      GH      1.9659200000     0.6987000000     4.3824300000
   30      GH      1.6425200000     1.4185800000     3.1703700000
   31      GH      3.3615000000     3.4733600000     3.8945800000
   32      GH      2.4501800000     3.6872300000     5.3921400000
   33      GH      4.0461500000     1.3281500000     4.5526700000
   34      GH      3.1588500000     1.4679200000     6.0744100000
   35      GH      0.9345100000     3.7020100000     2.7124300000
   36      GH      2.3549900000    -0.7277000000     4.0687700000
   37      GH      3.2296400000    -0.7529600000     3.4140800000
   38      GH      2.5987100000    -1.2647800000     4.9898800000
   39      GH      1.5343800000    -1.2506700000     3.5716400000
   40      GH      1.7513200000     3.8507300000     2.0021100000
   41      GH      0.6997300000     4.6654300000     3.1741500000
   42      GH      0.0538500000     3.3596500000     2.1637600000
   43      GH      0.8527500000     0.7927300000     6.2881300000
   44      GH     -0.0658800000     0.1286800000     4.9329500000
   45      GH     -0.7516900000     2.2774800000     4.2805600000
   46      GH      0.1492000000     3.0135400000     5.6109000000
 ----------------------------------------------------------------

   12    -388.6385213080      3.24E-09 Convergence criterion met
 Total energy in the final basis set = -388.63852131

                    Orbital Energies (a.u.)
 --------------------------------------------------------------

 Alpha MOs
 -- Occupied --
-19.113 -10.223 -10.223 -10.166 -10.166 -10.166 -10.166 -10.160
-10.160  -1.043  -0.799  -0.788  -0.750  -0.716  -0.650  -0.613
 -0.557  -0.553  -0.484  -0.475  -0.466  -0.440  -0.417  -0.408
 -0.404  -0.402  -0.383  -0.359  -0.344  -0.343  -0.342  -0.335
 -0.317  -0.298  -0.261

          Ground-State Mulliken Net Atomic Charges

     Atom                 Charge (a.u.)
  ----------------------------------------
      1 C                    -0.175292
      2 C                    -0.179003
      3 C                    -0.573297
      4 C                    -0.179157
      5 C                    -0.175159
      6 C                    -0.563928
      7 O                     0.052289
      8 H                     0.207725
      9 H                     0.103811
     10 H                     0.207577
     11 H                     0.103135
     12 C                    -0.177674
     13 C                    -0.178206
     14 H                     0.148179
     15 H                     0.151317
     16 H                     0.148074
     17 H                     0.148187
     18 H                     0.151383
     19 H                     0.148026
     20 H                     0.103364
     21 H                     0.207993
     22 H                     0.207556
     23 H                     0.102683
     24 GH                    0.002212
     25 GH                    0.002461
     26 GH                   -0.034232
     27 GH                    0.002549
     28 GH                    0.002869
     29 GH                   -0.034689
     30 GH                    0.022018
     31 GH                    0.002058
     32 GH                    0.000102
     33 GH                    0.002029
     34 GH                    0.000116
     35 GH                   -0.008923
     36 GH                   -0.008533
     37 GH                    0.016251
     38 GH                   -0.004741
     39 GH                    0.016364
     40 GH                    0.016354
     41 GH                   -0.004715
     42 GH                    0.016465
     43 GH                    0.000108
     44 GH                    0.002123
     45 GH                    0.002060
     46 GH                    0.000109
  ----------------------------------------
  Sum of atomic charges =     0.000000

                    Cartesian Multipole Moments
 -----------------------------------------------------------------
    Charge (ESU x 10^10)
                 0.0000
    Dipole Moment (Debye)
         X       0.0092      Y       0.4551      Z       1.4783
       Tot       1.5468
    Quadrupole Moments (Debye-Ang)
        XX     -56.5932     XY       0.1861     YY     -54.8893
        XZ       2.5692     YZ      -0.6453     ZZ     -59.1565

 Total job time:  336.94s(wall), 1332.41s(cpu)
        *  Thank you very much for using Q-Chem.  Have a nice day.  *
