 Q-Chem 5.0, Q-Chem, Inc., Pleasanton, CA (2017)
 Q-Chem 5.0.1 for Intel X86 EM64T Linux

User input:
--------------------------------------------------------------
$molecule
0  1
--
0  1
C        +0.20186000        +1.01419000        +0.57588000
C        +0.65458000        -0.40740000        +1.00877000
C        +1.31047000        +1.40432000        -0.43622000
C        +2.61036000        +1.71622000        +0.34904000
C        +3.06420000        +0.29616000        +0.78527000
C        +1.94960000        -0.59295000        +0.17632000
O        +1.62620000        +0.12693000        -1.03574000
H        +3.34518000        +2.18171000        -0.31153000
H        +2.43386000        +2.39558000        +1.18603000
H        +4.02983000        +0.03650000        +0.34656000
H        +3.14253000        +0.17627000        +1.86830000
C        +0.91819000        +2.41036000        -1.49368000
C        +2.33867000        -2.01935000        -0.13734000
H        +3.21332000        -2.04461000        -0.79203000
H        +2.58239000        -2.55643000        +0.78377000
H        +1.51806000        -2.54232000        -0.63447000
H        +1.73500000        +2.55908000        -2.20400000
H        +0.68341000        +3.37378000        -1.03196000
H        +0.03753000        +2.06800000        -2.04235000
H        +0.83643000        -0.49892000        +2.08202000
H        -0.08220000        -1.16297000        +0.72684000
H        -0.76801000        +0.98583000        +0.07445000
H        +0.13288000        +1.72189000        +1.40479000
--
0  1
C        +0.21818000        +2.30584000        +4.78199000
C        +0.67090000        +0.88425000        +5.21488000
C        +1.32679000        +2.69597000        +3.76989000
C        +2.62668000        +3.00787000        +4.55515000
C        +3.08052000        +1.58781000        +4.99138000
C        +1.96592000        +0.69870000        +4.38243000
O        +1.64252000        +1.41858000        +3.17037000
H        +3.36150000        +3.47336000        +3.89458000
H        +2.45018000        +3.68723000        +5.39214000
H        +4.04615000        +1.32815000        +4.55267000
H        +3.15885000        +1.46792000        +6.07441000
C        +0.93451000        +3.70201000        +2.71243000
C        +2.35499000        -0.72770000        +4.06877000
H        +3.22964000        -0.75296000        +3.41408000
H        +2.59871000        -1.26478000        +4.98988000
H        +1.53438000        -1.25067000        +3.57164000
H        +1.75132000        +3.85073000        +2.00211000
H        +0.69973000        +4.66543000        +3.17415000
H        +0.05385000        +3.35965000        +2.16376000
H        +0.85275000        +0.79273000        +6.28813000
H        -0.06588000        +0.12868000        +4.93295000
H        -0.75169000        +2.27748000        +4.28056000
H        +0.14920000        +3.01354000        +5.61090000
$end

$rem
JOBTYPE                   SP
METHOD                    B3LYP
DFT_D                     d3_op
BASIS                     6-311++G(d,p)
SYMMETRY                  False
THRESH                    12
SCF_CONVERGENCE           8
MAX_SUB_FILE_NUM          128
MEM_STATIC                400
MEM_TOTAL                 4000
$end
--------------------------------------------------------------

             Standard Nuclear Orientation (Angstroms)
    I     Atom           X                Y                Z
 ----------------------------------------------------------------
    1      C       1.4601289015    -0.7769635864     1.2591291461
    2      C       1.4618299368     0.7765031128     1.2614955120
    3      C       2.3090910705    -1.0919412513    -0.0000834115
    4      C       1.4621006931    -0.7768747805    -1.2598331126
    5      C       1.4601556919     0.7764547458    -1.2586661222
    6      C       2.3073121294     1.0927271686     0.0006859253
    7      O       3.2559220360     0.0009197485     0.0008293793
    8      H       1.9542721184    -1.1719589416    -2.1512757025
    9      H       0.4632485232    -1.2157516243    -1.2058333128
   10      H       1.9521974805     1.1740468206    -2.1486922437
   11      H       0.4597164291     1.2118035104    -1.2033857780
   12      C       3.0261836205    -2.4223547231    -0.0001002038
   13      C       3.0243319706     2.4232357595    -0.0014253278
   14      H       3.6543878672     2.5194728196    -0.8891401928
   15      H       2.3005060455     3.2432193856    -0.0023634799
   16      H       3.6560613854     2.5220909938     0.8846797557
   17      H       3.6585746858    -2.5176914239    -0.8860139529
   18      H       2.3029268352    -3.2429493342    -0.0031349984
   19      H       3.6544007503    -2.5206393003     0.8884348567
   20      H       0.4620336858     1.2134967951     1.2090086233
   21      H       1.9557889379     1.1727553091     2.1515539485
   22      H       1.9513653073    -1.1752792034     2.1495872385
   23      H       0.4602887064    -1.2125212658     1.2016973554
   24      C      -2.9398696451    -0.7773113350     1.2588728151
   25      C      -2.9381686098     0.7761553642     1.2612391810
   26      C      -2.0909074762    -1.0922889999    -0.0003397425
   27      C      -2.9378978535    -0.7772225291    -1.2600894435
   28      C      -2.9398428547     0.7761069972    -1.2589224532
   29      C      -2.0926864172     1.0923794200     0.0004295943
   30      O      -1.1440765106     0.0005719999     0.0005730483
   31      H      -2.4457264282    -1.1723066902    -2.1515320335
   32      H      -3.9367500234    -1.2160993728    -1.2060896437
   33      H      -2.4478010661     1.1736990720    -2.1489485747
   34      H      -3.9402821175     1.2114557618    -1.2036421090
   35      C      -1.3738149261    -2.4227024717    -0.0003565348
   36      C      -1.3756665761     2.4228880109    -0.0016816587
   37      H      -0.7456106795     2.5191250711    -0.8893965238
   38      H      -2.0994925011     3.2428716370    -0.0026198108
   39      H      -0.7439371613     2.5217432452     0.8844234248
   40      H      -0.7414238608    -2.5180391725    -0.8862702839
   41      H      -2.0970717114    -3.2432970828    -0.0033913294
   42      H      -0.7455977963    -2.5209870489     0.8881785258
   43      H      -3.9379648608     1.2131490465     1.2087522924
   44      H      -2.4442096088     1.1724075605     2.1512976175
   45      H      -2.4486332393    -1.1756269520     2.1493309075
   46      H      -3.9397098402    -1.2128690144     1.2014410245
 ----------------------------------------------------------------

   13    -777.2676655902      6.17E-09 Convergence criterion met
 Total energy in the final basis set = -777.26766559

                    Orbital Energies (a.u.)
 --------------------------------------------------------------

 Alpha MOs
 -- Occupied --
-19.122 -19.099 -10.232 -10.232 -10.209 -10.209 -10.174 -10.174
-10.174 -10.174 -10.168 -10.168 -10.151 -10.151 -10.147 -10.147
-10.147 -10.147  -1.055  -1.029  -0.809  -0.799  -0.783  -0.776
 -0.758  -0.733  -0.727  -0.705  -0.661  -0.637  -0.622  -0.598
 -0.568  -0.566  -0.544  -0.537  -0.498  -0.485  -0.477  -0.467
 -0.462  -0.455  -0.452  -0.434  -0.427  -0.420  -0.411  -0.409
 -0.404  -0.395  -0.394  -0.394  -0.386  -0.370  -0.367  -0.355
 -0.353  -0.352  -0.348  -0.344  -0.332  -0.326  -0.325  -0.319
 -0.315  -0.305  -0.300  -0.283  -0.271  -0.244

          Ground-State Mulliken Net Atomic Charges

     Atom                 Charge (a.u.)
  ----------------------------------------
      1 C                    -0.076071
      2 C                    -0.080156
      3 C                    -0.668782
      4 C                    -0.080154
      5 C                    -0.076209
      6 C                    -0.667700
      7 O                     0.042779
      8 H                     0.198738
      9 H                     0.042530
     10 H                     0.199007
     11 H                     0.040995
     12 C                    -0.178024
     13 C                    -0.176488
     14 H                     0.145747
     15 H                     0.145211
     16 H                     0.145573
     17 H                     0.145837
     18 H                     0.145204
     19 H                     0.145530
     20 H                     0.042790
     21 H                     0.198778
     22 H                     0.198822
     23 H                     0.040864
     24 C                    -0.443676
     25 C                    -0.448448
     26 C                     0.000139
     27 C                    -0.446551
     28 C                    -0.445524
     29 C                     0.003836
     30 O                     0.224544
     31 H                     0.159276
     32 H                     0.153227
     33 H                     0.159077
     34 H                     0.153303
     35 C                    -0.324473
     36 C                    -0.324670
     37 H                     0.183839
     38 H                     0.172750
     39 H                     0.183291
     40 H                     0.183589
     41 H                     0.172900
     42 H                     0.184027
     43 H                     0.153149
     44 H                     0.159321
     45 H                     0.158993
     46 H                     0.153259
  ----------------------------------------
  Sum of atomic charges =     0.000000

                    Cartesian Multipole Moments
 -----------------------------------------------------------------
    Charge (ESU x 10^10)
                 0.0000
    Dipole Moment (Debye)
         X      -4.1624      Y      -0.0020      Z      -0.0053
       Tot       4.1624
    Quadrupole Moments (Debye-Ang)
        XX    -120.3285     XY       0.0040     YY    -109.9993
        XZ       0.0000     YZ       0.0025     ZZ    -114.4404

 Total job time:  408.02s(wall), 1612.92s(cpu)
        *  Thank you very much for using Q-Chem.  Have a nice day.  *
