 Q-Chem 5.0, Q-Chem, Inc., Pleasanton, CA (2017)
 Q-Chem 5.0.1 for Intel X86 EM64T Linux

User input:
--------------------------------------------------------------
$molecule
0  1
--
0  1
C        +0.22270000        +1.04488000        +0.58595000
C        +0.62626000        -0.41353000        +0.99871000
C        +1.33008000        +1.39974000        -0.43491000
C        +2.63070000        +1.71700000        +0.32855000
C        +3.04336000        +0.29351000        +0.80300000
C        +1.94423000        -0.59299000        +0.15262000
O        +1.62840000        +0.13663000        -1.04376000
H        +3.37234000        +2.13782000        -0.35195000
H        +2.48236000        +2.42488000        +1.14651000
H        +4.02182000        +0.00994000        +0.41161000
H        +3.07359000        +0.18738000        +1.88928000
C        +0.90028000        +2.39077000        -1.49430000
C        +2.35450000        -2.01267000        -0.16812000
H        +3.26311000        -2.00678000        -0.77366000
H        +2.54990000        -2.57059000        +0.75079000
H        +1.57335000        -2.52896000        -0.72872000
H        +1.71845000        +2.58186000        -2.15686000
H        +0.59919000        +3.30478000        -1.02650000
H        +0.07925000        +1.98653000        -2.04874000
H        +0.81693000        -0.48905000        +2.04887000
H        -0.12524000        -1.15356000        +0.81843000
H        -0.74673000        +1.06811000        +0.13365000
H        +0.15552000        +1.72617000        +1.40828000
--
0  1
C        +3.52522000        +2.81006000        +2.89625000
C        +3.92878000        +1.35165000        +3.30901000
C        +4.63260000        +3.16492000        +1.87539000
C        +5.93322000        +3.48218000        +2.63885000
C        +6.34588000        +2.05869000        +3.11330000
C        +5.24675000        +1.17219000        +2.46292000
O        +4.93092000        +1.90181000        +1.26654000
H        +6.67486000        +3.90300000        +1.95835000
H        +5.78488000        +4.19006000        +3.45681000
H        +7.32434000        +1.77512000        +2.72191000
H        +6.37611000        +1.95256000        +4.19958000
C        +4.20280000        +4.15595000        +0.81600000
C        +5.65702000        -0.24749000        +2.14218000
H        +6.56563000        -0.24160000        +1.53664000
H        +5.85242000        -0.80541000        +3.06109000
H        +4.87587000        -0.76378000        +1.58158000
H        +5.02097000        +4.34704000        +0.15344000
H        +3.90171000        +5.06996000        +1.28380000
H        +3.38177000        +3.75171000        +0.26156000
H        +4.11945000        +1.27613000        +4.35917000
H        +3.17728000        +0.61162000        +3.12873000
H        +2.55579000        +2.83329000        +2.44395000
H        +3.45804000        +3.49135000        +3.71858000
$end

$rem
JOBTYPE                   SP
METHOD                    B3LYP
DFT_D                     d3_op
BASIS                     6-311++G(d,p)
SYMMETRY                  False
THRESH                    12
SCF_CONVERGENCE           8
MAX_SUB_FILE_NUM          128
MEM_STATIC                400
MEM_TOTAL                 4000
$end
--------------------------------------------------------------

             Standard Nuclear Orientation (Angstroms)
    I     Atom           X                Y                Z
 ----------------------------------------------------------------
    1      C       2.7163738627    -0.8061372824     1.3032521531
    2      C       2.7821922211     0.7607971976     1.3272416969
    3      C       2.2499495350    -1.0783383771    -0.1468258221
    4      C       0.7431596390    -0.7726273683    -0.2529505224
    5      C       0.7566745540     0.7818756336    -0.1818687217
    6      C       2.2800812993     1.0878060864    -0.1308628637
    7      O       2.8377904700     0.0003594602    -0.8857399090
    8      H       0.3558788270    -1.1216110802    -1.2112946952
    9      H       0.1567158830    -1.2417198698     0.5396359762
   10      H       0.3235631589     1.2266401154    -1.0794104331
   11      H       0.2232343028     1.1837700657     0.6819044152
   12      C       2.7202191572    -2.4016220363    -0.7098022984
   13      C       2.6986036953     2.4215844394    -0.7075440859
   14      H       2.3119153573     2.5224019784    -1.7237101496
   15      H       2.3052079535     3.2404769426    -0.1004968613
   16      H       3.7858483973     2.5081696024    -0.7452934456
   17      H       2.3573880471    -2.5127330817    -1.7102578006
   18      H       2.3459431263    -3.2002008809    -0.1039181595
   19      H       3.7898957562    -2.4277601025    -0.7133698231
   20      H       2.1326054226     1.1727232313     2.0710483108
   21      H       3.7427884570     1.1644626651     1.5705657425
   22      H       3.6761527877    -1.2397840999     1.4921550403
   23      H       2.0764858817    -1.2255008884     2.0512985308
   24      C      -1.6827538773    -0.8064869977     1.3907728791
   25      C      -1.6169355190     0.7604474823     1.4147624229
   26      C      -2.1491782050    -1.0786880924    -0.0593050961
   27      C      -3.6559681010    -0.7729770836    -0.1654297964
   28      C      -3.6424531860     0.7815259183    -0.0943479957
   29      C      -2.1190464407     1.0874563711    -0.0433421377
   30      O      -1.5613372700     0.0000097449    -0.7982191830
   31      H      -4.0432489130    -1.1219607955    -1.1237739692
   32      H      -4.2424118570    -1.2420695851     0.6271567022
   33      H      -4.0755645811     1.2262904001    -0.9918897071
   34      H      -4.1758934373     1.1834203504     0.7694251412
   35      C      -1.6789085828    -2.4019717516    -0.6222815724
   36      C      -1.7005240447     2.4212347241    -0.6200233599
   37      H      -2.0872123827     2.5220522631    -1.6361894236
   38      H      -2.0939197865     3.2401272273    -0.0129761353
   39      H      -0.6132793427     2.5078198871    -0.6577727196
   40      H      -2.0417396929    -2.5130827970    -1.6227370746
   41      H      -2.0531846137    -3.2005505962    -0.0163974335
   42      H      -0.6092319839    -2.4281098178    -0.6258490971
   43      H      -2.2665223175     1.1723735160     2.1585690368
   44      H      -0.6563392830     1.1641129498     1.6580864685
   45      H      -0.7229749524    -1.2401338152     1.5796757663
   46      H      -2.3226418583    -1.2258506037     2.1388192568
 ----------------------------------------------------------------

   13    -777.1919310687      6.51E-09 Convergence criterion met
 Total energy in the final basis set = -777.19193107

                    Orbital Energies (a.u.)
 --------------------------------------------------------------

 Alpha MOs
 -- Occupied --
-19.118 -19.102 -10.231 -10.228 -10.211 -10.207 -10.172 -10.171
-10.169 -10.168 -10.161 -10.155 -10.154 -10.153 -10.151 -10.144
-10.142 -10.141  -1.059  -1.036  -0.809  -0.799  -0.791  -0.779
 -0.762  -0.737  -0.721  -0.710  -0.660  -0.649  -0.631  -0.603
 -0.573  -0.570  -0.555  -0.544  -0.507  -0.493  -0.478  -0.466
 -0.464  -0.457  -0.447  -0.439  -0.426  -0.424  -0.418  -0.414
 -0.410  -0.401  -0.399  -0.391  -0.380  -0.370  -0.367  -0.358
 -0.353  -0.350  -0.348  -0.342  -0.336  -0.329  -0.325  -0.318
 -0.312  -0.304  -0.289  -0.283  -0.268  -0.242

          Ground-State Mulliken Net Atomic Charges

     Atom                 Charge (a.u.)
  ----------------------------------------
      1 C                    -0.400073
      2 C                    -0.399031
      3 C                    -0.280125
      4 C                    -0.150320
      5 C                    -0.229642
      6 C                    -0.391618
      7 O                     0.079453
      8 H                     0.222533
      9 H                    -0.055806
     10 H                     0.213292
     11 H                     0.006133
     12 C                    -0.223216
     13 C                    -0.266109
     14 H                     0.150749
     15 H                     0.154036
     16 H                     0.165529
     17 H                     0.141616
     18 H                     0.149733
     19 H                     0.163609
     20 H                     0.116878
     21 H                     0.173030
     22 H                     0.158170
     23 H                     0.130771
     24 C                    -0.373495
     25 C                    -0.392485
     26 C                     0.115259
     27 C                    -0.487540
     28 C                    -0.478889
     29 C                     0.223394
     30 O                     0.175784
     31 H                     0.156970
     32 H                     0.138981
     33 H                     0.161285
     34 H                     0.134543
     35 C                    -0.308740
     36 C                    -0.378547
     37 H                     0.159305
     38 H                     0.152680
     39 H                     0.148856
     40 H                     0.159068
     41 H                     0.149656
     42 H                     0.148862
     43 H                     0.186553
     44 H                     0.195860
     45 H                     0.188718
     46 H                     0.194331
  ----------------------------------------
  Sum of atomic charges =    -0.000000

                    Cartesian Multipole Moments
 -----------------------------------------------------------------
    Charge (ESU x 10^10)
                -0.0000
    Dipole Moment (Debye)
         X      -2.6673      Y       0.0386      Z       2.3142
       Tot       3.5315
    Quadrupole Moments (Debye-Ang)
        XX    -117.4421     XY       0.1526     YY    -110.4943
        XZ       2.6698     YZ      -0.2239     ZZ    -116.3309

 Total job time:  387.36s(wall), 1534.23s(cpu)
        *  Thank you very much for using Q-Chem.  Have a nice day.  *
