 Q-Chem 5.0, Q-Chem, Inc., Pleasanton, CA (2017)
 Q-Chem 5.0.1 for Intel X86 EM64T Linux

User input:
--------------------------------------------------------------
$molecule
0  1
C        +0.22270000        +1.04488000        +0.58595000
C        +0.62626000        -0.41353000        +0.99871000
C        +1.33008000        +1.39974000        -0.43491000
C        +2.63070000        +1.71700000        +0.32855000
C        +3.04336000        +0.29351000        +0.80300000
C        +1.94423000        -0.59299000        +0.15262000
O        +1.62840000        +0.13663000        -1.04376000
H        +3.37234000        +2.13782000        -0.35195000
H        +2.48236000        +2.42488000        +1.14651000
H        +4.02182000        +0.00994000        +0.41161000
H        +3.07359000        +0.18738000        +1.88928000
C        +0.90028000        +2.39077000        -1.49430000
C        +2.35450000        -2.01267000        -0.16812000
H        +3.26311000        -2.00678000        -0.77366000
H        +2.54990000        -2.57059000        +0.75079000
H        +1.57335000        -2.52896000        -0.72872000
H        +1.71845000        +2.58186000        -2.15686000
H        +0.59919000        +3.30478000        -1.02650000
H        +0.07925000        +1.98653000        -2.04874000
H        +0.81693000        -0.48905000        +2.04887000
H        -0.12524000        -1.15356000        +0.81843000
H        -0.74673000        +1.06811000        +0.13365000
H        +0.15552000        +1.72617000        +1.40828000
@C        +4.50096000        +3.33160000        +3.57884000
@C        +4.90452000        +1.87319000        +3.99160000
@C        +5.60834000        +3.68646000        +2.55798000
@C        +6.90896000        +4.00372000        +3.32144000
@C        +7.32162000        +2.58023000        +3.79589000
@C        +6.22249000        +1.69373000        +3.14551000
@O        +5.90666000        +2.42335000        +1.94913000
@H        +7.65060000        +4.42454000        +2.64094000
@H        +6.76062000        +4.71160000        +4.13940000
@H        +8.30008000        +2.29666000        +3.40450000
@H        +7.35185000        +2.47410000        +4.88217000
@C        +5.17854000        +4.67749000        +1.49859000
@C        +6.63276000        +0.27405000        +2.82477000
@H        +7.54137000        +0.27994000        +2.21923000
@H        +6.82816000        -0.28387000        +3.74368000
@H        +5.85161000        -0.24224000        +2.26417000
@H        +5.99671000        +4.86858000        +0.83603000
@H        +4.87745000        +5.59150000        +1.96639000
@H        +4.35751000        +4.27325000        +0.94415000
@H        +5.09519000        +1.79767000        +5.04176000
@H        +4.15302000        +1.13316000        +3.81132000
@H        +3.53153000        +3.35483000        +3.12654000
@H        +4.43378000        +4.01289000        +4.40117000
$end

$rem
JOBTYPE                   SP
METHOD                    B3LYP
DFT_D                     d3_op
BASIS                     6-311++G(d,p)
SYMMETRY                  False
THRESH                    12
SCF_CONVERGENCE           8
MAX_SUB_FILE_NUM          128
MEM_STATIC                400
MEM_TOTAL                 4000
$end
--------------------------------------------------------------

             Standard Nuclear Orientation (Angstroms)
    I     Atom           X                Y                Z
 ----------------------------------------------------------------
    1      C       0.2227000000     1.0448800000     0.5859500000
    2      C       0.6262600000    -0.4135300000     0.9987100000
    3      C       1.3300800000     1.3997400000    -0.4349100000
    4      C       2.6307000000     1.7170000000     0.3285500000
    5      C       3.0433600000     0.2935100000     0.8030000000
    6      C       1.9442300000    -0.5929900000     0.1526200000
    7      O       1.6284000000     0.1366300000    -1.0437600000
    8      H       3.3723400000     2.1378200000    -0.3519500000
    9      H       2.4823600000     2.4248800000     1.1465100000
   10      H       4.0218200000     0.0099400000     0.4116100000
   11      H       3.0735900000     0.1873800000     1.8892800000
   12      C       0.9002800000     2.3907700000    -1.4943000000
   13      C       2.3545000000    -2.0126700000    -0.1681200000
   14      H       3.2631100000    -2.0067800000    -0.7736600000
   15      H       2.5499000000    -2.5705900000     0.7507900000
   16      H       1.5733500000    -2.5289600000    -0.7287200000
   17      H       1.7184500000     2.5818600000    -2.1568600000
   18      H       0.5991900000     3.3047800000    -1.0265000000
   19      H       0.0792500000     1.9865300000    -2.0487400000
   20      H       0.8169300000    -0.4890500000     2.0488700000
   21      H      -0.1252400000    -1.1535600000     0.8184300000
   22      H      -0.7467300000     1.0681100000     0.1336500000
   23      H       0.1555200000     1.7261700000     1.4082800000
   24      GH      4.5009600000     3.3316000000     3.5788400000
   25      GH      4.9045200000     1.8731900000     3.9916000000
   26      GH      5.6083400000     3.6864600000     2.5579800000
   27      GH      6.9089600000     4.0037200000     3.3214400000
   28      GH      7.3216200000     2.5802300000     3.7958900000
   29      GH      6.2224900000     1.6937300000     3.1455100000
   30      GH      5.9066600000     2.4233500000     1.9491300000
   31      GH      7.6506000000     4.4245400000     2.6409400000
   32      GH      6.7606200000     4.7116000000     4.1394000000
   33      GH      8.3000800000     2.2966600000     3.4045000000
   34      GH      7.3518500000     2.4741000000     4.8821700000
   35      GH      5.1785400000     4.6774900000     1.4985900000
   36      GH      6.6327600000     0.2740500000     2.8247700000
   37      GH      7.5413700000     0.2799400000     2.2192300000
   38      GH      6.8281600000    -0.2838700000     3.7436800000
   39      GH      5.8516100000    -0.2422400000     2.2641700000
   40      GH      5.9967100000     4.8685800000     0.8360300000
   41      GH      4.8774500000     5.5915000000     1.9663900000
   42      GH      4.3575100000     4.2732500000     0.9441500000
   43      GH      5.0951900000     1.7976700000     5.0417600000
   44      GH      4.1530200000     1.1331600000     3.8113200000
   45      GH      3.5315300000     3.3548300000     3.1265400000
   46      GH      4.4337800000     4.0128900000     4.4011700000
 ----------------------------------------------------------------

   12    -388.6331197009      6.95E-09 Convergence criterion met
 Total energy in the final basis set = -388.63311970

                    Orbital Energies (a.u.)
 --------------------------------------------------------------

 Alpha MOs
 -- Occupied --
-19.115 -10.224 -10.221 -10.166 -10.165 -10.162 -10.161 -10.160
-10.151  -1.049  -0.799  -0.789  -0.749  -0.717  -0.652  -0.616
 -0.562  -0.556  -0.486  -0.474  -0.464  -0.444  -0.420  -0.410
 -0.407  -0.402  -0.384  -0.360  -0.346  -0.343  -0.340  -0.333
 -0.316  -0.299  -0.261

          Ground-State Mulliken Net Atomic Charges

     Atom                 Charge (a.u.)
  ----------------------------------------
      1 C                    -0.419292
      2 C                    -0.463434
      3 C                     0.007012
      4 C                    -0.282489
      5 C                    -0.224276
      6 C                     0.025540
      7 O                     0.032173
      8 H                     0.176686
      9 H                     0.053452
     10 H                     0.160725
     11 H                     0.056415
     12 C                    -0.325908
     13 C                    -0.341195
     14 H                     0.151703
     15 H                     0.150483
     16 H                     0.155845
     17 H                     0.141515
     18 H                     0.146858
     19 H                     0.154158
     20 H                     0.135432
     21 H                     0.175435
     22 H                     0.164097
     23 H                     0.144612
     24 GH                    0.005509
     25 GH                    0.005952
     26 GH                   -0.005519
     27 GH                    0.000653
     28 GH                   -0.004639
     29 GH                   -0.007142
     30 GH                    0.001790
     31 GH                   -0.000187
     32 GH                    0.000012
     33 GH                   -0.000180
     34 GH                    0.000033
     35 GH                   -0.010080
     36 GH                   -0.004698
     37 GH                    0.001126
     38 GH                   -0.000787
     39 GH                    0.007569
     40 GH                    0.001335
     41 GH                   -0.000921
     42 GH                    0.008168
     43 GH                   -0.001516
     44 GH                    0.016548
     45 GH                    0.012283
     46 GH                   -0.000860
  ----------------------------------------
  Sum of atomic charges =     0.000000

                    Cartesian Multipole Moments
 -----------------------------------------------------------------
    Charge (ESU x 10^10)
                 0.0000
    Dipole Moment (Debye)
         X      -0.0328      Y       0.4294      Z       1.5058
       Tot       1.5662
    Quadrupole Moments (Debye-Ang)
        XX     -56.4693     XY       0.1441     YY     -54.7972
        XZ       2.3956     YZ      -0.4922     ZZ     -59.1071

 Total job time:  269.45s(wall), 1064.95s(cpu)
        *  Thank you very much for using Q-Chem.  Have a nice day.  *
