 Q-Chem 5.0, Q-Chem, Inc., Pleasanton, CA (2017)
 Q-Chem 5.0.1 for Intel X86 EM64T Linux

User input:
--------------------------------------------------------------
$molecule
0  1
--
0  1
C        +0.22270000        +1.04488000        +0.58595000
C        +0.62626000        -0.41353000        +0.99871000
C        +1.33008000        +1.39974000        -0.43491000
C        +2.63070000        +1.71700000        +0.32855000
C        +3.04336000        +0.29351000        +0.80300000
C        +1.94423000        -0.59299000        +0.15262000
O        +1.62840000        +0.13663000        -1.04376000
H        +3.37234000        +2.13782000        -0.35195000
H        +2.48236000        +2.42488000        +1.14651000
H        +4.02182000        +0.00994000        +0.41161000
H        +3.07359000        +0.18738000        +1.88928000
C        +0.90028000        +2.39077000        -1.49430000
C        +2.35450000        -2.01267000        -0.16812000
H        +3.26311000        -2.00678000        -0.77366000
H        +2.54990000        -2.57059000        +0.75079000
H        +1.57335000        -2.52896000        -0.72872000
H        +1.71845000        +2.58186000        -2.15686000
H        +0.59919000        +3.30478000        -1.02650000
H        +0.07925000        +1.98653000        -2.04874000
H        +0.81693000        -0.48905000        +2.04887000
H        -0.12524000        -1.15356000        +0.81843000
H        -0.74673000        +1.06811000        +0.13365000
H        +0.15552000        +1.72617000        +1.40828000
--
0  1
C        +4.50096000        +3.33160000        +3.57884000
C        +4.90452000        +1.87319000        +3.99160000
C        +5.60834000        +3.68646000        +2.55798000
C        +6.90896000        +4.00372000        +3.32144000
C        +7.32162000        +2.58023000        +3.79589000
C        +6.22249000        +1.69373000        +3.14551000
O        +5.90666000        +2.42335000        +1.94913000
H        +7.65060000        +4.42454000        +2.64094000
H        +6.76062000        +4.71160000        +4.13940000
H        +8.30008000        +2.29666000        +3.40450000
H        +7.35185000        +2.47410000        +4.88217000
C        +5.17854000        +4.67749000        +1.49859000
C        +6.63276000        +0.27405000        +2.82477000
H        +7.54137000        +0.27994000        +2.21923000
H        +6.82816000        -0.28387000        +3.74368000
H        +5.85161000        -0.24224000        +2.26417000
H        +5.99671000        +4.86858000        +0.83603000
H        +4.87745000        +5.59150000        +1.96639000
H        +4.35751000        +4.27325000        +0.94415000
H        +5.09519000        +1.79767000        +5.04176000
H        +4.15302000        +1.13316000        +3.81132000
H        +3.53153000        +3.35483000        +3.12654000
H        +4.43378000        +4.01289000        +4.40117000
$end

$rem
JOBTYPE                   SP
METHOD                    B3LYP
DFT_D                     d3_op
BASIS                     6-311++G(d,p)
SYMMETRY                  False
THRESH                    12
SCF_CONVERGENCE           8
MAX_SUB_FILE_NUM          128
MEM_STATIC                400
MEM_TOTAL                 4000
$end
--------------------------------------------------------------

             Standard Nuclear Orientation (Angstroms)
    I     Atom           X                Y                Z
 ----------------------------------------------------------------
    1      C       3.3557753038    -0.8062203242     1.3172258348
    2      C       3.4214632392     0.7607114282     1.3417451668
    3      C       2.9009633453    -1.0783995313    -0.1365402348
    4      C       1.3950837420    -0.7726269972    -0.2547233190
    5      C       1.4080924108     0.7818753109    -0.1835319795
    6      C       2.9310544585     1.0877436723    -0.1203315205
    7      O       3.4947446407     0.0002758672    -0.8707222114
    8      H       1.0154731007    -1.1215930280    -1.2161379446
    9      H       0.8022947050    -1.2416972249     0.5331419555
   10      H       0.9821981899     1.2266592161    -1.0845111351
   11      H       0.8677707268     1.1837897165     0.6759439984
   12      C       3.3756709425    -2.4017011960    -0.6957370467
   13      C       3.3542342723     2.4215061507    -0.6936407037
   14      H       2.9756972700     2.5223414623    -1.7128695757
   15      H       2.9560247715     3.2404134434    -0.0897603233
   16      H       4.4417498553     2.5080471484    -0.7226847933
   17      H       3.0208560139    -2.5127954710    -1.6990653674
   18      H       2.9965240625    -3.2002660254    -0.0928704239
   19      H       4.4453407603    -2.4278827812    -0.6907412996
   20      H       2.7659595212     1.1726624021     2.0803286866
   21      H       4.3800971986     1.1643373198     1.5927523398
   22      H       4.3139935865    -1.2399065744     1.5138050985
   23      H       2.7099023398    -1.2255593924     2.0601246878
   24      C      -2.3438208538    -0.8064514165     1.3849836806
   25      C      -2.2781329183     0.7604803360     1.4095030126
   26      C      -2.7986328123    -1.0786306236    -0.0687823890
   27      C      -4.3045124156    -0.7728580895    -0.1869654732
   28      C      -4.2915037467     0.7816442186    -0.1157741337
   29      C      -2.7685416990     1.0875125801    -0.0525736747
   30      O      -2.2048515169     0.0000447750    -0.8029643657
   31      H      -4.6841230569    -1.1218241202    -1.1483800988
   32      H      -4.8973014525    -1.2419283171     0.6008998013
   33      H      -4.7173979676     1.2264281238    -1.0167532893
   34      H      -4.8318254307     1.1835586243     0.7437018442
   35      C      -2.3239252151    -2.4019322882    -0.6279792009
   36      C      -2.3453618852     2.4212750584    -0.6258828579
   37      H      -2.7238988875     2.5221103701    -1.6451117300
   38      H      -2.7435713861     3.2401823511    -0.0220024775
   39      H      -1.2578463023     2.5078160561    -0.6549269475
   40      H      -2.6787401436    -2.5130265632    -1.6313075216
   41      H      -2.7030720950    -3.2004971177    -0.0251125781
   42      H      -1.2542553972    -2.4281138734    -0.6229834538
   43      H      -2.9336366363     1.1724313098     2.1480865324
   44      H      -1.3194989589     1.1641062275     1.6605101856
   45      H      -1.3856025711    -1.2401376667     1.5815629442
   46      H      -2.9896938177    -1.2257904846     2.1278825336
 ----------------------------------------------------------------

   13    -777.2698156108      4.62E-09 Convergence criterion met
 Total energy in the final basis set = -777.26981561

                    Orbital Energies (a.u.)
 --------------------------------------------------------------

 Alpha MOs
 -- Occupied --
-19.117 -19.111 -10.227 -10.223 -10.220 -10.216 -10.168 -10.167
-10.165 -10.164 -10.162 -10.160 -10.160 -10.159 -10.158 -10.157
-10.153 -10.148  -1.051  -1.045  -0.802  -0.795  -0.791  -0.785
 -0.751  -0.744  -0.720  -0.714  -0.654  -0.649  -0.619  -0.612
 -0.565  -0.559  -0.559  -0.551  -0.489  -0.482  -0.476  -0.470
 -0.467  -0.460  -0.447  -0.440  -0.423  -0.416  -0.413  -0.410
 -0.406  -0.405  -0.403  -0.397  -0.387  -0.379  -0.362  -0.357
 -0.349  -0.346  -0.344  -0.342  -0.340  -0.336  -0.335  -0.329
 -0.318  -0.312  -0.302  -0.295  -0.264  -0.257

          Ground-State Mulliken Net Atomic Charges

     Atom                 Charge (a.u.)
  ----------------------------------------
      1 C                    -0.424183
      2 C                    -0.469046
      3 C                     0.005320
      4 C                    -0.277719
      5 C                    -0.219513
      6 C                     0.013062
      7 O                     0.030214
      8 H                     0.183935
      9 H                     0.020183
     10 H                     0.161022
     11 H                     0.031685
     12 C                    -0.316791
     13 C                    -0.325953
     14 H                     0.153950
     15 H                     0.148675
     16 H                     0.154613
     17 H                     0.143617
     18 H                     0.145239
     19 H                     0.152998
     20 H                     0.133244
     21 H                     0.173940
     22 H                     0.162846
     23 H                     0.143294
     24 C                    -0.291852
     25 C                    -0.332555
     26 C                     0.117155
     27 C                    -0.614776
     28 C                    -0.520060
     29 C                     0.116228
     30 O                     0.024468
     31 H                     0.156619
     32 H                     0.138501
     33 H                     0.159202
     34 H                     0.137624
     35 C                    -0.221786
     36 C                    -0.316234
     37 H                     0.156736
     38 H                     0.146835
     39 H                     0.154219
     40 H                     0.152525
     41 H                     0.143641
     42 H                     0.147114
     43 H                     0.158296
     44 H                     0.157909
     45 H                     0.130746
     46 H                     0.174812
  ----------------------------------------
  Sum of atomic charges =     0.000000

                    Cartesian Multipole Moments
 -----------------------------------------------------------------
    Charge (ESU x 10^10)
                 0.0000
    Dipole Moment (Debye)
         X      -2.0769      Y       0.0179      Z       2.3342
       Tot       3.1244
    Quadrupole Moments (Debye-Ang)
        XX    -116.0308     XY       0.2021     YY    -109.7324
        XZ       2.6199     YZ      -0.2223     ZZ    -116.2655

 Total job time:  307.05s(wall), 1214.73s(cpu)
        *  Thank you very much for using Q-Chem.  Have a nice day.  *
