 Q-Chem 5.0, Q-Chem, Inc., Pleasanton, CA (2017)
 Q-Chem 5.0.1 for Intel X86 EM64T Linux

User input:
--------------------------------------------------------------
$molecule
0  1
C        -0.58248000        -1.04608000        +4.33368000
C        -0.61282000        +0.34099000        +4.45466000
C        -1.77329000        -1.77069000        +4.26219000
C        -2.99013000        -1.09517000        +4.31349000
C        -3.01473000        +0.29469000        +4.43456000
C        -1.83009000        +1.03329000        +4.50525000
H        -3.96782000        +0.81232000        +4.47365000
H        -3.92198000        -1.64754000        +4.25875000
C        -1.85474000        +2.53798000        +4.63072000
H        -1.33037000        +3.01200000        +3.79519000
H        -1.36334000        +2.86667000        +5.55167000
H        -2.87805000        +2.91839000        +4.64272000
H        -1.75129000        -2.85052000        +4.16703000
H        +0.36976000        -1.56375000        +4.29482000
H        +0.31907000        +0.89528000        +4.50971000
@C        -0.55335000        -0.66344000        -0.04955000
@C        -0.58369000        +0.72363000        +0.07143000
@C        -1.74416000        -1.38805000        -0.12104000
@C        -2.96100000        -0.71253000        -0.06974000
@C        -2.98560000        +0.67733000        +0.05133000
@C        -1.80096000        +1.41593000        +0.12202000
@H        -3.93869000        +1.19496000        +0.09042000
@H        -3.89285000        -1.26490000        -0.12448000
@C        -1.82561000        +2.92062000        +0.24749000
@H        -1.30124000        +3.39464000        -0.58804000
@H        -1.33421000        +3.24931000        +1.16844000
@H        -2.84892000        +3.30103000        +0.25949000
@H        -1.72216000        -2.46788000        -0.21620000
@H        +0.39889000        -1.18111000        -0.08841000
@H        +0.34820000        +1.27792000        +0.12648000
$end

$rem
JOBTYPE                   SP
METHOD                    B3LYP
DFT_D                     d3_op
BASIS                     6-311++G(d,p)
SYMMETRY                  False
THRESH                    12
SCF_CONVERGENCE           8
MAX_SUB_FILE_NUM          128
MEM_STATIC                400
MEM_TOTAL                 4000
$end
--------------------------------------------------------------

             Standard Nuclear Orientation (Angstroms)
    I     Atom           X                Y                Z
 ----------------------------------------------------------------
    1      C      -0.5824800000    -1.0460800000     4.3336800000
    2      C      -0.6128200000     0.3409900000     4.4546600000
    3      C      -1.7732900000    -1.7706900000     4.2621900000
    4      C      -2.9901300000    -1.0951700000     4.3134900000
    5      C      -3.0147300000     0.2946900000     4.4345600000
    6      C      -1.8300900000     1.0332900000     4.5052500000
    7      H      -3.9678200000     0.8123200000     4.4736500000
    8      H      -3.9219800000    -1.6475400000     4.2587500000
    9      C      -1.8547400000     2.5379800000     4.6307200000
   10      H      -1.3303700000     3.0120000000     3.7951900000
   11      H      -1.3633400000     2.8666700000     5.5516700000
   12      H      -2.8780500000     2.9183900000     4.6427200000
   13      H      -1.7512900000    -2.8505200000     4.1670300000
   14      H       0.3697600000    -1.5637500000     4.2948200000
   15      H       0.3190700000     0.8952800000     4.5097100000
   16      GH     -0.5533500000    -0.6634400000    -0.0495500000
   17      GH     -0.5836900000     0.7236300000     0.0714300000
   18      GH     -1.7441600000    -1.3880500000    -0.1210400000
   19      GH     -2.9610000000    -0.7125300000    -0.0697400000
   20      GH     -2.9856000000     0.6773300000     0.0513300000
   21      GH     -1.8009600000     1.4159300000     0.1220200000
   22      GH     -3.9386900000     1.1949600000     0.0904200000
   23      GH     -3.8928500000    -1.2649000000    -0.1244800000
   24      GH     -1.8256100000     2.9206200000     0.2474900000
   25      GH     -1.3012400000     3.3946400000    -0.5880400000
   26      GH     -1.3342100000     3.2493100000     1.1684400000
   27      GH     -2.8489200000     3.3010300000     0.2594900000
   28      GH     -1.7221600000    -2.4678800000    -0.2162000000
   29      GH      0.3988900000    -1.1811100000    -0.0884100000
   30      GH      0.3482000000     1.2779200000     0.1264800000
 ----------------------------------------------------------------

   13    -271.6507253362      8.88E-10 Convergence criterion met
 Total energy in the final basis set = -271.65072534

                    Orbital Energies (a.u.)
 --------------------------------------------------------------

 Alpha MOs
 -- Occupied --
-10.185 -10.176 -10.175 -10.173 -10.173 -10.173 -10.170  -0.860
 -0.775  -0.748  -0.689  -0.608  -0.587  -0.515  -0.464  -0.457
 -0.424  -0.424  -0.412  -0.389  -0.359  -0.346  -0.343  -0.257
 -0.248

          Ground-State Mulliken Net Atomic Charges

     Atom                 Charge (a.u.)
  ----------------------------------------
      1 C                    -0.215579
      2 C                    -0.197512
      3 C                    -0.280119
      4 C                    -0.260538
      5 C                    -0.249773
      6 C                     0.635391
      7 H                     0.158619
      8 H                     0.173083
      9 C                    -0.711074
     10 H                     0.163110
     11 H                     0.153621
     12 H                     0.140253
     13 H                     0.153170
     14 H                     0.168396
     15 H                     0.179833
     16 GH                   -0.016986
     17 GH                    0.006896
     18 GH                    0.013389
     19 GH                   -0.012350
     20 GH                   -0.012594
     21 GH                   -0.007947
     22 GH                    0.000344
     23 GH                    0.001312
     24 GH                    0.015985
     25 GH                   -0.000498
     26 GH                   -0.005250
     27 GH                    0.001970
     28 GH                    0.002492
     29 GH                    0.001581
     30 GH                    0.000774
  ----------------------------------------
  Sum of atomic charges =    -0.000000

                    Cartesian Multipole Moments
 -----------------------------------------------------------------
    Charge (ESU x 10^10)
                -0.0000
    Dipole Moment (Debye)
         X       0.0351      Y       0.4016      Z       0.0349
       Tot       0.4046
    Quadrupole Moments (Debye-Ang)
        XX     -39.2558     XY      -0.6682     YY     -38.7111
        XZ       0.1506     YZ       2.4555     ZZ     -46.1897

 Total job time:  97.67s(wall), 388.36s(cpu)
        *  Thank you very much for using Q-Chem.  Have a nice day.  *
