 Q-Chem 5.0, Q-Chem, Inc., Pleasanton, CA (2017)
 Q-Chem 5.0.1 for Intel X86 EM64T Linux

User input:
--------------------------------------------------------------
$molecule
0  1
--
0  1
C        -0.55335000        -0.66344000        -0.04955000
C        -0.58369000        +0.72363000        +0.07143000
C        -1.74416000        -1.38805000        -0.12104000
C        -2.96100000        -0.71253000        -0.06974000
C        -2.98560000        +0.67733000        +0.05133000
C        -1.80096000        +1.41593000        +0.12202000
H        -3.93869000        +1.19496000        +0.09042000
H        -3.89285000        -1.26490000        -0.12448000
C        -1.82561000        +2.92062000        +0.24749000
H        -1.30124000        +3.39464000        -0.58804000
H        -1.33421000        +3.24931000        +1.16844000
H        -2.84892000        +3.30103000        +0.25949000
H        -1.72216000        -2.46788000        -0.21620000
H        +0.39889000        -1.18111000        -0.08841000
H        +0.34820000        +1.27792000        +0.12648000
--
0  1
C        -0.58248000        -1.04608000        +4.33368000
C        -0.61282000        +0.34099000        +4.45466000
C        -1.77329000        -1.77069000        +4.26219000
C        -2.99013000        -1.09517000        +4.31349000
C        -3.01473000        +0.29469000        +4.43456000
C        -1.83009000        +1.03329000        +4.50525000
H        -3.96782000        +0.81232000        +4.47365000
H        -3.92198000        -1.64754000        +4.25875000
C        -1.85474000        +2.53798000        +4.63072000
H        -1.33037000        +3.01200000        +3.79519000
H        -1.36334000        +2.86667000        +5.55167000
H        -2.87805000        +2.91839000        +4.64272000
H        -1.75129000        -2.85052000        +4.16703000
H        +0.36976000        -1.56375000        +4.29482000
H        +0.31907000        +0.89528000        +4.50971000
$end

$rem
JOBTYPE                   SP
METHOD                    B3LYP
DFT_D                     d3_op
BASIS                     6-311++G(d,p)
SYMMETRY                  False
THRESH                    12
SCF_CONVERGENCE           8
MAX_SUB_FILE_NUM          128
MEM_STATIC                400
MEM_TOTAL                 4000
$end
--------------------------------------------------------------

             Standard Nuclear Orientation (Angstroms)
    I     Atom           X                Y                Z
 ----------------------------------------------------------------
    1      C       2.1965914921    -1.1984921955     1.2062269627
    2      C       2.1985060927     0.1941606107     1.2003655122
    3      C       2.1959009941    -1.9055292447     0.0027748188
    4      C       2.1965051239    -1.2068225217    -1.2019936636
    5      C       2.1986145220     0.1885159568    -1.2020681444
    6      C       2.2012979614     0.9095241115    -0.0045544678
    7      H       2.1991600877     0.7242572375    -2.1459062532
    8      H       2.1960622928    -1.7453943664    -2.1434784903
    9      C       2.2091754205     2.4196157778    -0.0026984658
   10      H       3.0867734890     2.8087344500     0.5228274872
   11      H       1.3241439449     2.8196251782     0.5016543328
   12      H       2.2241114916     2.8175376402    -1.0192879745
   13      H       2.1953733866    -2.9897632401     0.0057106932
   14      H       2.1958076975    -1.7342380622     2.1492164102
   15      H       2.1988101373     0.7346713236     2.1419253645
   16      C      -2.2034001946    -1.1921428007     1.2061878874
   17      C      -2.2014855940     0.2005100055     1.2003264369
   18      C      -2.2040906926    -1.8991798499     0.0027357435
   19      C      -2.2034865628    -1.2004731269    -1.2020327389
   20      C      -2.2013771647     0.1948653516    -1.2021072197
   21      C      -2.1986937253     0.9158735063    -0.0045935431
   22      H      -2.2008315990     0.7306066323    -2.1459453285
   23      H      -2.2039293940    -1.7390449716    -2.1435175656
   24      C      -2.1908162662     2.4259651725    -0.0027375410
   25      H      -1.3132181977     2.8150838447     0.5227884119
   26      H      -3.0758477418     2.8259745730     0.5016152575
   27      H      -2.1758801951     2.8238870350    -1.0193270498
   28      H      -2.2046183001    -2.9834138453     0.0056716179
   29      H      -2.2041839892    -1.7278886674     2.1491773349
   30      H      -2.2011815494     0.7410207183     2.1418862892
 ----------------------------------------------------------------

   13    -543.3030061971      6.06E-09 Convergence criterion met
 Total energy in the final basis set = -543.30300620

                    Orbital Energies (a.u.)
 --------------------------------------------------------------

 Alpha MOs
 -- Occupied --
-10.181 -10.181 -10.172 -10.172 -10.171 -10.171 -10.169 -10.169
-10.169 -10.169 -10.169 -10.169 -10.168 -10.168  -0.856  -0.856
 -0.772  -0.771  -0.744  -0.743  -0.686  -0.685  -0.605  -0.604
 -0.584  -0.583  -0.512  -0.511  -0.461  -0.461  -0.454  -0.454
 -0.427  -0.420  -0.419  -0.418  -0.409  -0.408  -0.387  -0.386
 -0.359  -0.351  -0.343  -0.343  -0.340  -0.339  -0.256  -0.248
 -0.247  -0.240

          Ground-State Mulliken Net Atomic Charges

     Atom                 Charge (a.u.)
  ----------------------------------------
      1 C                    -0.220855
      2 C                    -0.211624
      3 C                    -0.260933
      4 C                    -0.270828
      5 C                    -0.258490
      6 C                     0.654485
      7 H                     0.154310
      8 H                     0.169776
      9 C                    -0.689232
     10 H                     0.151450
     11 H                     0.149993
     12 H                     0.140624
     13 H                     0.150990
     14 H                     0.165436
     15 H                     0.174742
     16 C                    -0.228261
     17 C                    -0.198872
     18 C                    -0.261115
     19 C                    -0.268153
     20 C                    -0.264015
     21 C                     0.657613
     22 H                     0.154161
     23 H                     0.169909
     24 C                    -0.693163
     25 H                     0.147867
     26 H                     0.152211
     27 H                     0.140214
     28 H                     0.150831
     29 H                     0.165388
     30 H                     0.175540
  ----------------------------------------
  Sum of atomic charges =     0.000000

                    Cartesian Multipole Moments
 -----------------------------------------------------------------
    Charge (ESU x 10^10)
                -0.0000
    Dipole Moment (Debye)
         X       0.0077      Y       0.6380      Z       0.0572
       Tot       0.6406
    Quadrupole Moments (Debye-Ang)
        XX     -94.2642     XY       0.0271     YY     -78.0508
        XZ      -0.0023     YZ       0.0717     ZZ     -78.4962

 Total job time:  98.44s(wall), 391.53s(cpu)
        *  Thank you very much for using Q-Chem.  Have a nice day.  *
