 Q-Chem 5.0, Q-Chem, Inc., Pleasanton, CA (2017)
 Q-Chem 5.0.1 for Intel X86 EM64T Linux

User input:
--------------------------------------------------------------
$molecule
0  1
C        -0.54444000        -0.68370000        -0.06689000
C        -0.55709000        +0.71878000        +0.05493000
C        -1.74320000        -1.41616000        -0.12552000
C        -2.93952000        -0.70056000        -0.05285000
C        -2.95313000        +0.68255000        +0.06934000
C        -1.77161000        +1.42404000        +0.12810000
H        -3.90354000        +1.20325000        +0.11710000
H        -3.87892000        -1.24211000        -0.08988000
C        -1.83960000        +2.92746000        +0.24839000
H        -1.24214000        +3.42352000        -0.52065000
H        -1.45503000        +3.26427000        +1.21284000
H        -2.87211000        +3.26623000        +0.14638000
H        -1.73878000        -2.44393000        -0.21875000
H        +0.35825000        -1.18166000        -0.11386000
H        +0.33551000        +1.23549000        +0.09097000
@C        -0.51416000        -1.06734000        +4.31625000
@C        -0.52681000        +0.33514000        +4.43807000
@C        -1.71292000        -1.79980000        +4.25762000
@C        -2.90924000        -1.08420000        +4.33029000
@C        -2.92285000        +0.29891000        +4.45248000
@C        -1.74133000        +1.04040000        +4.51124000
@H        -3.87326000        +0.81961000        +4.50024000
@H        -3.84864000        -1.62575000        +4.29326000
@C        -1.80932000        +2.54382000        +4.63153000
@H        -1.21186000        +3.03988000        +3.86249000
@H        -1.42475000        +2.88063000        +5.59598000
@H        -2.84183000        +2.88259000        +4.52952000
@H        -1.70850000        -2.82757000        +4.16439000
@H        +0.38853000        -1.56530000        +4.26928000
@H        +0.36579000        +0.85185000        +4.47411000
$end

$rem
JOBTYPE                   SP
METHOD                    B3LYP
DFT_D                     d3_op
BASIS                     6-311++G(d,p)
SYMMETRY                  False
THRESH                    12
SCF_CONVERGENCE           8
MAX_SUB_FILE_NUM          128
MEM_STATIC                400
MEM_TOTAL                 4000
$end
--------------------------------------------------------------

             Standard Nuclear Orientation (Angstroms)
    I     Atom           X                Y                Z
 ----------------------------------------------------------------
    1      C      -0.5444400000    -0.6837000000    -0.0668900000
    2      C      -0.5570900000     0.7187800000     0.0549300000
    3      C      -1.7432000000    -1.4161600000    -0.1255200000
    4      C      -2.9395200000    -0.7005600000    -0.0528500000
    5      C      -2.9531300000     0.6825500000     0.0693400000
    6      C      -1.7716100000     1.4240400000     0.1281000000
    7      H      -3.9035400000     1.2032500000     0.1171000000
    8      H      -3.8789200000    -1.2421100000    -0.0898800000
    9      C      -1.8396000000     2.9274600000     0.2483900000
   10      H      -1.2421400000     3.4235200000    -0.5206500000
   11      H      -1.4550300000     3.2642700000     1.2128400000
   12      H      -2.8721100000     3.2662300000     0.1463800000
   13      H      -1.7387800000    -2.4439300000    -0.2187500000
   14      H       0.3582500000    -1.1816600000    -0.1138600000
   15      H       0.3355100000     1.2354900000     0.0909700000
   16      GH     -0.5141600000    -1.0673400000     4.3162500000
   17      GH     -0.5268100000     0.3351400000     4.4380700000
   18      GH     -1.7129200000    -1.7998000000     4.2576200000
   19      GH     -2.9092400000    -1.0842000000     4.3302900000
   20      GH     -2.9228500000     0.2989100000     4.4524800000
   21      GH     -1.7413300000     1.0404000000     4.5112400000
   22      GH     -3.8732600000     0.8196100000     4.5002400000
   23      GH     -3.8486400000    -1.6257500000     4.2932600000
   24      GH     -1.8093200000     2.5438200000     4.6315300000
   25      GH     -1.2118600000     3.0398800000     3.8624900000
   26      GH     -1.4247500000     2.8806300000     5.5959800000
   27      GH     -2.8418300000     2.8825900000     4.5295200000
   28      GH     -1.7085000000    -2.8275700000     4.1643900000
   29      GH      0.3885300000    -1.5653000000     4.2692800000
   30      GH      0.3657900000     0.8518500000     4.4741100000
 ----------------------------------------------------------------

   12    -271.6439631655      9.99E-09 Convergence criterion met
 Total energy in the final basis set = -271.64396317

                    Orbital Energies (a.u.)
 --------------------------------------------------------------

 Alpha MOs
 -- Occupied --
-10.185 -10.174 -10.172 -10.171 -10.170 -10.169 -10.169  -0.858
 -0.776  -0.748  -0.691  -0.611  -0.591  -0.521  -0.465  -0.463
 -0.424  -0.423  -0.418  -0.390  -0.358  -0.350  -0.342  -0.255
 -0.248

          Ground-State Mulliken Net Atomic Charges

     Atom                 Charge (a.u.)
  ----------------------------------------
      1 C                    -0.199276
      2 C                    -0.252254
      3 C                    -0.241804
      4 C                    -0.273341
      5 C                    -0.278952
      6 C                     0.693070
      7 H                     0.155297
      8 H                     0.167821
      9 C                    -0.697810
     10 H                     0.148184
     11 H                     0.166554
     12 H                     0.141765
     13 H                     0.147564
     14 H                     0.159809
     15 H                     0.170871
     16 GH                   -0.017768
     17 GH                    0.024893
     18 GH                    0.013317
     19 GH                   -0.005605
     20 GH                   -0.027372
     21 GH                   -0.012664
     22 GH                   -0.000457
     23 GH                    0.002594
     24 GH                    0.012670
     25 GH                   -0.003731
     26 GH                   -0.000619
     27 GH                    0.001638
     28 GH                    0.001850
     29 GH                    0.001716
     30 GH                    0.002038
  ----------------------------------------
  Sum of atomic charges =     0.000000

                    Cartesian Multipole Moments
 -----------------------------------------------------------------
    Charge (ESU x 10^10)
                -0.0000
    Dipole Moment (Debye)
         X       0.0610      Y       0.3884      Z       0.0302
       Tot       0.3943
    Quadrupole Moments (Debye-Ang)
        XX     -39.3763     XY      -0.6321     YY     -38.0926
        XZ      -0.0864     YZ       0.7242     ZZ     -46.4022

 Total job time:  85.64s(wall), 341.27s(cpu)
        *  Thank you very much for using Q-Chem.  Have a nice day.  *
