 Q-Chem 5.0, Q-Chem, Inc., Pleasanton, CA (2017)
 Q-Chem 5.0.1 for Intel X86 EM64T Linux

User input:
--------------------------------------------------------------
$molecule
0  1
C        -0.69482000        -0.99829000        +4.31927000
C        -0.70747000        +0.40419000        +4.44109000
C        -1.89358000        -1.73075000        +4.26064000
C        -3.08990000        -1.01515000        +4.33331000
C        -3.10351000        +0.36796000        +4.45550000
C        -1.92199000        +1.10945000        +4.51426000
H        -4.05392000        +0.88866000        +4.50326000
H        -4.02930000        -1.55670000        +4.29628000
C        -1.98998000        +2.61287000        +4.63455000
H        -1.39252000        +3.10893000        +3.86551000
H        -1.60541000        +2.94968000        +5.59900000
H        -3.02249000        +2.95164000        +4.53254000
H        -1.88916000        -2.75852000        +4.16741000
H        +0.20787000        -1.49625000        +4.27230000
H        +0.18513000        +0.92090000        +4.47713000
@C        -0.54444000        -0.68370000        -0.06689000
@C        -0.55709000        +0.71878000        +0.05493000
@C        -1.74320000        -1.41616000        -0.12552000
@C        -2.93952000        -0.70056000        -0.05285000
@C        -2.95313000        +0.68255000        +0.06934000
@C        -1.77161000        +1.42404000        +0.12810000
@H        -3.90354000        +1.20325000        +0.11710000
@H        -3.87892000        -1.24211000        -0.08988000
@C        -1.83960000        +2.92746000        +0.24839000
@H        -1.24214000        +3.42352000        -0.52065000
@H        -1.45503000        +3.26427000        +1.21284000
@H        -2.87211000        +3.26623000        +0.14638000
@H        -1.73878000        -2.44393000        -0.21875000
@H        +0.35825000        -1.18166000        -0.11386000
@H        +0.33551000        +1.23549000        +0.09097000
$end

$rem
JOBTYPE                   SP
METHOD                    B3LYP
DFT_D                     d3_op
BASIS                     6-311++G(d,p)
SYMMETRY                  False
THRESH                    12
SCF_CONVERGENCE           8
MAX_SUB_FILE_NUM          128
MEM_STATIC                400
MEM_TOTAL                 4000
$end
--------------------------------------------------------------

             Standard Nuclear Orientation (Angstroms)
    I     Atom           X                Y                Z
 ----------------------------------------------------------------
    1      C      -0.6948200000    -0.9982900000     4.3192700000
    2      C      -0.7074700000     0.4041900000     4.4410900000
    3      C      -1.8935800000    -1.7307500000     4.2606400000
    4      C      -3.0899000000    -1.0151500000     4.3333100000
    5      C      -3.1035100000     0.3679600000     4.4555000000
    6      C      -1.9219900000     1.1094500000     4.5142600000
    7      H      -4.0539200000     0.8886600000     4.5032600000
    8      H      -4.0293000000    -1.5567000000     4.2962800000
    9      C      -1.9899800000     2.6128700000     4.6345500000
   10      H      -1.3925200000     3.1089300000     3.8655100000
   11      H      -1.6054100000     2.9496800000     5.5990000000
   12      H      -3.0224900000     2.9516400000     4.5325400000
   13      H      -1.8891600000    -2.7585200000     4.1674100000
   14      H       0.2078700000    -1.4962500000     4.2723000000
   15      H       0.1851300000     0.9209000000     4.4771300000
   16      GH     -0.5444400000    -0.6837000000    -0.0668900000
   17      GH     -0.5570900000     0.7187800000     0.0549300000
   18      GH     -1.7432000000    -1.4161600000    -0.1255200000
   19      GH     -2.9395200000    -0.7005600000    -0.0528500000
   20      GH     -2.9531300000     0.6825500000     0.0693400000
   21      GH     -1.7716100000     1.4240400000     0.1281000000
   22      GH     -3.9035400000     1.2032500000     0.1171000000
   23      GH     -3.8789200000    -1.2421100000    -0.0898800000
   24      GH     -1.8396000000     2.9274600000     0.2483900000
   25      GH     -1.2421400000     3.4235200000    -0.5206500000
   26      GH     -1.4550300000     3.2642700000     1.2128400000
   27      GH     -2.8721100000     3.2662300000     0.1463800000
   28      GH     -1.7387800000    -2.4439300000    -0.2187500000
   29      GH      0.3582500000    -1.1816600000    -0.1138600000
   30      GH      0.3355100000     1.2354900000     0.0909700000
 ----------------------------------------------------------------

   12    -271.6439578010      9.87E-09 Convergence criterion met
 Total energy in the final basis set = -271.64395780

                    Orbital Energies (a.u.)
 --------------------------------------------------------------

 Alpha MOs
 -- Occupied --
-10.185 -10.174 -10.172 -10.171 -10.170 -10.169 -10.169  -0.858
 -0.776  -0.748  -0.691  -0.611  -0.591  -0.521  -0.465  -0.463
 -0.424  -0.423  -0.418  -0.390  -0.358  -0.350  -0.342  -0.255
 -0.248

          Ground-State Mulliken Net Atomic Charges

     Atom                 Charge (a.u.)
  ----------------------------------------
      1 C                    -0.224568
      2 C                    -0.214452
      3 C                    -0.276025
      4 C                    -0.262659
      5 C                    -0.247368
      6 C                     0.659215
      7 H                     0.154902
      8 H                     0.172656
      9 C                    -0.684916
     10 H                     0.157048
     11 H                     0.158527
     12 H                     0.140088
     13 H                     0.145724
     14 H                     0.161550
     15 H                     0.171189
     16 GH                   -0.021284
     17 GH                   -0.009549
     18 GH                    0.013762
     19 GH                   -0.009755
     20 GH                   -0.003665
     21 GH                   -0.000962
     22 GH                    0.001193
     23 GH                    0.001308
     24 GH                    0.017181
     25 GH                   -0.000296
     26 GH                   -0.003261
     27 GH                    0.001940
     28 GH                    0.002778
     29 GH                    0.000487
     30 GH                   -0.000789
  ----------------------------------------
  Sum of atomic charges =    -0.000000

                    Cartesian Multipole Moments
 -----------------------------------------------------------------
    Charge (ESU x 10^10)
                -0.0000
    Dipole Moment (Debye)
         X       0.0625      Y       0.3876      Z       0.0392
       Tot       0.3945
    Quadrupole Moments (Debye-Ang)
        XX     -39.4002     XY      -0.7091     YY     -38.3374
        XZ       0.1743     YZ       2.4099     ZZ     -46.0597

 Total job time:  85.01s(wall), 338.32s(cpu)
        *  Thank you very much for using Q-Chem.  Have a nice day.  *
