 Q-Chem 5.0, Q-Chem, Inc., Pleasanton, CA (2017)
 Q-Chem 5.0.1 for Intel X86 EM64T Linux

User input:
--------------------------------------------------------------
$molecule
0  1
--
0  1
C        -0.54444000        -0.68370000        -0.06689000
C        -0.55709000        +0.71878000        +0.05493000
C        -1.74320000        -1.41616000        -0.12552000
C        -2.93952000        -0.70056000        -0.05285000
C        -2.95313000        +0.68255000        +0.06934000
C        -1.77161000        +1.42404000        +0.12810000
H        -3.90354000        +1.20325000        +0.11710000
H        -3.87892000        -1.24211000        -0.08988000
C        -1.83960000        +2.92746000        +0.24839000
H        -1.24214000        +3.42352000        -0.52065000
H        -1.45503000        +3.26427000        +1.21284000
H        -2.87211000        +3.26623000        +0.14638000
H        -1.73878000        -2.44393000        -0.21875000
H        +0.35825000        -1.18166000        -0.11386000
H        +0.33551000        +1.23549000        +0.09097000
--
0  1
C        -0.51416000        -1.06734000        +4.31625000
C        -0.52681000        +0.33514000        +4.43807000
C        -1.71292000        -1.79980000        +4.25762000
C        -2.90924000        -1.08420000        +4.33029000
C        -2.92285000        +0.29891000        +4.45248000
C        -1.74133000        +1.04040000        +4.51124000
H        -3.87326000        +0.81961000        +4.50024000
H        -3.84864000        -1.62575000        +4.29326000
C        -1.80932000        +2.54382000        +4.63153000
H        -1.21186000        +3.03988000        +3.86249000
H        -1.42475000        +2.88063000        +5.59598000
H        -2.84183000        +2.88259000        +4.52952000
H        -1.70850000        -2.82757000        +4.16439000
H        +0.38853000        -1.56530000        +4.26928000
H        +0.36579000        +0.85185000        +4.47411000
$end

$rem
JOBTYPE                   SP
METHOD                    B3LYP
DFT_D                     d3_op
BASIS                     6-311++G(d,p)
SYMMETRY                  False
THRESH                    12
SCF_CONVERGENCE           8
MAX_SUB_FILE_NUM          128
MEM_STATIC                400
MEM_TOTAL                 4000
$end
--------------------------------------------------------------

             Standard Nuclear Orientation (Angstroms)
    I     Atom           X                Y                Z
 ----------------------------------------------------------------
    1      C       2.1955526343    -1.2321914945     1.1901811465
    2      C       2.1987724234     0.1753363539     1.2185585021
    3      C       2.1973246195    -1.9317394614    -0.0294869100
    4      C       2.1968137010    -1.1779760795    -1.2043853458
    5      C       2.1979526154     0.2103275966    -1.1775430991
    6      C       2.1969730510     0.9193795995     0.0251596761
    7      H       2.2032368419     0.7606693028    -2.1123076466
    8      H       2.1922014544    -1.6930844024    -2.1592477056
    9      C       2.2110618434     2.4288803073     0.0012193406
   10      H       3.0168966394     2.8369844893     0.6164735604
   11      H       1.2776442972     2.8387674293     0.3913771231
   12      H       2.3499493218     2.7871642385    -1.0203436512
   13      H       2.1989407407    -2.9634192675    -0.0551132229
   14      H       2.1918332433    -1.7584329381     2.0779174180
   15      H       2.2024933642     0.6669885952     2.1259101946
   16      C      -2.2044434150    -1.2253010297     1.1899057092
   17      C      -2.2012236258     0.1822268187     1.2182830648
   18      C      -2.2026714297    -1.9248489966    -0.0297623473
   19      C      -2.2031823482    -1.1710856146    -1.2046607831
   20      C      -2.2020434338     0.2172180614    -1.1778185364
   21      C      -2.2030229983     0.9262700644     0.0248842389
   22      H      -2.1967592073     0.7675597676    -2.1125830838
   23      H      -2.2077945948    -1.6861939376    -2.1595231429
   24      C      -2.1889342058     2.4357707722     0.0009439033
   25      H      -1.3830994098     2.8438749541     0.6161981231
   26      H      -3.1223517520     2.8456578941     0.3911016858
   27      H      -2.0500467274     2.7940547033    -1.0206190885
   28      H      -2.2010553085    -2.9565288027    -0.0553886602
   29      H      -2.2081628059    -1.7515424733     2.0776419807
   30      H      -2.1975026851     0.6738790600     2.1256347573
 ----------------------------------------------------------------

   13    -543.2894285365      5.72E-09 Convergence criterion met
 Total energy in the final basis set = -543.28942854

                    Orbital Energies (a.u.)
 --------------------------------------------------------------

 Alpha MOs
 -- Occupied --
-10.181 -10.181 -10.170 -10.169 -10.168 -10.168 -10.168 -10.168
-10.167 -10.167 -10.165 -10.165 -10.165 -10.165  -0.854  -0.854
 -0.773  -0.772  -0.743  -0.743  -0.689  -0.688  -0.607  -0.607
 -0.587  -0.587  -0.518  -0.517  -0.462  -0.461  -0.459  -0.459
 -0.426  -0.419  -0.419  -0.418  -0.415  -0.414  -0.388  -0.387
 -0.357  -0.349  -0.347  -0.347  -0.339  -0.338  -0.254  -0.247
 -0.246  -0.239

          Ground-State Mulliken Net Atomic Charges

     Atom                 Charge (a.u.)
  ----------------------------------------
      1 C                    -0.194556
      2 C                    -0.294566
      3 C                    -0.221878
      4 C                    -0.292322
      5 C                    -0.276736
      6 C                     0.728695
      7 H                     0.151848
      8 H                     0.163390
      9 C                    -0.679597
     10 H                     0.147021
     11 H                     0.156346
     12 H                     0.142231
     13 H                     0.145854
     14 H                     0.156947
     15 H                     0.164670
     16 C                    -0.245754
     17 C                    -0.187068
     18 C                    -0.261840
     19 C                    -0.255883
     20 C                    -0.264316
     21 C                     0.658314
     22 H                     0.149863
     23 H                     0.170093
     24 C                    -0.668500
     25 H                     0.141288
     26 H                     0.156872
     27 H                     0.138255
     28 H                     0.143210
     29 H                     0.159332
     30 H                     0.168787
  ----------------------------------------
  Sum of atomic charges =    -0.000000

                    Cartesian Multipole Moments
 -----------------------------------------------------------------
    Charge (ESU x 10^10)
                -0.0000
    Dipole Moment (Debye)
         X      -0.0087      Y       0.6103      Z       0.1206
       Tot       0.6221
    Quadrupole Moments (Debye-Ang)
        XX     -94.0973     XY       0.0485     YY     -77.4094
        XZ      -0.0313     YZ       0.0320     ZZ     -78.5467

 Total job time:  96.26s(wall), 383.85s(cpu)
        *  Thank you very much for using Q-Chem.  Have a nice day.  *
