 Q-Chem 5.0, Q-Chem, Inc., Pleasanton, CA (2017)
 Q-Chem 5.0.1 for Intel X86 EM64T Linux

User input:
--------------------------------------------------------------
$molecule
0  1
--
0  1
C        -0.54444000        -0.68370000        -0.06689000
C        -0.55709000        +0.71878000        +0.05493000
C        -1.74320000        -1.41616000        -0.12552000
C        -2.93952000        -0.70056000        -0.05285000
C        -2.95313000        +0.68255000        +0.06934000
C        -1.77161000        +1.42404000        +0.12810000
H        -3.90354000        +1.20325000        +0.11710000
H        -3.87892000        -1.24211000        -0.08988000
C        -1.83960000        +2.92746000        +0.24839000
H        -1.24214000        +3.42352000        -0.52065000
H        -1.45503000        +3.26427000        +1.21284000
H        -2.87211000        +3.26623000        +0.14638000
H        -1.73878000        -2.44393000        -0.21875000
H        +0.35825000        -1.18166000        -0.11386000
H        +0.33551000        +1.23549000        +0.09097000
--
0  1
C        -0.73925000        -1.09124000        +5.61518000
C        -0.75190000        +0.31124000        +5.73700000
C        -1.93801000        -1.82370000        +5.55655000
C        -3.13433000        -1.10810000        +5.62922000
C        -3.14794000        +0.27501000        +5.75141000
C        -1.96642000        +1.01650000        +5.81017000
H        -4.09835000        +0.79571000        +5.79917000
H        -4.07373000        -1.64965000        +5.59219000
C        -2.03441000        +2.51992000        +5.93046000
H        -1.43695000        +3.01598000        +5.16142000
H        -1.64984000        +2.85673000        +6.89491000
H        -3.06692000        +2.85869000        +5.82845000
H        -1.93359000        -2.85147000        +5.46332000
H        +0.16344000        -1.58920000        +5.56821000
H        +0.14070000        +0.82795000        +5.77304000
$end

$rem
JOBTYPE                   SP
METHOD                    B3LYP
DFT_D                     d3_op
BASIS                     6-311++G(d,p)
SYMMETRY                  False
THRESH                    12
SCF_CONVERGENCE           8
MAX_SUB_FILE_NUM          128
MEM_STATIC                400
MEM_TOTAL                 4000
$end
--------------------------------------------------------------

             Standard Nuclear Orientation (Angstroms)
    I     Atom           X                Y                Z
 ----------------------------------------------------------------
    1      C       2.9313209597    -1.2086684102     1.1724214305
    2      C       2.9010260775     0.1985520873     1.2000434666
    3      C       2.8935607521    -1.9098626939    -0.0457170712
    4      C       2.8196415614    -1.1581773351    -1.2196212010
    5      C       2.7876729097     0.2297710817    -1.1934277315
    6      C       2.8251985791     0.9404595743     0.0077231162
    7      H       2.7357662170     0.7786151768    -2.1276464052
    8      H       2.7832826852    -1.6747327093    -2.1730196282
    9      C       2.8007957644     2.4498084836    -0.0174640431
   10      H       3.6240818420     2.8786536233     0.5593794170
   11      H       1.8767179909     2.8371224265     0.4156260647
   12      H       2.8830139499     2.8098183123    -1.0445381136
   13      H       2.9195117460    -2.9412265396    -0.0709699072
   14      H       2.9820021699    -1.7334544021     2.0595801853
   15      H       2.9348611674     0.6915623658     2.1060340393
   16      C      -2.7684605360    -1.2445746094     1.2064936925
   17      C      -2.7987554182     0.1626458881     1.2341157286
   18      C      -2.8062207436    -1.9457688931    -0.0116448093
   19      C      -2.8801399343    -1.1940835343    -1.1855489390
   20      C      -2.9121085860     0.1938648825    -1.1593554695
   21      C      -2.8745829166     0.9045533750     0.0417953781
   22      H      -2.9640152786     0.7427089776    -2.0935741432
   23      H      -2.9164988105    -1.7106389085    -2.1389473662
   24      C      -2.8989857312     2.4139022844     0.0166082188
   25      H      -2.0756996537     2.8427474241     0.5934516790
   26      H      -3.8230635048     2.8012162273     0.4496983267
   27      H      -2.8167675458     2.7739121131    -1.0104658517
   28      H      -2.7802697496    -2.9771327389    -0.0368976452
   29      H      -2.7177793258    -1.7693606013     2.0936524473
   30      H      -2.7649203283     0.6556561665     2.1401063013
 ----------------------------------------------------------------

   13    -543.2874398244      5.30E-09 Convergence criterion met
 Total energy in the final basis set = -543.28743982

                    Orbital Energies (a.u.)
 --------------------------------------------------------------

 Alpha MOs
 -- Occupied --
-10.183 -10.183 -10.171 -10.171 -10.169 -10.169 -10.168 -10.168
-10.168 -10.168 -10.167 -10.167 -10.167 -10.167  -0.856  -0.855
 -0.774  -0.773  -0.745  -0.745  -0.689  -0.689  -0.609  -0.609
 -0.588  -0.588  -0.519  -0.519  -0.463  -0.463  -0.460  -0.460
 -0.423  -0.422  -0.421  -0.421  -0.416  -0.416  -0.388  -0.388
 -0.355  -0.354  -0.348  -0.348  -0.340  -0.340  -0.252  -0.251
 -0.245  -0.244

          Ground-State Mulliken Net Atomic Charges

     Atom                 Charge (a.u.)
  ----------------------------------------
      1 C                    -0.025566
      2 C                    -0.427440
      3 C                    -0.337695
      4 C                    -0.062691
      5 C                    -0.722943
      6 C                     0.982705
      7 H                     0.136243
      8 H                     0.169135
      9 C                    -0.625270
     10 H                     0.146266
     11 H                     0.154052
     12 H                     0.146649
     13 H                     0.147402
     14 H                     0.158606
     15 H                     0.159857
     16 C                    -0.086481
     17 C                    -0.370383
     18 C                    -0.306902
     19 C                    -0.136897
     20 C                    -0.620327
     21 C                     0.921786
     22 H                     0.137633
     23 H                     0.169939
     24 C                    -0.626540
     25 H                     0.147648
     26 H                     0.158168
     27 H                     0.147237
     28 H                     0.147750
     29 H                     0.159006
     30 H                     0.159052
  ----------------------------------------
  Sum of atomic charges =     0.000000

                    Cartesian Multipole Moments
 -----------------------------------------------------------------
    Charge (ESU x 10^10)
                -0.0000
    Dipole Moment (Debye)
         X      -0.0157      Y       0.6847      Z       0.1341
       Tot       0.6979
    Quadrupole Moments (Debye-Ang)
        XX     -93.7952     XY      -0.3369     YY     -77.0622
        XZ       0.6262     YZ       0.0780     ZZ     -78.3899

 Total job time:  83.20s(wall), 330.79s(cpu)
        *  Thank you very much for using Q-Chem.  Have a nice day.  *
