 Q-Chem 5.0, Q-Chem, Inc., Pleasanton, CA (2017)
 Q-Chem 5.0.1 for Intel X86 EM64T Linux

User input:
--------------------------------------------------------------
$molecule
0  1
C        -0.54444000        -0.68370000        -0.06689000
C        -0.55709000        +0.71878000        +0.05493000
C        -1.74320000        -1.41616000        -0.12552000
C        -2.93952000        -0.70056000        -0.05285000
C        -2.95313000        +0.68255000        +0.06934000
C        -1.77161000        +1.42404000        +0.12810000
H        -3.90354000        +1.20325000        +0.11710000
H        -3.87892000        -1.24211000        -0.08988000
C        -1.83960000        +2.92746000        +0.24839000
H        -1.24214000        +3.42352000        -0.52065000
H        -1.45503000        +3.26427000        +1.21284000
H        -2.87211000        +3.26623000        +0.14638000
H        -1.73878000        -2.44393000        -0.21875000
H        +0.35825000        -1.18166000        -0.11386000
H        +0.33551000        +1.23549000        +0.09097000
@C        -0.73925000        -1.09124000        +5.61518000
@C        -0.75190000        +0.31124000        +5.73700000
@C        -1.93801000        -1.82370000        +5.55655000
@C        -3.13433000        -1.10810000        +5.62922000
@C        -3.14794000        +0.27501000        +5.75141000
@C        -1.96642000        +1.01650000        +5.81017000
@H        -4.09835000        +0.79571000        +5.79917000
@H        -4.07373000        -1.64965000        +5.59219000
@C        -2.03441000        +2.51992000        +5.93046000
@H        -1.43695000        +3.01598000        +5.16142000
@H        -1.64984000        +2.85673000        +6.89491000
@H        -3.06692000        +2.85869000        +5.82845000
@H        -1.93359000        -2.85147000        +5.46332000
@H        +0.16344000        -1.58920000        +5.56821000
@H        +0.14070000        +0.82795000        +5.77304000
$end

$rem
JOBTYPE                   SP
METHOD                    B3LYP
DFT_D                     d3_op
BASIS                     6-311++G(d,p)
SYMMETRY                  False
THRESH                    12
SCF_CONVERGENCE           8
MAX_SUB_FILE_NUM          128
MEM_STATIC                400
MEM_TOTAL                 4000
$end
--------------------------------------------------------------

             Standard Nuclear Orientation (Angstroms)
    I     Atom           X                Y                Z
 ----------------------------------------------------------------
    1      C      -0.5444400000    -0.6837000000    -0.0668900000
    2      C      -0.5570900000     0.7187800000     0.0549300000
    3      C      -1.7432000000    -1.4161600000    -0.1255200000
    4      C      -2.9395200000    -0.7005600000    -0.0528500000
    5      C      -2.9531300000     0.6825500000     0.0693400000
    6      C      -1.7716100000     1.4240400000     0.1281000000
    7      H      -3.9035400000     1.2032500000     0.1171000000
    8      H      -3.8789200000    -1.2421100000    -0.0898800000
    9      C      -1.8396000000     2.9274600000     0.2483900000
   10      H      -1.2421400000     3.4235200000    -0.5206500000
   11      H      -1.4550300000     3.2642700000     1.2128400000
   12      H      -2.8721100000     3.2662300000     0.1463800000
   13      H      -1.7387800000    -2.4439300000    -0.2187500000
   14      H       0.3582500000    -1.1816600000    -0.1138600000
   15      H       0.3355100000     1.2354900000     0.0909700000
   16      GH     -0.7392500000    -1.0912400000     5.6151800000
   17      GH     -0.7519000000     0.3112400000     5.7370000000
   18      GH     -1.9380100000    -1.8237000000     5.5565500000
   19      GH     -3.1343300000    -1.1081000000     5.6292200000
   20      GH     -3.1479400000     0.2750100000     5.7514100000
   21      GH     -1.9664200000     1.0165000000     5.8101700000
   22      GH     -4.0983500000     0.7957100000     5.7991700000
   23      GH     -4.0737300000    -1.6496500000     5.5921900000
   24      GH     -2.0344100000     2.5199200000     5.9304600000
   25      GH     -1.4369500000     3.0159800000     5.1614200000
   26      GH     -1.6498400000     2.8567300000     6.8949100000
   27      GH     -3.0669200000     2.8586900000     5.8284500000
   28      GH     -1.9335900000    -2.8514700000     5.4633200000
   29      GH      0.1634400000    -1.5892000000     5.5682100000
   30      GH      0.1407000000     0.8279500000     5.7730400000
 ----------------------------------------------------------------

   12    -271.6436020520      9.62E-09 Convergence criterion met
 Total energy in the final basis set = -271.64360205

                    Orbital Energies (a.u.)
 --------------------------------------------------------------

 Alpha MOs
 -- Occupied --
-10.185 -10.174 -10.172 -10.171 -10.170 -10.169 -10.169  -0.858
 -0.776  -0.747  -0.691  -0.611  -0.591  -0.521  -0.465  -0.462
 -0.424  -0.423  -0.418  -0.390  -0.358  -0.350  -0.342  -0.255
 -0.247

          Ground-State Mulliken Net Atomic Charges

     Atom                 Charge (a.u.)
  ----------------------------------------
      1 C                    -0.025551
      2 C                    -0.426518
      3 C                    -0.345696
      4 C                    -0.060584
      5 C                    -0.716331
      6 C                     0.967428
      7 H                     0.138962
      8 H                     0.171318
      9 C                    -0.622343
     10 H                     0.146941
     11 H                     0.157529
     12 H                     0.146917
     13 H                     0.148562
     14 H                     0.161138
     15 H                     0.162317
     16 GH                   -0.001652
     17 GH                    0.005873
     18 GH                    0.006016
     19 GH                   -0.004920
     20 GH                   -0.009078
     21 GH                    0.000687
     22 GH                   -0.000839
     23 GH                   -0.000381
     24 GH                   -0.000064
     25 GH                    0.000189
     26 GH                   -0.000062
     27 GH                    0.000492
     28 GH                    0.000478
     29 GH                   -0.000407
     30 GH                   -0.000424
  ----------------------------------------
  Sum of atomic charges =     0.000000

                    Cartesian Multipole Moments
 -----------------------------------------------------------------
    Charge (ESU x 10^10)
                 0.0000
    Dipole Moment (Debye)
         X       0.0619      Y       0.3871      Z       0.0408
       Tot       0.3942
    Quadrupole Moments (Debye-Ang)
        XX     -39.3516     XY      -0.6302     YY     -38.0705
        XZ      -0.1027     YZ       0.7286     ZZ     -46.4105

 Total job time:  72.80s(wall), 289.49s(cpu)
        *  Thank you very much for using Q-Chem.  Have a nice day.  *
