 Q-Chem 5.0, Q-Chem, Inc., Pleasanton, CA (2017)
 Q-Chem 5.0.1 for Intel X86 EM64T Linux

User input:
--------------------------------------------------------------
$molecule
0  1
--
0  1
C        -0.54444000        -0.68370000        -0.06689000
C        -0.55709000        +0.71878000        +0.05493000
C        -1.74320000        -1.41616000        -0.12552000
C        -2.93952000        -0.70056000        -0.05285000
C        -2.95313000        +0.68255000        +0.06934000
C        -1.77161000        +1.42404000        +0.12810000
H        -3.90354000        +1.20325000        +0.11710000
H        -3.87892000        -1.24211000        -0.08988000
C        -1.83960000        +2.92746000        +0.24839000
H        -1.24214000        +3.42352000        -0.52065000
H        -1.45503000        +3.26427000        +1.21284000
H        -2.87211000        +3.26623000        +0.14638000
H        -1.73878000        -2.44393000        -0.21875000
H        +0.35825000        -1.18166000        -0.11386000
H        +0.33551000        +1.23549000        +0.09097000
--
0  1
C        -0.50522000        -1.18069000        +5.61127000
C        -0.51787000        +0.22179000        +5.73309000
C        -1.70398000        -1.91315000        +5.55264000
C        -2.90030000        -1.19755000        +5.62531000
C        -2.91391000        +0.18556000        +5.74750000
C        -1.73239000        +0.92705000        +5.80626000
H        -3.86432000        +0.70626000        +5.79526000
H        -3.83970000        -1.73910000        +5.58828000
C        -1.80038000        +2.43047000        +5.92655000
H        -1.20292000        +2.92653000        +5.15751000
H        -1.41581000        +2.76728000        +6.89100000
H        -2.83289000        +2.76924000        +5.82454000
H        -1.69956000        -2.94092000        +5.45941000
H        +0.39747000        -1.67865000        +5.56430000
H        +0.37473000        +0.73850000        +5.76913000
$end

$rem
JOBTYPE                   SP
METHOD                    B3LYP
DFT_D                     d3_op
BASIS                     6-311++G(d,p)
SYMMETRY                  False
THRESH                    12
SCF_CONVERGENCE           8
MAX_SUB_FILE_NUM          128
MEM_STATIC                400
MEM_TOTAL                 4000
$end
--------------------------------------------------------------

             Standard Nuclear Orientation (Angstroms)
    I     Atom           X                Y                Z
 ----------------------------------------------------------------
    1      C       2.8466906104    -1.2306635357     1.1901385390
    2      C       2.8486525196     0.1768666262     1.2185159877
    3      C       2.8490511871    -1.9302095060    -0.0295296656
    4      C       2.8478305362    -1.1764467549    -1.2044279831
    5      C       2.8477287170     0.2118573816    -1.1775855828
    6      C       2.8461515465     0.9209080945     0.0251173178
    7      H       2.8524924130     0.7622036947    -2.1123502155
    8      H       2.8436499757    -1.6915588930    -2.1592902724
    9      C       2.8588896739     2.4304208008     0.0011767595
   10      H       3.6643778515     2.8392454037     0.6164065837
   11      H       1.9251177812     2.8394729695     0.3913629191
   12      H       2.9974256903     2.7888289053    -1.0203903974
   13      H       2.8515891522    -2.9618874515    -0.0551561674
   14      H       2.8434687697    -1.7569081914     2.0778748516
   15      H       2.8519613096     0.6685219001     2.1258676336
   16      C      -2.8533114571    -1.2268362148     1.1899482522
   17      C      -2.8513495479     0.1806939471     1.2183257009
   18      C      -2.8509508804    -1.9263821850    -0.0297199524
   19      C      -2.8521715313    -1.1726194340    -1.2046182699
   20      C      -2.8522733505     0.2156847025    -1.1777758696
   21      C      -2.8538505210     0.9247354155     0.0249270310
   22      H      -2.8475096545     0.7660310156    -2.1125405023
   23      H      -2.8563520918    -1.6877315720    -2.1594805592
   24      C      -2.8411123936     2.4342481218     0.0009864726
   25      H      -2.0356242160     2.8430727247     0.6162162969
   26      H      -3.7748842863     2.8433002905     0.3911726323
   27      H      -2.7025763772     2.7926562263    -1.0205806842
   28      H      -2.8484129153    -2.9580601305    -0.0553464542
   29      H      -2.8565332978    -1.7530808705     2.0776845648
   30      H      -2.8480407579     0.6723492210     2.1256773468
 ----------------------------------------------------------------

   13    -543.2874478484      4.95E-09 Convergence criterion met
 Total energy in the final basis set = -543.28744785

                    Orbital Energies (a.u.)
 --------------------------------------------------------------

 Alpha MOs
 -- Occupied --
-10.183 -10.183 -10.171 -10.171 -10.170 -10.169 -10.168 -10.168
-10.168 -10.168 -10.167 -10.167 -10.167 -10.167  -0.856  -0.855
 -0.774  -0.773  -0.745  -0.745  -0.689  -0.689  -0.609  -0.609
 -0.588  -0.588  -0.519  -0.519  -0.463  -0.463  -0.460  -0.460
 -0.423  -0.422  -0.421  -0.421  -0.416  -0.416  -0.388  -0.388
 -0.355  -0.354  -0.348  -0.348  -0.340  -0.340  -0.252  -0.251
 -0.245  -0.244

          Ground-State Mulliken Net Atomic Charges

     Atom                 Charge (a.u.)
  ----------------------------------------
      1 C                    -0.027836
      2 C                    -0.423865
      3 C                    -0.334498
      4 C                    -0.065058
      5 C                    -0.721556
      6 C                     0.973649
      7 H                     0.136794
      8 H                     0.169055
      9 C                    -0.619992
     10 H                     0.146534
     11 H                     0.154388
     12 H                     0.146551
     13 H                     0.147402
     14 H                     0.158395
     15 H                     0.159556
     16 C                    -0.083993
     17 C                    -0.385502
     18 C                    -0.307596
     19 C                    -0.137199
     20 C                    -0.609048
     21 C                     0.924249
     22 H                     0.137911
     23 H                     0.169394
     24 C                    -0.626255
     25 H                     0.147773
     26 H                     0.158052
     27 H                     0.146612
     28 H                     0.147722
     29 H                     0.159401
     30 H                     0.158959
  ----------------------------------------
  Sum of atomic charges =    -0.000000

                    Cartesian Multipole Moments
 -----------------------------------------------------------------
    Charge (ESU x 10^10)
                -0.0000
    Dipole Moment (Debye)
         X      -0.0042      Y       0.6845      Z       0.1347
       Tot       0.6977
    Quadrupole Moments (Debye-Ang)
        XX     -93.8310     XY       0.0384     YY     -77.0555
        XZ      -0.0302     YZ       0.0653     ZZ     -78.3598

 Total job time:  82.74s(wall), 329.70s(cpu)
        *  Thank you very much for using Q-Chem.  Have a nice day.  *
