 Q-Chem 5.0, Q-Chem, Inc., Pleasanton, CA (2017)
 Q-Chem 5.0.1 for Intel X86 EM64T Linux

User input:
--------------------------------------------------------------
$molecule
0  1
C        -0.54444000        -0.68370000        -0.06689000
C        -0.55709000        +0.71878000        +0.05493000
C        -1.74320000        -1.41616000        -0.12552000
C        -2.93952000        -0.70056000        -0.05285000
C        -2.95313000        +0.68255000        +0.06934000
C        -1.77161000        +1.42404000        +0.12810000
H        -3.90354000        +1.20325000        +0.11710000
H        -3.87892000        -1.24211000        -0.08988000
C        -1.83960000        +2.92746000        +0.24839000
H        -1.24214000        +3.42352000        -0.52065000
H        -1.45503000        +3.26427000        +1.21284000
H        -2.87211000        +3.26623000        +0.14638000
H        -1.73878000        -2.44393000        -0.21875000
H        +0.35825000        -1.18166000        -0.11386000
H        +0.33551000        +1.23549000        +0.09097000
@C        -0.50522000        -1.18069000        +5.61127000
@C        -0.51787000        +0.22179000        +5.73309000
@C        -1.70398000        -1.91315000        +5.55264000
@C        -2.90030000        -1.19755000        +5.62531000
@C        -2.91391000        +0.18556000        +5.74750000
@C        -1.73239000        +0.92705000        +5.80626000
@H        -3.86432000        +0.70626000        +5.79526000
@H        -3.83970000        -1.73910000        +5.58828000
@C        -1.80038000        +2.43047000        +5.92655000
@H        -1.20292000        +2.92653000        +5.15751000
@H        -1.41581000        +2.76728000        +6.89100000
@H        -2.83289000        +2.76924000        +5.82454000
@H        -1.69956000        -2.94092000        +5.45941000
@H        +0.39747000        -1.67865000        +5.56430000
@H        +0.37473000        +0.73850000        +5.76913000
$end

$rem
JOBTYPE                   SP
METHOD                    B3LYP
DFT_D                     d3_op
BASIS                     6-311++G(d,p)
SYMMETRY                  False
THRESH                    12
SCF_CONVERGENCE           8
MAX_SUB_FILE_NUM          128
MEM_STATIC                400
MEM_TOTAL                 4000
$end
--------------------------------------------------------------

             Standard Nuclear Orientation (Angstroms)
    I     Atom           X                Y                Z
 ----------------------------------------------------------------
    1      C      -0.5444400000    -0.6837000000    -0.0668900000
    2      C      -0.5570900000     0.7187800000     0.0549300000
    3      C      -1.7432000000    -1.4161600000    -0.1255200000
    4      C      -2.9395200000    -0.7005600000    -0.0528500000
    5      C      -2.9531300000     0.6825500000     0.0693400000
    6      C      -1.7716100000     1.4240400000     0.1281000000
    7      H      -3.9035400000     1.2032500000     0.1171000000
    8      H      -3.8789200000    -1.2421100000    -0.0898800000
    9      C      -1.8396000000     2.9274600000     0.2483900000
   10      H      -1.2421400000     3.4235200000    -0.5206500000
   11      H      -1.4550300000     3.2642700000     1.2128400000
   12      H      -2.8721100000     3.2662300000     0.1463800000
   13      H      -1.7387800000    -2.4439300000    -0.2187500000
   14      H       0.3582500000    -1.1816600000    -0.1138600000
   15      H       0.3355100000     1.2354900000     0.0909700000
   16      GH     -0.5052200000    -1.1806900000     5.6112700000
   17      GH     -0.5178700000     0.2217900000     5.7330900000
   18      GH     -1.7039800000    -1.9131500000     5.5526400000
   19      GH     -2.9003000000    -1.1975500000     5.6253100000
   20      GH     -2.9139100000     0.1855600000     5.7475000000
   21      GH     -1.7323900000     0.9270500000     5.8062600000
   22      GH     -3.8643200000     0.7062600000     5.7952600000
   23      GH     -3.8397000000    -1.7391000000     5.5882800000
   24      GH     -1.8003800000     2.4304700000     5.9265500000
   25      GH     -1.2029200000     2.9265300000     5.1575100000
   26      GH     -1.4158100000     2.7672800000     6.8910000000
   27      GH     -2.8328900000     2.7692400000     5.8245400000
   28      GH     -1.6995600000    -2.9409200000     5.4594100000
   29      GH      0.3974700000    -1.6786500000     5.5643000000
   30      GH      0.3747300000     0.7385000000     5.7691300000
 ----------------------------------------------------------------

   12    -271.6436027158      9.62E-09 Convergence criterion met
 Total energy in the final basis set = -271.64360272

                    Orbital Energies (a.u.)
 --------------------------------------------------------------

 Alpha MOs
 -- Occupied --
-10.185 -10.174 -10.172 -10.171 -10.170 -10.169 -10.169  -0.858
 -0.776  -0.747  -0.691  -0.611  -0.591  -0.521  -0.465  -0.462
 -0.424  -0.423  -0.418  -0.390  -0.358  -0.350  -0.342  -0.255
 -0.247

          Ground-State Mulliken Net Atomic Charges

     Atom                 Charge (a.u.)
  ----------------------------------------
      1 C                    -0.029445
      2 C                    -0.424510
      3 C                    -0.343017
      4 C                    -0.061981
      5 C                    -0.713929
      6 C                     0.960602
      7 H                     0.139445
      8 H                     0.171313
      9 C                    -0.617557
     10 H                     0.147126
     11 H                     0.157826
     12 H                     0.146787
     13 H                     0.148532
     14 H                     0.160845
     15 H                     0.162172
     16 GH                   -0.001914
     17 GH                    0.007211
     18 GH                    0.005811
     19 GH                   -0.004518
     20 GH                   -0.010022
     21 GH                    0.001127
     22 GH                   -0.000910
     23 GH                   -0.000317
     24 GH                   -0.000879
     25 GH                    0.000087
     26 GH                   -0.000065
     27 GH                    0.000593
     28 GH                    0.000443
     29 GH                   -0.000461
     30 GH                   -0.000394
  ----------------------------------------
  Sum of atomic charges =     0.000000

                    Cartesian Multipole Moments
 -----------------------------------------------------------------
    Charge (ESU x 10^10)
                 0.0000
    Dipole Moment (Debye)
         X       0.0623      Y       0.3869      Z       0.0408
       Tot       0.3940
    Quadrupole Moments (Debye-Ang)
        XX     -39.3530     XY      -0.6299     YY     -38.0711
        XZ      -0.1022     YZ       0.7283     ZZ     -46.4105

 Total job time:  72.66s(wall), 289.51s(cpu)
        *  Thank you very much for using Q-Chem.  Have a nice day.  *
