 Q-Chem 5.0, Q-Chem, Inc., Pleasanton, CA (2017)
 Q-Chem 5.0.1 for Intel X86 EM64T Linux

User input:
--------------------------------------------------------------
$molecule
0  1
--
0  1
C        -0.54444000        -0.68370000        -0.06689000
C        -0.55709000        +0.71878000        +0.05493000
C        -1.74320000        -1.41616000        -0.12552000
C        -2.93952000        -0.70056000        -0.05285000
C        -2.95313000        +0.68255000        +0.06934000
C        -1.77161000        +1.42404000        +0.12810000
H        -3.90354000        +1.20325000        +0.11710000
H        -3.87892000        -1.24211000        -0.08988000
C        -1.83960000        +2.92746000        +0.24839000
H        -1.24214000        +3.42352000        -0.52065000
H        -1.45503000        +3.26427000        +1.21284000
H        -2.87211000        +3.26623000        +0.14638000
H        -1.73878000        -2.44393000        -0.21875000
H        +0.35825000        -1.18166000        -0.11386000
H        +0.33551000        +1.23549000        +0.09097000
--
0  1
C        -0.69482000        -0.99829000        +4.31927000
C        -0.70747000        +0.40419000        +4.44109000
C        -1.89358000        -1.73075000        +4.26064000
C        -3.08990000        -1.01515000        +4.33331000
C        -3.10351000        +0.36796000        +4.45550000
C        -1.92199000        +1.10945000        +4.51426000
H        -4.05392000        +0.88866000        +4.50326000
H        -4.02930000        -1.55670000        +4.29628000
C        -1.98998000        +2.61287000        +4.63455000
H        -1.39252000        +3.10893000        +3.86551000
H        -1.60541000        +2.94968000        +5.59900000
H        -3.02249000        +2.95164000        +4.53254000
H        -1.88916000        -2.75852000        +4.16741000
H        +0.20787000        -1.49625000        +4.27230000
H        +0.18513000        +0.92090000        +4.47713000
$end

$rem
JOBTYPE                   SP
METHOD                    B3LYP
DFT_D                     d3_op
BASIS                     6-311++G(d,p)
SYMMETRY                  False
THRESH                    12
SCF_CONVERGENCE           8
MAX_SUB_FILE_NUM          128
MEM_STATIC                400
MEM_TOTAL                 4000
$end
--------------------------------------------------------------

             Standard Nuclear Orientation (Angstroms)
    I     Atom           X                Y                Z
 ----------------------------------------------------------------
    1      C       2.2974779693    -1.1933497528     1.1647088297
    2      C       2.2555338759     0.2135734304     1.1922430811
    3      C       2.2593012465    -1.8950998074    -0.0530966001
    4      C       2.1730198058    -1.1443146769    -1.2267332696
    5      C       2.1295561543     0.2433227675    -1.2006155719
    6      C       2.1673309979     0.9545610506     0.0002019971
    7      H       2.0682246753     0.7915101611    -2.1346486050
    8      H       2.1360650139    -1.6613631931    -2.1798414265
    9      C       2.1301498895     2.4636469864    -0.0251204073
   10      H       2.9527829369     2.8995009101     0.5473852462
   11      H       1.2051089855     2.8432977409     0.4126734871
   12      H       2.2040395047     2.8241105427    -1.0526681689
   13      H       2.2937639833    -2.9262154307    -0.0783044030
   14      H       2.3571392177    -1.7175003561     2.0516847364
   15      H       2.2899173440     0.7070462557     2.0979611462
   16      C      -2.1017724825    -1.2579268175     1.2137580151
   17      C      -2.1437165759     0.1489963657     1.2412922664
   18      C      -2.1399492053    -1.9596768721    -0.0040474147
   19      C      -2.2262306461    -1.2088917416    -1.1776840843
   20      C      -2.2696942976     0.1787457028    -1.1515663866
   21      C      -2.2319194539     0.8899839859     0.0492511824
   22      H      -2.3310257766     0.7269330964    -2.0855994197
   23      H      -2.2631854380    -1.7259402578    -2.1307922411
   24      C      -2.2691005624     2.3990699217     0.0239287781
   25      H      -1.4464675150     2.8349238454     0.5964344316
   26      H      -3.1941414664     2.7787206763     0.4617226725
   27      H      -2.1952109472     2.7595334781    -1.0036189835
   28      H      -2.1054864686    -2.9907924954    -0.0292552176
   29      H      -2.0421112341    -1.7820774208     2.1007339218
   30      H      -2.1093331079     0.6424691910     2.1470103316
 ----------------------------------------------------------------

   13    -543.2894353238      8.62E-09 Convergence criterion met
 Total energy in the final basis set = -543.28943532

                    Orbital Energies (a.u.)
 --------------------------------------------------------------

 Alpha MOs
 -- Occupied --
-10.181 -10.181 -10.170 -10.169 -10.168 -10.168 -10.168 -10.168
-10.167 -10.167 -10.165 -10.165 -10.165 -10.165  -0.854  -0.854
 -0.773  -0.772  -0.743  -0.743  -0.689  -0.688  -0.607  -0.607
 -0.587  -0.587  -0.518  -0.517  -0.462  -0.461  -0.459  -0.459
 -0.426  -0.419  -0.419  -0.418  -0.415  -0.414  -0.388  -0.387
 -0.357  -0.349  -0.347  -0.347  -0.339  -0.338  -0.254  -0.247
 -0.246  -0.240

          Ground-State Mulliken Net Atomic Charges

     Atom                 Charge (a.u.)
  ----------------------------------------
      1 C                    -0.216234
      2 C                    -0.267328
      3 C                    -0.234079
      4 C                    -0.266841
      5 C                    -0.280795
      6 C                     0.728352
      7 H                     0.150224
      8 H                     0.164497
      9 C                    -0.692508
     10 H                     0.146599
     11 H                     0.153753
     12 H                     0.142837
     13 H                     0.145925
     14 H                     0.156626
     15 H                     0.164733
     16 C                    -0.221850
     17 C                    -0.206610
     18 C                    -0.252820
     19 C                    -0.279862
     20 C                    -0.273396
     21 C                     0.670521
     22 H                     0.149613
     23 H                     0.169906
     24 C                    -0.663494
     25 H                     0.144875
     26 H                     0.157148
     27 H                     0.139098
     28 H                     0.143083
     29 H                     0.159531
     30 H                     0.168498
  ----------------------------------------
  Sum of atomic charges =    -0.000000

                    Cartesian Multipole Moments
 -----------------------------------------------------------------
    Charge (ESU x 10^10)
                -0.0000
    Dipole Moment (Debye)
         X      -0.0229      Y       0.6108      Z       0.1194
       Tot       0.6227
    Quadrupole Moments (Debye-Ang)
        XX     -94.0439     XY      -0.4687     YY     -77.4221
        XZ       0.6864     YZ       0.0508     ZZ     -78.5854

 Total job time:  97.05s(wall), 386.37s(cpu)
        *  Thank you very much for using Q-Chem.  Have a nice day.  *
