 Q-Chem 5.0, Q-Chem, Inc., Pleasanton, CA (2017)
 Q-Chem 5.0.1 for Intel X86 EM64T Linux

User input:
--------------------------------------------------------------
$molecule
0  1
--
0  1
C        -0.54444000        -0.68370000        -0.06689000
C        -0.55709000        +0.71878000        +0.05493000
C        -1.74320000        -1.41616000        -0.12552000
C        -2.93952000        -0.70056000        -0.05285000
C        -2.95313000        +0.68255000        +0.06934000
C        -1.77161000        +1.42404000        +0.12810000
H        -3.90354000        +1.20325000        +0.11710000
H        -3.87892000        -1.24211000        -0.08988000
C        -1.83960000        +2.92746000        +0.24839000
C        -1.78103000        -2.92226000        -0.24590000
H        -1.39752000        -3.25223000        -1.21323000
H        -2.80572000        -3.28175000        -0.13627000
H        -1.16958000        -3.40777000        +0.51926000
H        -1.24214000        +3.42352000        -0.52065000
H        -1.45503000        +3.26427000        +1.21284000
H        -2.87211000        +3.26623000        +0.14638000
H        +0.35825000        -1.18166000        -0.11386000
H        +0.33551000        +1.23549000        +0.09097000
--
0  1
C        -1.88538000        +0.04314000        +4.06029000
C        -1.89803000        +1.44562000        +4.18211000
C        -3.08414000        -0.68932000        +4.00166000
C        -4.28046000        +0.02628000        +4.07433000
C        -4.29407000        +1.40939000        +4.19652000
C        -3.11255000        +2.15088000        +4.25528000
H        -5.24448000        +1.93009000        +4.24428000
H        -5.21986000        -0.51527000        +4.03730000
C        -3.18054000        +3.65430000        +4.37557000
C        -3.12197000        -2.19542000        +3.88128000
H        -2.73846000        -2.52539000        +2.91395000
H        -4.14666000        -2.55491000        +3.99091000
H        -2.51052000        -2.68093000        +4.64644000
H        -2.58308000        +4.15036000        +3.60653000
H        -2.79597000        +3.99111000        +5.34002000
H        -4.21305000        +3.99307000        +4.27356000
H        -0.98269000        -0.45482000        +4.01332000
H        -1.00543000        +1.96233000        +4.21815000
$end

$rem
JOBTYPE                   SP
METHOD                    B3LYP
DFT_D                     d3_op
BASIS                     6-311++G(d,p)
SYMMETRY                  False
THRESH                    12
SCF_CONVERGENCE           8
MAX_SUB_FILE_NUM          128
MEM_STATIC                400
MEM_TOTAL                 4000
$end
--------------------------------------------------------------

             Standard Nuclear Orientation (Angstroms)
    I     Atom           X                Y                Z
 ----------------------------------------------------------------
    1      C       2.8246228966     0.5442140730     0.9889792131
    2      C       1.9971909098     1.6825041402     0.9489502820
    3      C       2.8877330600    -0.3435995049    -0.0994898146
    4      C       2.0967968678    -0.0549322364    -1.2128796741
    5      C       1.2788068334     1.0664162106    -1.2526145988
    6      C       1.2056964829     1.9577176927    -0.1804736507
    7      H       0.6831816850     1.2595265067    -2.1384067708
    8      H       2.1223252158    -0.7270753426    -2.0641680693
    9      C       0.3104684326     3.1695401765    -0.2775150156
   10      C       3.7523743650    -1.5832183610    -0.0999003640
   11      H       4.8133585386    -1.3263137153    -0.0997097151
   12      H       3.5404639517    -2.1881288625    -0.9833134355
   13      H       3.5766778590    -2.2029754405     0.7833282522
   14      H       0.8499111516     4.0919778798    -0.0482406531
   15      H      -0.5191489058     3.1052517512     0.4289557436
   16      H      -0.0959888677     3.2565477532    -1.2867078602
   17      H       3.3933909712     0.3586345345     1.8298613040
   18      H       1.9711426830     2.3225943870     1.7580416437
   19      C      -1.2601168749    -1.0620580855     1.2969109820
   20      C      -2.0875488617     0.0762319817     1.2568820508
   21      C      -1.1970067114    -1.9498716634     0.2084419543
   22      C      -1.9879429036    -1.6612043949    -0.9049479053
   23      C      -2.8059329380    -0.5398559478    -0.9446828300
   24      C      -2.8790432885     0.3514455343     0.1274581182
   25      H      -3.4015580864    -0.3467456518    -1.8304750019
   26      H      -1.9624145557    -2.3333475011    -1.7562363004
   27      C      -3.7742713388     1.5632680180     0.0304167533
   28      C      -0.3323654064    -3.1894905195     0.2080314049
   29      H       0.7286187671    -2.9325858737     0.2082220537
   30      H      -0.5442758197    -3.7944010210    -0.6753816667
   31      H      -0.5080619124    -3.8092475989     1.0912600211
   32      H      -3.2348286199     2.4857057213     0.2596911157
   33      H      -4.6038886772     1.4989795927     0.7368875125
   34      H      -4.1807286392     1.6502755948    -0.9787760914
   35      H      -0.6913488002    -1.2476376240     2.1377930729
   36      H      -2.1135970884     0.7163222285     2.0659734125
 ----------------------------------------------------------------

   14    -621.9568260385      5.58E-09 Convergence criterion met
 Total energy in the final basis set = -621.95682604

                    Orbital Energies (a.u.)
 --------------------------------------------------------------

 Alpha MOs
 -- Occupied --
-10.177 -10.177 -10.177 -10.176 -10.166 -10.165 -10.165 -10.165
-10.165 -10.164 -10.164 -10.164 -10.164 -10.164 -10.163 -10.163
 -0.856  -0.855  -0.785  -0.784  -0.742  -0.742  -0.719  -0.718
 -0.656  -0.655  -0.609  -0.609  -0.574  -0.574  -0.493  -0.493
 -0.469  -0.469  -0.457  -0.456  -0.427  -0.420  -0.418  -0.417
 -0.416  -0.411  -0.402  -0.401  -0.395  -0.394  -0.374  -0.373
 -0.345  -0.340  -0.339  -0.339  -0.336  -0.335  -0.251  -0.247
 -0.234  -0.232

          Ground-State Mulliken Net Atomic Charges

     Atom                 Charge (a.u.)
  ----------------------------------------
      1 C                    -0.275342
      2 C                    -0.399282
      3 C                     0.437738
      4 C                    -0.369866
      5 C                    -0.319230
      6 C                     0.718475
      7 H                     0.144680
      8 H                     0.151203
      9 C                    -0.669433
     10 C                    -0.653246
     11 H                     0.156999
     12 H                     0.134881
     13 H                     0.154550
     14 H                     0.146483
     15 H                     0.164639
     16 H                     0.136704
     17 H                     0.162644
     18 H                     0.166451
     19 C                    -0.451909
     20 C                    -0.253247
     21 C                     0.668409
     22 C                    -0.346559
     23 C                    -0.513689
     24 C                     0.613596
     25 H                     0.146463
     26 H                     0.161760
     27 C                    -0.610740
     28 C                    -0.673896
     29 H                     0.218293
     30 H                     0.130520
     31 H                     0.148468
     32 H                     0.152860
     33 H                     0.161458
     34 H                     0.139028
     35 H                     0.150403
     36 H                     0.169735
  ----------------------------------------
  Sum of atomic charges =     0.000000

                    Cartesian Multipole Moments
 -----------------------------------------------------------------
    Charge (ESU x 10^10)
                 0.0000
    Dipole Moment (Debye)
         X       0.0793      Y       0.0546      Z       0.1320
       Tot       0.1634
    Quadrupole Moments (Debye-Ang)
        XX    -100.1371     XY      -6.5809     YY     -94.9695
        XZ       3.8831     YZ       2.6339     ZZ     -94.2715

 Total job time:  174.03s(wall), 692.82s(cpu)
        *  Thank you very much for using Q-Chem.  Have a nice day.  *
