 Q-Chem 5.0, Q-Chem, Inc., Pleasanton, CA (2017)
 Q-Chem 5.0.1 for Intel X86 EM64T Linux

User input:
--------------------------------------------------------------
$molecule
0  1
--
0  1
C        -0.54444000        -0.68370000        -0.06689000
C        -0.55709000        +0.71878000        +0.05493000
C        -1.74320000        -1.41616000        -0.12552000
C        -2.93952000        -0.70056000        -0.05285000
C        -2.95313000        +0.68255000        +0.06934000
C        -1.77161000        +1.42404000        +0.12810000
H        -3.90354000        +1.20325000        +0.11710000
H        -3.87892000        -1.24211000        -0.08988000
C        -1.83960000        +2.92746000        +0.24839000
C        -1.78103000        -2.92226000        -0.24590000
H        -1.39752000        -3.25223000        -1.21323000
H        -2.80572000        -3.28175000        -0.13627000
H        -1.16958000        -3.40777000        +0.51926000
H        -1.24214000        +3.42352000        -0.52065000
H        -1.45503000        +3.26427000        +1.21284000
H        -2.87211000        +3.26623000        +0.14638000
H        +0.35825000        -1.18166000        -0.11386000
H        +0.33551000        +1.23549000        +0.09097000
--
0  1
C        -2.28157000        +0.25789000        +5.27968000
C        -2.29422000        +1.66037000        +5.40150000
C        -3.48033000        -0.47457000        +5.22105000
C        -4.67665000        +0.24103000        +5.29372000
C        -4.69026000        +1.62414000        +5.41591000
C        -3.50874000        +2.36563000        +5.47467000
H        -5.64067000        +2.14484000        +5.46367000
H        -5.61605000        -0.30052000        +5.25669000
C        -3.57673000        +3.86905000        +5.59496000
C        -3.51816000        -1.98067000        +5.10067000
H        -3.13465000        -2.31064000        +4.13334000
H        -4.54285000        -2.34016000        +5.21030000
H        -2.90671000        -2.46618000        +5.86583000
H        -2.97927000        +4.36511000        +4.82592000
H        -3.19216000        +4.20586000        +6.55941000
H        -4.60924000        +4.20782000        +5.49295000
H        -1.37888000        -0.24007000        +5.23271000
H        -1.40162000        +2.17708000        +5.43754000
$end

$rem
JOBTYPE                   SP
METHOD                    B3LYP
DFT_D                     d3_op
BASIS                     6-311++G(d,p)
SYMMETRY                  False
THRESH                    12
SCF_CONVERGENCE           8
MAX_SUB_FILE_NUM          128
MEM_STATIC                400
MEM_TOTAL                 4000
$end
--------------------------------------------------------------

             Standard Nuclear Orientation (Angstroms)
    I     Atom           X                Y                Z
 ----------------------------------------------------------------
    1      C       3.4869195569     0.0121426350     1.0457974921
    2      C       2.9244810459     1.3021858359     1.0083575867
    3      C       3.3897721407    -0.8523513624    -0.0588169990
    4      C       2.7119562409    -0.3840086925    -1.1856561982
    5      C       2.1550926127     0.8874564945    -1.2229131174
    6      C       2.2437009204     1.7577470614    -0.1347988931
    7      H       1.6408254416     1.2171411892    -2.1193092098
    8      H       2.6174783192    -1.0333117311    -2.0497160745
    9      C       1.6325102778     3.1350114874    -0.2294177078
   10      C       3.9679768791    -2.2487474029    -0.0629452063
   11      H       5.0589059385    -2.2260173839    -0.0306251893
   12      H       3.6570512401    -2.7808705871    -0.9637290633
   13      H       3.6377608712    -2.8291637061     0.8025807559
   14      H       2.3503746337     3.9164033720     0.0324104531
   15      H       0.7881990624     3.2402185620     0.4543723963
   16      H       1.2837560989     3.3222286573    -1.2465550176
   17      H       3.9778904373    -0.3037522740     1.8967837316
   18      H       3.0128041284     1.9209223231     1.8295683137
   19      C      -2.1372012782    -0.8878716671     1.2677484287
   20      C      -2.6996397892     0.4021715338     1.2303085233
   21      C      -2.2343486944    -1.7523656645     0.1631339376
   22      C      -2.9121645942    -1.2840229946    -0.9637052616
   23      C      -3.4690282223    -0.0125578075    -1.0009621808
   24      C      -3.3804199147     0.8577327594     0.0871520435
   25      H      -3.9832953935     0.3171268872    -1.8973582732
   26      H      -3.0066425159    -1.9333260332    -1.8277651379
   27      C      -3.9916105573     2.2349971853    -0.0074667712
   28      C      -1.6561439560    -3.1487617049     0.1590057303
   29      H      -0.5652148966    -3.1260316859     0.1913257473
   30      H      -1.9670695950    -3.6808848892    -0.7417781267
   31      H      -1.9863599639    -3.7291780082     1.0245316925
   32      H      -3.2737462014     3.0163890700     0.2543613897
   33      H      -4.8359217727     2.3402042599     0.6763233329
   34      H      -4.3403647362     2.4222143552    -1.0246040810
   35      H      -1.6462303978    -1.2037665760     2.1187346682
   36      H      -2.6113167067     1.0209080211     2.0515192503
 ----------------------------------------------------------------

   13    -621.9527548131      6.34E-09 Convergence criterion met
 Total energy in the final basis set = -621.95275481

                    Orbital Energies (a.u.)
 --------------------------------------------------------------

 Alpha MOs
 -- Occupied --
-10.178 -10.178 -10.178 -10.177 -10.166 -10.166 -10.166 -10.166
-10.166 -10.165 -10.165 -10.165 -10.165 -10.165 -10.165 -10.164
 -0.856  -0.856  -0.786  -0.785  -0.743  -0.743  -0.719  -0.719
 -0.656  -0.656  -0.610  -0.610  -0.575  -0.575  -0.494  -0.494
 -0.470  -0.470  -0.458  -0.458  -0.423  -0.422  -0.419  -0.418
 -0.415  -0.414  -0.403  -0.402  -0.395  -0.395  -0.374  -0.374
 -0.344  -0.343  -0.341  -0.340  -0.337  -0.337  -0.250  -0.250
 -0.234  -0.234

          Ground-State Mulliken Net Atomic Charges

     Atom                 Charge (a.u.)
  ----------------------------------------
      1 C                    -0.155155
      2 C                    -0.318911
      3 C                     0.584767
      4 C                    -0.504061
      5 C                    -0.454360
      6 C                     0.619230
      7 H                     0.150220
      8 H                     0.139557
      9 C                    -0.659811
     10 C                    -0.625947
     11 H                     0.155774
     12 H                     0.146670
     13 H                     0.148872
     14 H                     0.142631
     15 H                     0.163097
     16 H                     0.140599
     17 H                     0.160158
     18 H                     0.166740
     19 C                    -0.234690
     20 C                    -0.174136
     21 C                     0.653363
     22 C                    -0.587182
     23 C                    -0.548635
     24 C                     0.642784
     25 H                     0.143581
     26 H                     0.149940
     27 C                    -0.621482
     28 C                    -0.646718
     29 H                     0.160185
     30 H                     0.142561
     31 H                     0.145856
     32 H                     0.148203
     33 H                     0.158514
     34 H                     0.146385
     35 H                     0.161469
     36 H                     0.159932
  ----------------------------------------
  Sum of atomic charges =    -0.000000

                    Cartesian Multipole Moments
 -----------------------------------------------------------------
    Charge (ESU x 10^10)
                -0.0000
    Dipole Moment (Debye)
         X       0.0686      Y       0.0343      Z       0.1546
       Tot       0.1726
    Quadrupole Moments (Debye-Ang)
        XX    -102.5884     XY      -5.1133     YY     -91.8738
        XZ       4.1322     YZ       1.6775     ZZ     -93.7721

 Total job time:  138.61s(wall), 551.63s(cpu)
        *  Thank you very much for using Q-Chem.  Have a nice day.  *
