 Q-Chem 5.0, Q-Chem, Inc., Pleasanton, CA (2017)
 Q-Chem 5.0.1 for Intel X86 EM64T Linux

User input:
--------------------------------------------------------------
$molecule
0  1
--
0  1
C        -0.58454000        -0.67556000        -0.07544000
C        -0.59851000        +0.70920000        +0.05808000
C        -1.77633000        -1.40990000        -0.13252000
C        -2.97828000        -0.70388000        -0.05611000
C        -2.99244000        +0.68477000        +0.07719000
C        -1.80513000        +1.41687000        +0.13452000
H        -3.94378000        +1.20441000        +0.13594000
H        -3.91864000        -1.24474000        -0.10022000
C        -1.81546000        +2.92210000        +0.24949000
C        -1.75732000        -2.91589000        -0.24640000
H        -1.03160000        -3.25185000        -0.99235000
H        -2.73712000        -3.30600000        -0.53105000
H        -1.48213000        -3.37940000        +0.70725000
H        -1.54006000        +3.39064000        -0.70147000
H        -1.10219000        +3.26991000        +1.00208000
H        -2.80465000        +3.29345000        +0.52612000
H        +0.36601000        -1.19708000        -0.13515000
H        +0.34176000        +1.25035000        +0.10232000
--
0  1
C        -0.54474000        -1.09650000        +4.30420000
C        -0.55871000        +0.28826000        +4.43772000
C        -1.73653000        -1.83084000        +4.24712000
C        -2.93848000        -1.12482000        +4.32353000
C        -2.95264000        +0.26383000        +4.45683000
C        -1.76533000        +0.99593000        +4.51416000
H        -3.90398000        +0.78347000        +4.51558000
H        -3.87884000        -1.66568000        +4.27942000
C        -1.77566000        +2.50116000        +4.62913000
C        -1.71752000        -3.33683000        +4.13324000
H        -0.99180000        -3.67279000        +3.38729000
H        -2.69732000        -3.72694000        +3.84859000
H        -1.44233000        -3.80034000        +5.08689000
H        -1.50026000        +2.96970000        +3.67817000
H        -1.06239000        +2.84897000        +5.38172000
H        -2.76485000        +2.87251000        +4.90576000
H        +0.40581000        -1.61802000        +4.24449000
H        +0.38156000        +0.82941000        +4.48196000
$end

$rem
JOBTYPE                   SP
METHOD                    B3LYP
DFT_D                     d3_op
BASIS                     6-311++G(d,p)
SYMMETRY                  False
THRESH                    12
SCF_CONVERGENCE           8
MAX_SUB_FILE_NUM          128
MEM_STATIC                400
MEM_TOTAL                 4000
$end
--------------------------------------------------------------

             Standard Nuclear Orientation (Angstroms)
    I     Atom           X                Y                Z
 ----------------------------------------------------------------
    1      C       2.1803204567    -0.7554620638     1.1967445995
    2      C       2.2185167742     0.6352657589     1.1963283356
    3      C       2.1576144264    -1.4798945974    -0.0022377634
    4      C       2.1799473573    -0.7584656651    -1.1972390466
    5      C       2.2188428988     0.6360970038    -1.1978024179
    6      C       2.2410666685     1.3583800502    -0.0033253440
    7      H       2.2334094174     1.1680205917    -2.1440424513
    8      H       2.1658599646    -1.2916897560    -2.1428741642
    9      C       2.3124755470     2.8663327515     0.0013206685
   10      C       2.0849494329    -2.9885494890     0.0017786258
   11      H       2.7770459029    -3.4207648762     0.7299079946
   12      H       2.3284954453    -3.4014545272    -0.9797580489
   13      H       1.0789480688    -3.3335690613     0.2643469577
   14      H       3.3112984577     3.2114502175     0.2893250796
   15      H       1.6018456813     3.2974696908     0.7121256563
   16      H       2.0929180618     3.2783188365    -0.9860920172
   17      H       2.1664823814    -1.2893620624     2.1421825913
   18      H       2.2325117207     1.1687945030     2.1418754754
   19      C      -2.2179973527    -0.6337184794     1.1967307023
   20      C      -2.1798010352     0.7570093434     1.1963144384
   21      C      -2.2407033830    -1.3581510129    -0.0022516606
   22      C      -2.2183704521    -0.6367220807    -1.1972529438
   23      C      -2.1794749106     0.7578405882    -1.1978163151
   24      C      -2.1572511409     1.4801236346    -0.0033392412
   25      H      -2.1649083920     1.2897641761    -2.1440563485
   26      H      -2.2324578448    -1.1699461715    -2.1428880614
   27      C      -2.0858422625     2.9880763359     0.0013067713
   28      C      -2.3133683766    -2.8668059045     0.0017647286
   29      H      -1.6212719065    -3.2990212918     0.7298940974
   30      H      -2.0698223641    -3.2797109427    -0.9797719461
   31      H      -3.3193697406    -3.2118254769     0.2643330605
   32      H      -1.0870193517     3.3331938019     0.2893111824
   33      H      -2.7964721281     3.4192132753     0.7121117591
   34      H      -2.3053997476     3.4000624209    -0.9861059144
   35      H      -2.2318354280    -1.1676184780     2.1421686941
   36      H      -2.1658060887     1.2905380875     2.1418615782
 ----------------------------------------------------------------

   13    -621.9652064703      8.26E-09 Convergence criterion met
 Total energy in the final basis set = -621.96520647

                    Orbital Energies (a.u.)
 --------------------------------------------------------------

 Alpha MOs
 -- Occupied --
-10.177 -10.177 -10.177 -10.177 -10.167 -10.167 -10.166 -10.166
-10.166 -10.166 -10.166 -10.166 -10.166 -10.166 -10.165 -10.165
 -0.857  -0.856  -0.785  -0.784  -0.741  -0.740  -0.719  -0.718
 -0.655  -0.654  -0.605  -0.605  -0.572  -0.572  -0.491  -0.491
 -0.470  -0.469  -0.450  -0.449  -0.427  -0.419  -0.418  -0.415
 -0.415  -0.411  -0.400  -0.399  -0.396  -0.395  -0.373  -0.372
 -0.347  -0.340  -0.339  -0.339  -0.334  -0.334  -0.253  -0.245
 -0.236  -0.230

          Ground-State Mulliken Net Atomic Charges

     Atom                 Charge (a.u.)
  ----------------------------------------
      1 C                    -0.392629
      2 C                    -0.318293
      3 C                     0.620579
      4 C                    -0.459582
      5 C                    -0.361135
      6 C                     0.625477
      7 H                     0.155942
      8 H                     0.164063
      9 C                    -0.580974
     10 C                    -0.679298
     11 H                     0.139645
     12 H                     0.137465
     13 H                     0.174826
     14 H                     0.161665
     15 H                     0.132885
     16 H                     0.136206
     17 H                     0.172057
     18 H                     0.171112
     19 C                    -0.320607
     20 C                    -0.389998
     21 C                     0.636208
     22 C                    -0.359744
     23 C                    -0.460734
     24 C                     0.606740
     25 H                     0.163515
     26 H                     0.156545
     27 C                    -0.674853
     28 C                    -0.581924
     29 H                     0.132367
     30 H                     0.136119
     31 H                     0.162117
     32 H                     0.173592
     33 H                     0.140184
     34 H                     0.137169
     35 H                     0.170540
     36 H                     0.172753
  ----------------------------------------
  Sum of atomic charges =     0.000000

                    Cartesian Multipole Moments
 -----------------------------------------------------------------
    Charge (ESU x 10^10)
                 0.0000
    Dipole Moment (Debye)
         X      -0.0047      Y       0.0005      Z       0.0815
       Tot       0.0816
    Quadrupole Moments (Debye-Ang)
        XX    -106.6999     XY       0.7609     YY     -90.5865
        XZ      -0.0004     YZ       0.0086     ZZ     -92.3857

 Total job time:  169.36s(wall), 674.21s(cpu)
        *  Thank you very much for using Q-Chem.  Have a nice day.  *
