 Q-Chem 5.0, Q-Chem, Inc., Pleasanton, CA (2017)
 Q-Chem 5.0.1 for Intel X86 EM64T Linux

User input:
--------------------------------------------------------------
$molecule
0  1
C        -0.54444000        -0.68370000        -0.06689000
C        -0.55709000        +0.71878000        +0.05493000
C        -1.74320000        -1.41616000        -0.12552000
C        -2.93952000        -0.70056000        -0.05285000
C        -2.95313000        +0.68255000        +0.06934000
C        -1.77161000        +1.42404000        +0.12810000
H        -3.90354000        +1.20325000        +0.11710000
H        -3.87892000        -1.24211000        -0.08988000
C        -1.83960000        +2.92746000        +0.24839000
C        -1.78103000        -2.92226000        -0.24590000
H        -1.39752000        -3.25223000        -1.21323000
H        -2.80572000        -3.28175000        -0.13627000
H        -1.16958000        -3.40777000        +0.51926000
H        -1.24214000        +3.42352000        -0.52065000
H        -1.45503000        +3.26427000        +1.21284000
H        -2.87211000        +3.26623000        +0.14638000
H        +0.35825000        -1.18166000        -0.11386000
H        +0.33551000        +1.23549000        +0.09097000
@C        -2.28157000        +0.25789000        +5.27968000
@C        -2.29422000        +1.66037000        +5.40150000
@C        -3.48033000        -0.47457000        +5.22105000
@C        -4.67665000        +0.24103000        +5.29372000
@C        -4.69026000        +1.62414000        +5.41591000
@C        -3.50874000        +2.36563000        +5.47467000
@H        -5.64067000        +2.14484000        +5.46367000
@H        -5.61605000        -0.30052000        +5.25669000
@C        -3.57673000        +3.86905000        +5.59496000
@C        -3.51816000        -1.98067000        +5.10067000
@H        -3.13465000        -2.31064000        +4.13334000
@H        -4.54285000        -2.34016000        +5.21030000
@H        -2.90671000        -2.46618000        +5.86583000
@H        -2.97927000        +4.36511000        +4.82592000
@H        -3.19216000        +4.20586000        +6.55941000
@H        -4.60924000        +4.20782000        +5.49295000
@H        -1.37888000        -0.24007000        +5.23271000
@H        -1.40162000        +2.17708000        +5.43754000
$end

$rem
JOBTYPE                   SP
METHOD                    B3LYP
DFT_D                     d3_op
BASIS                     6-311++G(d,p)
SYMMETRY                  False
THRESH                    12
SCF_CONVERGENCE           8
MAX_SUB_FILE_NUM          128
MEM_STATIC                400
MEM_TOTAL                 4000
$end
--------------------------------------------------------------

             Standard Nuclear Orientation (Angstroms)
    I     Atom           X                Y                Z
 ----------------------------------------------------------------
    1      C      -0.5444400000    -0.6837000000    -0.0668900000
    2      C      -0.5570900000     0.7187800000     0.0549300000
    3      C      -1.7432000000    -1.4161600000    -0.1255200000
    4      C      -2.9395200000    -0.7005600000    -0.0528500000
    5      C      -2.9531300000     0.6825500000     0.0693400000
    6      C      -1.7716100000     1.4240400000     0.1281000000
    7      H      -3.9035400000     1.2032500000     0.1171000000
    8      H      -3.8789200000    -1.2421100000    -0.0898800000
    9      C      -1.8396000000     2.9274600000     0.2483900000
   10      C      -1.7810300000    -2.9222600000    -0.2459000000
   11      H      -1.3975200000    -3.2522300000    -1.2132300000
   12      H      -2.8057200000    -3.2817500000    -0.1362700000
   13      H      -1.1695800000    -3.4077700000     0.5192600000
   14      H      -1.2421400000     3.4235200000    -0.5206500000
   15      H      -1.4550300000     3.2642700000     1.2128400000
   16      H      -2.8721100000     3.2662300000     0.1463800000
   17      H       0.3582500000    -1.1816600000    -0.1138600000
   18      H       0.3355100000     1.2354900000     0.0909700000
   19      GH     -2.2815700000     0.2578900000     5.2796800000
   20      GH     -2.2942200000     1.6603700000     5.4015000000
   21      GH     -3.4803300000    -0.4745700000     5.2210500000
   22      GH     -4.6766500000     0.2410300000     5.2937200000
   23      GH     -4.6902600000     1.6241400000     5.4159100000
   24      GH     -3.5087400000     2.3656300000     5.4746700000
   25      GH     -5.6406700000     2.1448400000     5.4636700000
   26      GH     -5.6160500000    -0.3005200000     5.2566900000
   27      GH     -3.5767300000     3.8690500000     5.5949600000
   28      GH     -3.5181600000    -1.9806700000     5.1006700000
   29      GH     -3.1346500000    -2.3106400000     4.1333400000
   30      GH     -4.5428500000    -2.3401600000     5.2103000000
   31      GH     -2.9067100000    -2.4661800000     5.8658300000
   32      GH     -2.9792700000     4.3651100000     4.8259200000
   33      GH     -3.1921600000     4.2058600000     6.5594100000
   34      GH     -4.6092400000     4.2078200000     5.4929500000
   35      GH     -1.3788800000    -0.2400700000     5.2327100000
   36      GH     -1.4016200000     2.1770800000     5.4375400000
 ----------------------------------------------------------------

   12    -310.9759865703      8.08E-09 Convergence criterion met
 Total energy in the final basis set = -310.97598657

                    Orbital Energies (a.u.)
 --------------------------------------------------------------

 Alpha MOs
 -- Occupied --
-10.180 -10.180 -10.168 -10.168 -10.168 -10.167 -10.167 -10.167
 -0.859  -0.787  -0.745  -0.721  -0.658  -0.612  -0.577  -0.496
 -0.472  -0.460  -0.425  -0.421  -0.417  -0.404  -0.397  -0.376
 -0.345  -0.343  -0.339  -0.252  -0.236

          Ground-State Mulliken Net Atomic Charges

     Atom                 Charge (a.u.)
  ----------------------------------------
      1 C                    -0.152738
      2 C                    -0.307338
      3 C                     0.593450
      4 C                    -0.505796
      5 C                    -0.464448
      6 C                     0.594403
      7 H                     0.152430
      8 H                     0.142432
      9 C                    -0.646036
     10 C                    -0.627444
     11 H                     0.155678
     12 H                     0.147623
     13 H                     0.149806
     14 H                     0.144187
     15 H                     0.165886
     16 H                     0.140043
     17 H                     0.161648
     18 H                     0.168507
     19 GH                   -0.016085
     20 GH                   -0.007376
     21 GH                    0.007029
     22 GH                   -0.002333
     23 GH                   -0.002441
     24 GH                    0.007777
     25 GH                   -0.000380
     26 GH                   -0.000985
     27 GH                    0.002979
     28 GH                    0.005866
     29 GH                   -0.007661
     30 GH                    0.000572
     31 GH                   -0.000241
     32 GH                    0.000168
     33 GH                   -0.000046
     34 GH                    0.000170
     35 GH                    0.000198
     36 GH                    0.000497
  ----------------------------------------
  Sum of atomic charges =     0.000000

                    Cartesian Multipole Moments
 -----------------------------------------------------------------
    Charge (ESU x 10^10)
                 0.0000
    Dipole Moment (Debye)
         X       0.0923      Y       0.0013      Z       0.0025
       Tot       0.0923
    Quadrupole Moments (Debye-Ang)
        XX     -46.2743     XY       0.0018     YY     -44.6904
        XZ      -0.0522     YZ       0.6787     ZZ     -52.7218

 Total job time:  122.84s(wall), 488.48s(cpu)
        *  Thank you very much for using Q-Chem.  Have a nice day.  *
