 Q-Chem 5.0, Q-Chem, Inc., Pleasanton, CA (2017)
 Q-Chem 5.0.1 for Intel X86 EM64T Linux

User input:
--------------------------------------------------------------
$molecule
0  1
C        -0.54444000        -0.68370000        -0.06689000
C        -0.55709000        +0.71878000        +0.05493000
C        -1.74320000        -1.41616000        -0.12552000
C        -2.93952000        -0.70056000        -0.05285000
C        -2.95313000        +0.68255000        +0.06934000
C        -1.77161000        +1.42404000        +0.12810000
H        -3.90354000        +1.20325000        +0.11710000
H        -3.87892000        -1.24211000        -0.08988000
C        -1.83960000        +2.92746000        +0.24839000
C        -1.78103000        -2.92226000        -0.24590000
H        -1.39752000        -3.25223000        -1.21323000
H        -2.80572000        -3.28175000        -0.13627000
H        -1.16958000        -3.40777000        +0.51926000
H        -1.24214000        +3.42352000        -0.52065000
H        -1.45503000        +3.26427000        +1.21284000
H        -2.87211000        +3.26623000        +0.14638000
H        +0.35825000        -1.18166000        -0.11386000
H        +0.33551000        +1.23549000        +0.09097000
@C        -1.88538000        +0.04314000        +4.06029000
@C        -1.89803000        +1.44562000        +4.18211000
@C        -3.08414000        -0.68932000        +4.00166000
@C        -4.28046000        +0.02628000        +4.07433000
@C        -4.29407000        +1.40939000        +4.19652000
@C        -3.11255000        +2.15088000        +4.25528000
@H        -5.24448000        +1.93009000        +4.24428000
@H        -5.21986000        -0.51527000        +4.03730000
@C        -3.18054000        +3.65430000        +4.37557000
@C        -3.12197000        -2.19542000        +3.88128000
@H        -2.73846000        -2.52539000        +2.91395000
@H        -4.14666000        -2.55491000        +3.99091000
@H        -2.51052000        -2.68093000        +4.64644000
@H        -2.58308000        +4.15036000        +3.60653000
@H        -2.79597000        +3.99111000        +5.34002000
@H        -4.21305000        +3.99307000        +4.27356000
@H        -0.98269000        -0.45482000        +4.01332000
@H        -1.00543000        +1.96233000        +4.21815000
$end

$rem
JOBTYPE                   SP
METHOD                    B3LYP
DFT_D                     d3_op
BASIS                     6-311++G(d,p)
SYMMETRY                  False
THRESH                    12
SCF_CONVERGENCE           8
MAX_SUB_FILE_NUM          128
MEM_STATIC                400
MEM_TOTAL                 4000
$end
--------------------------------------------------------------

             Standard Nuclear Orientation (Angstroms)
    I     Atom           X                Y                Z
 ----------------------------------------------------------------
    1      C      -0.5444400000    -0.6837000000    -0.0668900000
    2      C      -0.5570900000     0.7187800000     0.0549300000
    3      C      -1.7432000000    -1.4161600000    -0.1255200000
    4      C      -2.9395200000    -0.7005600000    -0.0528500000
    5      C      -2.9531300000     0.6825500000     0.0693400000
    6      C      -1.7716100000     1.4240400000     0.1281000000
    7      H      -3.9035400000     1.2032500000     0.1171000000
    8      H      -3.8789200000    -1.2421100000    -0.0898800000
    9      C      -1.8396000000     2.9274600000     0.2483900000
   10      C      -1.7810300000    -2.9222600000    -0.2459000000
   11      H      -1.3975200000    -3.2522300000    -1.2132300000
   12      H      -2.8057200000    -3.2817500000    -0.1362700000
   13      H      -1.1695800000    -3.4077700000     0.5192600000
   14      H      -1.2421400000     3.4235200000    -0.5206500000
   15      H      -1.4550300000     3.2642700000     1.2128400000
   16      H      -2.8721100000     3.2662300000     0.1463800000
   17      H       0.3582500000    -1.1816600000    -0.1138600000
   18      H       0.3355100000     1.2354900000     0.0909700000
   19      GH     -1.8853800000     0.0431400000     4.0602900000
   20      GH     -1.8980300000     1.4456200000     4.1821100000
   21      GH     -3.0841400000    -0.6893200000     4.0016600000
   22      GH     -4.2804600000     0.0262800000     4.0743300000
   23      GH     -4.2940700000     1.4093900000     4.1965200000
   24      GH     -3.1125500000     2.1508800000     4.2552800000
   25      GH     -5.2444800000     1.9300900000     4.2442800000
   26      GH     -5.2198600000    -0.5152700000     4.0373000000
   27      GH     -3.1805400000     3.6543000000     4.3755700000
   28      GH     -3.1219700000    -2.1954200000     3.8812800000
   29      GH     -2.7384600000    -2.5253900000     2.9139500000
   30      GH     -4.1466600000    -2.5549100000     3.9909100000
   31      GH     -2.5105200000    -2.6809300000     4.6464400000
   32      GH     -2.5830800000     4.1503600000     3.6065300000
   33      GH     -2.7959700000     3.9911100000     5.3400200000
   34      GH     -4.2130500000     3.9930700000     4.2735600000
   35      GH     -0.9826900000    -0.4548200000     4.0133200000
   36      GH     -1.0054300000     1.9623300000     4.2181500000
 ----------------------------------------------------------------

   13    -310.9761440334      1.36E-09 Convergence criterion met
 Total energy in the final basis set = -310.97614403

                    Orbital Energies (a.u.)
 --------------------------------------------------------------

 Alpha MOs
 -- Occupied --
-10.180 -10.180 -10.168 -10.168 -10.168 -10.167 -10.167 -10.167
 -0.859  -0.787  -0.745  -0.721  -0.658  -0.612  -0.577  -0.496
 -0.472  -0.460  -0.425  -0.421  -0.417  -0.404  -0.397  -0.376
 -0.345  -0.342  -0.339  -0.252  -0.236

          Ground-State Mulliken Net Atomic Charges

     Atom                 Charge (a.u.)
  ----------------------------------------
      1 C                    -0.211873
      2 C                    -0.370316
      3 C                     0.517275
      4 C                    -0.397855
      5 C                    -0.366692
      6 C                     0.604706
      7 H                     0.158754
      8 H                     0.150180
      9 C                    -0.659605
     10 C                    -0.672131
     11 H                     0.157189
     12 H                     0.139659
     13 H                     0.154856
     14 H                     0.150240
     15 H                     0.177035
     16 H                     0.133515
     17 H                     0.168819
     18 H                     0.168743
     19 GH                   -0.109355
     20 GH                   -0.056439
     21 GH                    0.053001
     22 GH                    0.063107
     23 GH                   -0.029810
     24 GH                    0.068880
     25 GH                   -0.004664
     26 GH                    0.003379
     27 GH                    0.013388
     28 GH                   -0.018286
     29 GH                    0.013157
     30 GH                   -0.003131
     31 GH                    0.000818
     32 GH                    0.001721
     33 GH                   -0.000599
     34 GH                    0.000563
     35 GH                   -0.007673
     36 GH                    0.009441
  ----------------------------------------
  Sum of atomic charges =     0.000000

                    Cartesian Multipole Moments
 -----------------------------------------------------------------
    Charge (ESU x 10^10)
                 0.0000
    Dipole Moment (Debye)
         X       0.0879      Y       0.0007      Z       0.0078
       Tot       0.0882
    Quadrupole Moments (Debye-Ang)
        XX     -46.3162     XY      -0.0014     YY     -44.7450
        XZ      -0.0668     YZ       0.6701     ZZ     -52.6741

 Total job time:  155.48s(wall), 618.63s(cpu)
        *  Thank you very much for using Q-Chem.  Have a nice day.  *
