 Q-Chem 5.0, Q-Chem, Inc., Pleasanton, CA (2017)
 Q-Chem 5.0.1 for Intel X86 EM64T Linux

User input:
--------------------------------------------------------------
$molecule
0  1
C        -0.54474000        -1.09650000        +4.30420000
C        -0.55871000        +0.28826000        +4.43772000
C        -1.73653000        -1.83084000        +4.24712000
C        -2.93848000        -1.12482000        +4.32353000
C        -2.95264000        +0.26383000        +4.45683000
C        -1.76533000        +0.99593000        +4.51416000
H        -3.90398000        +0.78347000        +4.51558000
H        -3.87884000        -1.66568000        +4.27942000
C        -1.77566000        +2.50116000        +4.62913000
C        -1.71752000        -3.33683000        +4.13324000
H        -0.99180000        -3.67279000        +3.38729000
H        -2.69732000        -3.72694000        +3.84859000
H        -1.44233000        -3.80034000        +5.08689000
H        -1.50026000        +2.96970000        +3.67817000
H        -1.06239000        +2.84897000        +5.38172000
H        -2.76485000        +2.87251000        +4.90576000
H        +0.40581000        -1.61802000        +4.24449000
H        +0.38156000        +0.82941000        +4.48196000
@C        -0.58454000        -0.67556000        -0.07544000
@C        -0.59851000        +0.70920000        +0.05808000
@C        -1.77633000        -1.40990000        -0.13252000
@C        -2.97828000        -0.70388000        -0.05611000
@C        -2.99244000        +0.68477000        +0.07719000
@C        -1.80513000        +1.41687000        +0.13452000
@H        -3.94378000        +1.20441000        +0.13594000
@H        -3.91864000        -1.24474000        -0.10022000
@C        -1.81546000        +2.92210000        +0.24949000
@C        -1.75732000        -2.91589000        -0.24640000
@H        -1.03160000        -3.25185000        -0.99235000
@H        -2.73712000        -3.30600000        -0.53105000
@H        -1.48213000        -3.37940000        +0.70725000
@H        -1.54006000        +3.39064000        -0.70147000
@H        -1.10219000        +3.26991000        +1.00208000
@H        -2.80465000        +3.29345000        +0.52612000
@H        +0.36601000        -1.19708000        -0.13515000
@H        +0.34176000        +1.25035000        +0.10232000
$end

$rem
JOBTYPE                   SP
METHOD                    B3LYP
DFT_D                     d3_op
BASIS                     6-311++G(d,p)
SYMMETRY                  False
THRESH                    12
SCF_CONVERGENCE           8
MAX_SUB_FILE_NUM          128
MEM_STATIC                400
MEM_TOTAL                 4000
$end
--------------------------------------------------------------

             Standard Nuclear Orientation (Angstroms)
    I     Atom           X                Y                Z
 ----------------------------------------------------------------
    1      C      -0.5447400000    -1.0965000000     4.3042000000
    2      C      -0.5587100000     0.2882600000     4.4377200000
    3      C      -1.7365300000    -1.8308400000     4.2471200000
    4      C      -2.9384800000    -1.1248200000     4.3235300000
    5      C      -2.9526400000     0.2638300000     4.4568300000
    6      C      -1.7653300000     0.9959300000     4.5141600000
    7      H      -3.9039800000     0.7834700000     4.5155800000
    8      H      -3.8788400000    -1.6656800000     4.2794200000
    9      C      -1.7756600000     2.5011600000     4.6291300000
   10      C      -1.7175200000    -3.3368300000     4.1332400000
   11      H      -0.9918000000    -3.6727900000     3.3872900000
   12      H      -2.6973200000    -3.7269400000     3.8485900000
   13      H      -1.4423300000    -3.8003400000     5.0868900000
   14      H      -1.5002600000     2.9697000000     3.6781700000
   15      H      -1.0623900000     2.8489700000     5.3817200000
   16      H      -2.7648500000     2.8725100000     4.9057600000
   17      H       0.4058100000    -1.6180200000     4.2444900000
   18      H       0.3815600000     0.8294100000     4.4819600000
   19      GH     -0.5845400000    -0.6755600000    -0.0754400000
   20      GH     -0.5985100000     0.7092000000     0.0580800000
   21      GH     -1.7763300000    -1.4099000000    -0.1325200000
   22      GH     -2.9782800000    -0.7038800000    -0.0561100000
   23      GH     -2.9924400000     0.6847700000     0.0771900000
   24      GH     -1.8051300000     1.4168700000     0.1345200000
   25      GH     -3.9437800000     1.2044100000     0.1359400000
   26      GH     -3.9186400000    -1.2447400000    -0.1002200000
   27      GH     -1.8154600000     2.9221000000     0.2494900000
   28      GH     -1.7573200000    -2.9158900000    -0.2464000000
   29      GH     -1.0316000000    -3.2518500000    -0.9923500000
   30      GH     -2.7371200000    -3.3060000000    -0.5310500000
   31      GH     -1.4821300000    -3.3794000000     0.7072500000
   32      GH     -1.5400600000     3.3906400000    -0.7014700000
   33      GH     -1.1021900000     3.2699100000     1.0020800000
   34      GH     -2.8046500000     3.2934500000     0.5261200000
   35      GH      0.3660100000    -1.1970800000    -0.1351500000
   36      GH      0.3417600000     1.2503500000     0.1023200000
 ----------------------------------------------------------------

   13    -310.9813164297      1.18E-09 Convergence criterion met
 Total energy in the final basis set = -310.98131643

                    Orbital Energies (a.u.)
 --------------------------------------------------------------

 Alpha MOs
 -- Occupied --
-10.180 -10.180 -10.171 -10.170 -10.170 -10.170 -10.167 -10.167
 -0.860  -0.787  -0.744  -0.721  -0.657  -0.609  -0.575  -0.494
 -0.473  -0.453  -0.425  -0.419  -0.417  -0.402  -0.399  -0.375
 -0.347  -0.342  -0.337  -0.254  -0.237

          Ground-State Mulliken Net Atomic Charges

     Atom                 Charge (a.u.)
  ----------------------------------------
      1 C                    -0.333738
      2 C                    -0.370698
      3 C                     0.658124
      4 C                    -0.355165
      5 C                    -0.482970
      6 C                     0.620185
      7 H                     0.166731
      8 H                     0.159664
      9 C                    -0.687542
     10 C                    -0.602210
     11 H                     0.141176
     12 H                     0.137964
     13 H                     0.163052
     14 H                     0.175618
     15 H                     0.141761
     16 H                     0.138311
     17 H                     0.173614
     18 H                     0.177784
     19 GH                   -0.011984
     20 GH                    0.007373
     21 GH                   -0.037678
     22 GH                    0.016966
     23 GH                   -0.008915
     24 GH                   -0.021362
     25 GH                    0.000729
     26 GH                    0.001648
     27 GH                    0.009829
     28 GH                    0.018145
     29 GH                   -0.000383
     30 GH                    0.000082
     31 GH                    0.003544
     32 GH                   -0.000705
     33 GH                   -0.001649
     34 GH                    0.000807
     35 GH                    0.000399
     36 GH                    0.001494
  ----------------------------------------
  Sum of atomic charges =     0.000000

                    Cartesian Multipole Moments
 -----------------------------------------------------------------
    Charge (ESU x 10^10)
                 0.0000
    Dipole Moment (Debye)
         X       0.0596      Y       0.0006      Z       0.0014
       Tot       0.0597
    Quadrupole Moments (Debye-Ang)
        XX     -46.2995     XY      -0.0311     YY     -44.8085
        XZ       0.2036     YZ       0.6209     ZZ     -52.7440

 Total job time:  168.35s(wall), 667.72s(cpu)
        *  Thank you very much for using Q-Chem.  Have a nice day.  *
