 Q-Chem 5.0, Q-Chem, Inc., Pleasanton, CA (2017)
 Q-Chem 5.0.1 for Intel X86 EM64T Linux

User input:
--------------------------------------------------------------
$molecule
0  1
C        -2.28157000        +0.25789000        +5.27968000
C        -2.29422000        +1.66037000        +5.40150000
C        -3.48033000        -0.47457000        +5.22105000
C        -4.67665000        +0.24103000        +5.29372000
C        -4.69026000        +1.62414000        +5.41591000
C        -3.50874000        +2.36563000        +5.47467000
H        -5.64067000        +2.14484000        +5.46367000
H        -5.61605000        -0.30052000        +5.25669000
C        -3.57673000        +3.86905000        +5.59496000
C        -3.51816000        -1.98067000        +5.10067000
H        -3.13465000        -2.31064000        +4.13334000
H        -4.54285000        -2.34016000        +5.21030000
H        -2.90671000        -2.46618000        +5.86583000
H        -2.97927000        +4.36511000        +4.82592000
H        -3.19216000        +4.20586000        +6.55941000
H        -4.60924000        +4.20782000        +5.49295000
H        -1.37888000        -0.24007000        +5.23271000
H        -1.40162000        +2.17708000        +5.43754000
@C        -0.54444000        -0.68370000        -0.06689000
@C        -0.55709000        +0.71878000        +0.05493000
@C        -1.74320000        -1.41616000        -0.12552000
@C        -2.93952000        -0.70056000        -0.05285000
@C        -2.95313000        +0.68255000        +0.06934000
@C        -1.77161000        +1.42404000        +0.12810000
@H        -3.90354000        +1.20325000        +0.11710000
@H        -3.87892000        -1.24211000        -0.08988000
@C        -1.83960000        +2.92746000        +0.24839000
@C        -1.78103000        -2.92226000        -0.24590000
@H        -1.39752000        -3.25223000        -1.21323000
@H        -2.80572000        -3.28175000        -0.13627000
@H        -1.16958000        -3.40777000        +0.51926000
@H        -1.24214000        +3.42352000        -0.52065000
@H        -1.45503000        +3.26427000        +1.21284000
@H        -2.87211000        +3.26623000        +0.14638000
@H        +0.35825000        -1.18166000        -0.11386000
@H        +0.33551000        +1.23549000        +0.09097000
$end

$rem
JOBTYPE                   SP
METHOD                    B3LYP
DFT_D                     d3_op
BASIS                     6-311++G(d,p)
SYMMETRY                  False
THRESH                    12
SCF_CONVERGENCE           8
MAX_SUB_FILE_NUM          128
MEM_STATIC                400
MEM_TOTAL                 4000
$end
--------------------------------------------------------------

             Standard Nuclear Orientation (Angstroms)
    I     Atom           X                Y                Z
 ----------------------------------------------------------------
    1      C      -2.2815700000     0.2578900000     5.2796800000
    2      C      -2.2942200000     1.6603700000     5.4015000000
    3      C      -3.4803300000    -0.4745700000     5.2210500000
    4      C      -4.6766500000     0.2410300000     5.2937200000
    5      C      -4.6902600000     1.6241400000     5.4159100000
    6      C      -3.5087400000     2.3656300000     5.4746700000
    7      H      -5.6406700000     2.1448400000     5.4636700000
    8      H      -5.6160500000    -0.3005200000     5.2566900000
    9      C      -3.5767300000     3.8690500000     5.5949600000
   10      C      -3.5181600000    -1.9806700000     5.1006700000
   11      H      -3.1346500000    -2.3106400000     4.1333400000
   12      H      -4.5428500000    -2.3401600000     5.2103000000
   13      H      -2.9067100000    -2.4661800000     5.8658300000
   14      H      -2.9792700000     4.3651100000     4.8259200000
   15      H      -3.1921600000     4.2058600000     6.5594100000
   16      H      -4.6092400000     4.2078200000     5.4929500000
   17      H      -1.3788800000    -0.2400700000     5.2327100000
   18      H      -1.4016200000     2.1770800000     5.4375400000
   19      GH     -0.5444400000    -0.6837000000    -0.0668900000
   20      GH     -0.5570900000     0.7187800000     0.0549300000
   21      GH     -1.7432000000    -1.4161600000    -0.1255200000
   22      GH     -2.9395200000    -0.7005600000    -0.0528500000
   23      GH     -2.9531300000     0.6825500000     0.0693400000
   24      GH     -1.7716100000     1.4240400000     0.1281000000
   25      GH     -3.9035400000     1.2032500000     0.1171000000
   26      GH     -3.8789200000    -1.2421100000    -0.0898800000
   27      GH     -1.8396000000     2.9274600000     0.2483900000
   28      GH     -1.7810300000    -2.9222600000    -0.2459000000
   29      GH     -1.3975200000    -3.2522300000    -1.2132300000
   30      GH     -2.8057200000    -3.2817500000    -0.1362700000
   31      GH     -1.1695800000    -3.4077700000     0.5192600000
   32      GH     -1.2421400000     3.4235200000    -0.5206500000
   33      GH     -1.4550300000     3.2642700000     1.2128400000
   34      GH     -2.8721100000     3.2662300000     0.1463800000
   35      GH      0.3582500000    -1.1816600000    -0.1138600000
   36      GH      0.3355100000     1.2354900000     0.0909700000
 ----------------------------------------------------------------

   11    -310.9759914148      9.29E-09 Convergence criterion met
 Total energy in the final basis set = -310.97599141

                    Orbital Energies (a.u.)
 --------------------------------------------------------------

 Alpha MOs
 -- Occupied --
-10.180 -10.180 -10.168 -10.168 -10.168 -10.167 -10.167 -10.167
 -0.859  -0.787  -0.745  -0.721  -0.658  -0.612  -0.577  -0.496
 -0.472  -0.460  -0.425  -0.421  -0.417  -0.404  -0.397  -0.376
 -0.345  -0.343  -0.339  -0.252  -0.236

          Ground-State Mulliken Net Atomic Charges

     Atom                 Charge (a.u.)
  ----------------------------------------
      1 C                    -0.222671
      2 C                    -0.164602
      3 C                     0.626693
      4 C                    -0.586393
      5 C                    -0.547417
      6 C                     0.635880
      7 H                     0.145132
      8 H                     0.152008
      9 C                    -0.622863
     10 C                    -0.637471
     11 H                     0.161346
     12 H                     0.143713
     13 H                     0.147310
     14 H                     0.150097
     15 H                     0.158891
     16 H                     0.146737
     17 H                     0.163960
     18 H                     0.161513
     19 GH                    0.000241
     20 GH                   -0.007275
     21 GH                    0.005093
     22 GH                   -0.006039
     23 GH                   -0.008829
     24 GH                    0.011952
     25 GH                    0.000159
     26 GH                   -0.001393
     27 GH                   -0.008183
     28 GH                    0.002110
     29 GH                    0.000035
     30 GH                    0.000083
     31 GH                    0.000963
     32 GH                   -0.000573
     33 GH                   -0.000351
     34 GH                    0.001196
     35 GH                   -0.000401
     36 GH                   -0.000652
  ----------------------------------------
  Sum of atomic charges =    -0.000000

                    Cartesian Multipole Moments
 -----------------------------------------------------------------
    Charge (ESU x 10^10)
                -0.0000
    Dipole Moment (Debye)
         X       0.0917      Y       0.0024      Z      -0.0027
       Tot       0.0917
    Quadrupole Moments (Debye-Ang)
        XX     -46.5900     XY       0.0803     YY     -44.6913
        XZ       0.4579     YZ       0.6881     ZZ     -52.7499

 Total job time:  115.39s(wall), 458.64s(cpu)
        *  Thank you very much for using Q-Chem.  Have a nice day.  *
