 Q-Chem 5.0, Q-Chem, Inc., Pleasanton, CA (2017)
 Q-Chem 5.0.1 for Intel X86 EM64T Linux

User input:
--------------------------------------------------------------
$molecule
0  1
--
0  1
C        +0.22270000        +1.04488000        +0.58595000
C        +0.62626000        -0.41353000        +0.99871000
C        -1.18200000        +1.23223000        +0.04377000
C        -0.37457000        -1.51643000        +0.72333000
O        -2.09172000        +0.78832000        +0.93966000
O        -1.47336000        +1.75939000        -0.99882000
O        -0.91364000        -1.42792000        -0.50620000
O        -0.62208000        -2.40877000        +1.49911000
C        -1.86134000        -2.44741000        -0.86560000
C        -3.47068000        +0.87492000        +0.53920000
C        +1.33008000        +1.39974000        -0.43491000
C        +2.63070000        +1.71700000        +0.32855000
C        +3.04336000        +0.29351000        +0.80300000
C        +1.94423000        -0.59299000        +0.15262000
O        +1.62840000        +0.13663000        -1.04376000
H        +0.27811000        +1.68786000        +1.46900000
H        +0.83923000        -0.48042000        +2.06408000
H        -2.68749000        -2.46677000        -0.15296000
H        -3.76076000        +1.91522000        +0.38406000
H        +3.37234000        +2.13782000        -0.35195000
H        +2.48236000        +2.42488000        +1.14651000
H        +4.02182000        +0.00994000        +0.41161000
H        +3.07359000        +0.18738000        +1.88928000
H        -2.21148000        -2.17765000        -1.85937000
H        -1.38062000        -3.42697000        -0.88096000
H        -4.03855000        +0.43623000        +1.35671000
H        -3.63120000        +0.31700000        -0.38495000
H        +1.03270000        +2.19943000        -1.08064000
H        +2.24339000        -1.61496000        +0.04786000
--
0  1
C        +0.24774000        +2.46323000        +5.17154000
C        +0.65130000        +1.00482000        +5.58430000
C        -1.15696000        +2.65058000        +4.62936000
C        -0.34953000        -0.09808000        +5.30892000
O        -2.06668000        +2.20667000        +5.52525000
O        -1.44832000        +3.17774000        +3.58677000
O        -0.88860000        -0.00957000        +4.07939000
O        -0.59704000        -0.99042000        +6.08470000
C        -1.83630000        -1.02906000        +3.71999000
C        -3.44564000        +2.29327000        +5.12479000
C        +1.35512000        +2.81809000        +4.15068000
C        +2.65574000        +3.13535000        +4.91414000
C        +3.06840000        +1.71186000        +5.38859000
C        +1.96927000        +0.82536000        +4.73821000
O        +1.65344000        +1.55498000        +3.54183000
H        +0.30315000        +3.10621000        +6.05459000
H        +0.86427000        +0.93793000        +6.64967000
H        -2.66245000        -1.04842000        +4.43263000
H        -3.73572000        +3.33357000        +4.96965000
H        +3.39738000        +3.55617000        +4.23364000
H        +2.50740000        +3.84323000        +5.73210000
H        +4.04686000        +1.42829000        +4.99720000
H        +3.09863000        +1.60573000        +6.47487000
H        -2.18644000        -0.75930000        +2.72622000
H        -1.35558000        -2.00862000        +3.70463000
H        -4.01351000        +1.85458000        +5.94230000
H        -3.60616000        +1.73535000        +4.20064000
H        +1.05774000        +3.61778000        +3.50495000
H        +2.26843000        -0.19661000        +4.63345000
$end

$rem
JOBTYPE                   SP
METHOD                    B3LYP
DFT_D                     d3_op
BASIS                     6-311++G(d,p)
SYMMETRY                  False
THRESH                    12
SCF_CONVERGENCE           8
MAX_SUB_FILE_NUM          128
MEM_STATIC                400
MEM_TOTAL                 4000
$end
--------------------------------------------------------------

             Standard Nuclear Orientation (Angstroms)
    I     Atom           X                Y                Z
 ----------------------------------------------------------------
    1      C      -1.5980612283     0.6543252286     0.8784497100
    2      C      -1.7128784463     0.7486616273    -0.6829947718
    3      C      -2.1644160118    -0.5955705279     1.5259403446
    4      C      -2.4673936223    -0.3561432320    -1.3929217507
    5      O      -1.5845997774    -1.6977850492     1.0003913537
    6      O      -2.9634729468    -0.6258797141     2.4261467605
    7      O      -3.6239055929    -0.6668483555    -0.7796380529
    8      O      -2.1003893442    -0.8650996441    -2.4252190502
    9      C      -4.4205252151    -1.6929971916    -1.3953321765
   10      C      -2.0543287985    -2.9616794304     1.5017136981
   11      C      -2.3074321314     1.9552391042     1.3243053297
   12      C      -1.3610415219     3.1478309539     1.0851255694
   13      C      -1.4050944655     3.2465259793    -0.4673026861
   14      C      -2.4365690093     2.1413975994    -0.8302278582
   15      O      -3.3059827229     2.1444301822     0.3132447632
   16      H      -0.5397123232     0.6665395823     1.1541656066
   17      H      -0.7313073700     0.7719683772    -1.1529083251
   18      H      -3.8465847277    -2.6166177531    -1.4862814861
   19      H      -1.8437431742    -3.0538081991     2.5682993256
   20      H      -1.7659648790     4.0476323345     1.5505223488
   21      H      -0.3584585810     2.9825296376     1.4847007601
   22      H      -1.7784365910     4.2180852812    -0.7954341060
   23      H      -0.4359197964     3.0822470036    -0.9425863351
   24      H      -5.2744261748    -1.8293446770    -0.7356278456
   25      H      -4.7485066439    -1.3778204732    -2.3872783747
   26      H      -1.5126753377    -3.7174068345     0.9371470748
   27      H      -3.1294816979    -3.0560598503     1.3397470390
   28      H      -2.6398131710     1.8976982129     2.3397451771
   29      H      -2.8800788717     2.2875959557    -1.7929422949
   30      C       3.1682257036     0.1571442002     0.6040425659
   31      C       3.0534084855     0.2514805989    -0.9574019158
   32      C       2.6018709201    -1.0927515563     1.2515332006
   33      C       2.2988933095    -0.8533242604    -1.6673288947
   34      O       3.1816871545    -2.1949660776     0.7259842096
   35      O       1.8028139850    -1.1230607425     2.1517396164
   36      O       1.1423813390    -1.1640293839    -1.0540451969
   37      O       2.6658975877    -1.3622806724    -2.6996261942
   38      C       0.3457617167    -2.1901782199    -1.6697393205
   39      C       2.7119581333    -3.4588604588     1.2273065541
   40      C       2.4588548004     1.4580580758     1.0498981857
   41      C       3.4052454099     2.6506499256     0.8107184253
   42      C       3.3611924664     2.7493449509    -0.7417098301
   43      C       2.3297179225     1.6442165710    -1.1046350022
   44      O       1.4603042089     1.6472491539     0.0388376191
   45      H       4.2265746086     0.1693585540     0.8797584626
   46      H       4.0349795618     0.2747873489    -1.4273154691
   47      H       0.9197022041    -3.1137987815    -1.7606886302
   48      H       2.9225437576    -3.5509892274     2.2938921816
   49      H       3.0003220528     3.5504513062     1.2761152047
   50      H       4.4078283508     2.4853486093     1.2102936161
   51      H       2.9878503408     3.7209042528    -1.0698412501
   52      H       4.3303671355     2.5850659753    -1.2169934792
   53      H      -0.5081392430    -2.3265257054    -1.0100349896
   54      H       0.0177802879    -1.8750015015    -2.6616855187
   55      H       3.2536115941    -4.2145878629     0.6627399308
   56      H       1.6368052339    -3.5532408787     1.0653398950
   57      H       2.1264737608     1.4005171845     2.0653380331
   58      H       1.8862080601     1.7904149273    -2.0673494389
 ----------------------------------------------------------------

   15   -1531.7307985754      4.97E-09 Convergence criterion met
 Total energy in the final basis set = -1531.73079858

                    Orbital Energies (a.u.)
 --------------------------------------------------------------

 Alpha MOs
 -- Occupied --
-19.180 -19.170 -19.170 -19.169 -19.150 -19.126 -19.125 -19.115
-19.113 -19.110 -10.316 -10.306 -10.302 -10.300 -10.252 -10.243
-10.235 -10.231 -10.229 -10.228 -10.219 -10.214 -10.212 -10.212
-10.193 -10.191 -10.189 -10.189 -10.169 -10.166  -1.123  -1.115
 -1.112  -1.107  -1.079  -1.053  -1.037  -1.026  -1.025  -1.023
 -0.841  -0.820  -0.793  -0.786  -0.773  -0.767  -0.743  -0.733
 -0.725  -0.723  -0.663  -0.649  -0.617  -0.606  -0.601  -0.584
 -0.584  -0.573  -0.568  -0.561  -0.555  -0.543  -0.525  -0.513
 -0.510  -0.501  -0.500  -0.492  -0.488  -0.486  -0.480  -0.479
 -0.476  -0.474  -0.470  -0.466  -0.465  -0.451  -0.446  -0.432
 -0.430  -0.426  -0.423  -0.417  -0.416  -0.410  -0.400  -0.392
 -0.391  -0.379  -0.377  -0.376  -0.372  -0.370  -0.366  -0.364
 -0.359  -0.356  -0.352  -0.346  -0.343  -0.342  -0.326  -0.324
 -0.321  -0.316  -0.309  -0.306  -0.296  -0.291  -0.283  -0.281
 -0.275  -0.265

          Ground-State Mulliken Net Atomic Charges

     Atom                 Charge (a.u.)
  ----------------------------------------
      1 C                     0.198637
      2 C                     0.952004
      3 C                    -0.618591
      4 C                    -1.003691
      5 O                     0.009945
      6 O                    -0.163582
      7 O                     0.038739
      8 O                    -0.094941
      9 C                    -0.189754
     10 C                    -0.286200
     11 C                    -0.588982
     12 C                    -0.217293
     13 C                    -0.414008
     14 C                    -0.305637
     15 O                    -0.096119
     16 H                     0.256725
     17 H                     0.429079
     18 H                     0.184708
     19 H                     0.198340
     20 H                     0.202064
     21 H                     0.111681
     22 H                     0.195256
     23 H                     0.079475
     24 H                     0.177924
     25 H                     0.173381
     26 H                     0.119192
     27 H                     0.192718
     28 H                     0.273078
     29 H                     0.258509
     30 C                    -0.061611
     31 C                     0.228561
     32 C                    -0.498299
     33 C                    -0.509786
     34 O                     0.045920
     35 O                    -0.112560
     36 O                     0.006686
     37 O                    -0.138005
     38 C                    -0.444752
     39 C                    -0.166640
     40 C                    -0.160251
     41 C                    -0.696109
     42 C                    -0.506709
     43 C                    -0.101423
     44 O                     0.231326
     45 H                     0.247587
     46 H                     0.295949
     47 H                     0.219587
     48 H                     0.168539
     49 H                     0.178174
     50 H                     0.143034
     51 H                     0.179400
     52 H                     0.133044
     53 H                     0.121473
     54 H                     0.245504
     55 H                     0.169916
     56 H                     0.186029
     57 H                     0.271022
     58 H                     0.251738
  ----------------------------------------
  Sum of atomic charges =    -0.000000

                    Cartesian Multipole Moments
 -----------------------------------------------------------------
    Charge (ESU x 10^10)
                -0.0000
    Dipole Moment (Debye)
         X       3.4660      Y      -0.1423      Z       0.5490
       Tot       3.5121
    Quadrupole Moments (Debye-Ang)
        XX    -175.2314     XY      15.6568     YY    -155.8634
        XZ      17.0220     YZ      -7.7855     ZZ    -194.1579

 Total job time:  7923.58s(wall), 7904.72s(cpu)
        *  Thank you very much for using Q-Chem.  Have a nice day.  *
