 Q-Chem 5.0, Q-Chem, Inc., Pleasanton, CA (2017)
 Q-Chem 5.0.1 for Intel X86 EM64T Linux

User input:
--------------------------------------------------------------
$molecule
0  1
C        +0.24774000        +2.46323000        +5.17154000
C        +0.65130000        +1.00482000        +5.58430000
C        -1.15696000        +2.65058000        +4.62936000
C        -0.34953000        -0.09808000        +5.30892000
O        -2.06668000        +2.20667000        +5.52525000
O        -1.44832000        +3.17774000        +3.58677000
O        -0.88860000        -0.00957000        +4.07939000
O        -0.59704000        -0.99042000        +6.08470000
C        -1.83630000        -1.02906000        +3.71999000
C        -3.44564000        +2.29327000        +5.12479000
C        +1.35512000        +2.81809000        +4.15068000
C        +2.65574000        +3.13535000        +4.91414000
C        +3.06840000        +1.71186000        +5.38859000
C        +1.96927000        +0.82536000        +4.73821000
O        +1.65344000        +1.55498000        +3.54183000
H        +0.30315000        +3.10621000        +6.05459000
H        +0.86427000        +0.93793000        +6.64967000
H        -2.66245000        -1.04842000        +4.43263000
H        -3.73572000        +3.33357000        +4.96965000
H        +3.39738000        +3.55617000        +4.23364000
H        +2.50740000        +3.84323000        +5.73210000
H        +4.04686000        +1.42829000        +4.99720000
H        +3.09863000        +1.60573000        +6.47487000
H        -2.18644000        -0.75930000        +2.72622000
H        -1.35558000        -2.00862000        +3.70463000
H        -4.01351000        +1.85458000        +5.94230000
H        -3.60616000        +1.73535000        +4.20064000
H        +1.05774000        +3.61778000        +3.50495000
H        +2.26843000        -0.19661000        +4.63345000
@C        +0.22270000        +1.04488000        +0.58595000
@C        +0.62626000        -0.41353000        +0.99871000
@C        -1.18200000        +1.23223000        +0.04377000
@C        -0.37457000        -1.51643000        +0.72333000
@O        -2.09172000        +0.78832000        +0.93966000
@O        -1.47336000        +1.75939000        -0.99882000
@O        -0.91364000        -1.42792000        -0.50620000
@O        -0.62208000        -2.40877000        +1.49911000
@C        -1.86134000        -2.44741000        -0.86560000
@C        -3.47068000        +0.87492000        +0.53920000
@C        +1.33008000        +1.39974000        -0.43491000
@C        +2.63070000        +1.71700000        +0.32855000
@C        +3.04336000        +0.29351000        +0.80300000
@C        +1.94423000        -0.59299000        +0.15262000
@O        +1.62840000        +0.13663000        -1.04376000
@H        +0.27811000        +1.68786000        +1.46900000
@H        +0.83923000        -0.48042000        +2.06408000
@H        -2.68749000        -2.46677000        -0.15296000
@H        -3.76076000        +1.91522000        +0.38406000
@H        +3.37234000        +2.13782000        -0.35195000
@H        +2.48236000        +2.42488000        +1.14651000
@H        +4.02182000        +0.00994000        +0.41161000
@H        +3.07359000        +0.18738000        +1.88928000
@H        -2.21148000        -2.17765000        -1.85937000
@H        -1.38062000        -3.42697000        -0.88096000
@H        -4.03855000        +0.43623000        +1.35671000
@H        -3.63120000        +0.31700000        -0.38495000
@H        +1.03270000        +2.19943000        -1.08064000
@H        +2.24339000        -1.61496000        +0.04786000
$end

$rem
JOBTYPE                   SP
METHOD                    B3LYP
DFT_D                     d3_op
BASIS                     6-311++G(d,p)
SYMMETRY                  False
THRESH                    12
SCF_CONVERGENCE           8
MAX_SUB_FILE_NUM          128
MEM_STATIC                400
MEM_TOTAL                 4000
$end
--------------------------------------------------------------

             Standard Nuclear Orientation (Angstroms)
    I     Atom           X                Y                Z
 ----------------------------------------------------------------
    1      C       0.2477400000     2.4632300000     5.1715400000
    2      C       0.6513000000     1.0048200000     5.5843000000
    3      C      -1.1569600000     2.6505800000     4.6293600000
    4      C      -0.3495300000    -0.0980800000     5.3089200000
    5      O      -2.0666800000     2.2066700000     5.5252500000
    6      O      -1.4483200000     3.1777400000     3.5867700000
    7      O      -0.8886000000    -0.0095700000     4.0793900000
    8      O      -0.5970400000    -0.9904200000     6.0847000000
    9      C      -1.8363000000    -1.0290600000     3.7199900000
   10      C      -3.4456400000     2.2932700000     5.1247900000
   11      C       1.3551200000     2.8180900000     4.1506800000
   12      C       2.6557400000     3.1353500000     4.9141400000
   13      C       3.0684000000     1.7118600000     5.3885900000
   14      C       1.9692700000     0.8253600000     4.7382100000
   15      O       1.6534400000     1.5549800000     3.5418300000
   16      H       0.3031500000     3.1062100000     6.0545900000
   17      H       0.8642700000     0.9379300000     6.6496700000
   18      H      -2.6624500000    -1.0484200000     4.4326300000
   19      H      -3.7357200000     3.3335700000     4.9696500000
   20      H       3.3973800000     3.5561700000     4.2336400000
   21      H       2.5074000000     3.8432300000     5.7321000000
   22      H       4.0468600000     1.4282900000     4.9972000000
   23      H       3.0986300000     1.6057300000     6.4748700000
   24      H      -2.1864400000    -0.7593000000     2.7262200000
   25      H      -1.3555800000    -2.0086200000     3.7046300000
   26      H      -4.0135100000     1.8545800000     5.9423000000
   27      H      -3.6061600000     1.7353500000     4.2006400000
   28      H       1.0577400000     3.6177800000     3.5049500000
   29      H       2.2684300000    -0.1966100000     4.6334500000
   30      GH      0.2227000000     1.0448800000     0.5859500000
   31      GH      0.6262600000    -0.4135300000     0.9987100000
   32      GH     -1.1820000000     1.2322300000     0.0437700000
   33      GH     -0.3745700000    -1.5164300000     0.7233300000
   34      GH     -2.0917200000     0.7883200000     0.9396600000
   35      GH     -1.4733600000     1.7593900000    -0.9988200000
   36      GH     -0.9136400000    -1.4279200000    -0.5062000000
   37      GH     -0.6220800000    -2.4087700000     1.4991100000
   38      GH     -1.8613400000    -2.4474100000    -0.8656000000
   39      GH     -3.4706800000     0.8749200000     0.5392000000
   40      GH      1.3300800000     1.3997400000    -0.4349100000
   41      GH      2.6307000000     1.7170000000     0.3285500000
   42      GH      3.0433600000     0.2935100000     0.8030000000
   43      GH      1.9442300000    -0.5929900000     0.1526200000
   44      GH      1.6284000000     0.1366300000    -1.0437600000
   45      GH      0.2781100000     1.6878600000     1.4690000000
   46      GH      0.8392300000    -0.4804200000     2.0640800000
   47      GH     -2.6874900000    -2.4667700000    -0.1529600000
   48      GH     -3.7607600000     1.9152200000     0.3840600000
   49      GH      3.3723400000     2.1378200000    -0.3519500000
   50      GH      2.4823600000     2.4248800000     1.1465100000
   51      GH      4.0218200000     0.0099400000     0.4116100000
   52      GH      3.0735900000     0.1873800000     1.8892800000
   53      GH     -2.2114800000    -2.1776500000    -1.8593700000
   54      GH     -1.3806200000    -3.4269700000    -0.8809600000
   55      GH     -4.0385500000     0.4362300000     1.3567100000
   56      GH     -3.6312000000     0.3170000000    -0.3849500000
   57      GH      1.0327000000     2.1994300000    -1.0806400000
   58      GH      2.2433900000    -1.6149600000     0.0478600000
 ----------------------------------------------------------------

   14    -765.8596611181      6.73E-09 Convergence criterion met
 Total energy in the final basis set = -765.85966112

                    Orbital Energies (a.u.)
 --------------------------------------------------------------

 Alpha MOs
 -- Occupied --
-19.176 -19.174 -19.136 -19.120 -19.116 -10.310 -10.306 -10.242
-10.232 -10.232 -10.230 -10.207 -10.206 -10.182 -10.180  -1.120
 -1.113  -1.065  -1.031  -1.027  -0.833  -0.785  -0.778  -0.740
 -0.729  -0.659  -0.610  -0.596  -0.580  -0.567  -0.551  -0.520
 -0.506  -0.496  -0.489  -0.484  -0.475  -0.473  -0.462  -0.439
 -0.427  -0.425  -0.418  -0.399  -0.385  -0.376  -0.371  -0.368
 -0.362  -0.356  -0.337  -0.334  -0.320  -0.313  -0.290  -0.282
 -0.276

          Ground-State Mulliken Net Atomic Charges

     Atom                 Charge (a.u.)
  ----------------------------------------
      1 C                    -0.099763
      2 C                     0.210512
      3 C                    -0.536817
      4 C                    -0.519157
      5 O                     0.042409
      6 O                    -0.099354
      7 O                    -0.004219
      8 O                    -0.141584
      9 C                    -0.407880
     10 C                    -0.162262
     11 C                    -0.063104
     12 C                    -0.689894
     13 C                    -0.509803
     14 C                    -0.030483
     15 O                     0.224130
     16 H                     0.241792
     17 H                     0.289786
     18 H                     0.240255
     19 H                     0.168416
     20 H                     0.178884
     21 H                     0.136369
     22 H                     0.177463
     23 H                     0.128061
     24 H                     0.086034
     25 H                     0.215918
     26 H                     0.168420
     27 H                     0.190104
     28 H                     0.268671
     29 H                     0.251962
     30 GH                    0.013442
     31 GH                    0.010364
     32 GH                    0.012924
     33 GH                    0.073789
     34 GH                   -0.020053
     35 GH                    0.000227
     36 GH                   -0.001270
     37 GH                   -0.004634
     38 GH                    0.005308
     39 GH                    0.006922
     40 GH                   -0.067213
     41 GH                    0.016642
     42 GH                   -0.028398
     43 GH                    0.005068
     44 GH                   -0.000983
     45 GH                   -0.004937
     46 GH                    0.030856
     47 GH                    0.001558
     48 GH                    0.002017
     49 GH                   -0.004528
     50 GH                    0.001957
     51 GH                   -0.004258
     52 GH                   -0.002482
     53 GH                    0.000267
     54 GH                   -0.000360
     55 GH                    0.002571
     56 GH                    0.000285
     57 GH                   -0.000099
     58 GH                    0.000148
  ----------------------------------------
  Sum of atomic charges =     0.000000

                    Cartesian Multipole Moments
 -----------------------------------------------------------------
    Charge (ESU x 10^10)
                 0.0000
    Dipole Moment (Debye)
         X      -0.0058      Y       0.7324      Z       1.2015
       Tot       1.4071
    Quadrupole Moments (Debye-Ang)
        XX     -75.2036     XY       2.9452     YY     -87.6517
        XZ       3.3306     YZ      15.7421     ZZ     -84.8060

 Total job time:  7384.14s(wall), 7366.56s(cpu)
        *  Thank you very much for using Q-Chem.  Have a nice day.  *
