 Q-Chem 5.0, Q-Chem, Inc., Pleasanton, CA (2017)
 Q-Chem 5.0.1 for Intel X86 EM64T Linux

User input:
--------------------------------------------------------------
$molecule
0  1
--
0  1
C        -0.54444000        -0.68370000        -0.06689000
C        -0.55709000        +0.71878000        +0.05493000
C        +0.74969000        -1.43776000        -0.09374000
C        +0.72843000        +1.48436000        +0.06598000
O        +1.53645000        -1.09176000        +0.94813000
O        +1.04702000        -2.28405000        -0.90088000
O        +1.53784000        +1.08301000        -0.93877000
O        +1.01035000        +2.37097000        +0.83478000
C        +2.83449000        +1.70121000        -0.99358000
C        +2.82316000        -1.73208000        +1.00475000
C        -1.74320000        -1.41616000        -0.12552000
C        -2.93952000        -0.70056000        -0.05285000
C        -2.95313000        +0.68255000        +0.06934000
C        -1.77161000        +1.42404000        +0.12810000
H        +2.73835000        +2.77989000        -1.12464000
H        +2.70778000        -2.81319000        +1.09555000
H        -3.90354000        +1.20325000        +0.11710000
H        +3.38998000        +1.50093000        -0.07544000
H        +3.33184000        +1.25269000        -1.85067000
H        +3.31095000        -1.32281000        +1.88650000
H        +3.39889000        -1.50934000        +0.10459000
H        -3.87892000        -1.24211000        -0.08988000
H        -1.78886000        +2.45164000        +0.22176000
H        -1.73878000        -2.44393000        -0.21875000
--
0  1
C        -0.51141000        -1.10222000        +4.71472000
C        -0.52406000        +0.30026000        +4.83654000
C        +0.78272000        -1.85628000        +4.68787000
C        +0.76146000        +1.06584000        +4.84759000
O        +1.56948000        -1.51028000        +5.72974000
O        +1.08005000        -2.70257000        +3.88073000
O        +1.57087000        +0.66449000        +3.84284000
O        +1.04338000        +1.95245000        +5.61639000
C        +2.86752000        +1.28269000        +3.78803000
C        +2.85619000        -2.15060000        +5.78636000
C        -1.71017000        -1.83468000        +4.65609000
C        -2.90649000        -1.11908000        +4.72876000
C        -2.92010000        +0.26403000        +4.85095000
C        -1.73858000        +1.00552000        +4.90971000
H        +2.77138000        +2.36137000        +3.65697000
H        +2.74081000        -3.23171000        +5.87716000
H        -3.87051000        +0.78473000        +4.89871000
H        +3.42301000        +1.08241000        +4.70617000
H        +3.36487000        +0.83417000        +2.93094000
H        +3.34398000        -1.74133000        +6.66811000
H        +3.43192000        -1.92786000        +4.88620000
H        -3.84589000        -1.66063000        +4.69173000
H        -1.75583000        +2.03312000        +5.00337000
H        -1.70575000        -2.86245000        +4.56286000
$end

$rem
JOBTYPE                   SP
METHOD                    B3LYP
DFT_D                     d3_op
BASIS                     6-311++G(d,p)
SYMMETRY                  False
THRESH                    12
SCF_CONVERGENCE           8
MAX_SUB_FILE_NUM          128
MEM_STATIC                400
MEM_TOTAL                 4000
$end
--------------------------------------------------------------

             Standard Nuclear Orientation (Angstroms)
    I     Atom           X                Y                Z
 ----------------------------------------------------------------
    1      C      -2.3617047020     0.8027675415     0.8561187608
    2      C      -2.4557998861     0.8234189052    -0.5483989154
    3      C      -2.2560801526    -0.4949879957     1.5969115005
    4      C      -2.5450476920    -0.4583674163    -1.3151160499
    5      O      -1.2691138144    -1.2655910394     1.0906815225
    6      O      -2.9204623549    -0.8073373259     2.5545758769
    7      O      -3.4659922628    -1.2834949132    -0.7703457822
    8      O      -1.9171346165    -0.7255589435    -2.3105774886
    9      C      -3.5976546272    -2.5779903093    -1.3814294835
   10      C      -1.0984840825    -2.5542529725     1.7063714345
   11      C      -2.3233998598     1.9972891008     1.5968019925
   12      C      -2.3765898634     3.1977106525     0.8863762377
   13      C      -2.4673721169     3.2192399843    -0.4990493181
   14      C      -2.5071538973     2.0419989860    -1.2485629670
   15      H      -3.8932515837    -2.4788371915    -2.4267817036
   16      H      -0.8450668735    -2.4424806563     2.7616641351
   17      H      -2.5121780787     4.1725545679    -1.0146774847
   18      H      -2.6525049558    -3.1215281396    -1.3273831730
   19      H      -4.3695609494    -3.0892458780    -0.8105452096
   20      H      -0.2833230204    -3.0278646684     1.1640352991
   21      H      -2.0144984957    -3.1414623880     1.6199488484
   22      H      -2.3427196410     4.1340592786     1.4333899868
   23      H      -2.5718519020     2.0651720855    -2.2782758851
   24      H      -2.2584188230     1.9869498533     2.6267015541
   25      C       2.4277211802     0.8344848367     0.5391993775
   26      C       2.3336259961     0.8551362004    -0.8653182987
   27      C       2.5333457296    -0.4632707005     1.2799921172
   28      C       2.2443781902    -0.4266501212    -1.6320354333
   29      O       3.5203120678    -1.2338737442     0.7737621392
   30      O       1.8689635273    -0.7756200307     2.2376564936
   31      O       1.3234336194    -1.2517776180    -1.0872651656
   32      O       2.8722912657    -0.6938416483    -2.6274968719
   33      C       1.1917712550    -2.5462730141    -1.6983488668
   34      C       3.6909417997    -2.5225356773     1.3894520512
   35      C       2.4660260223     2.0290063960     1.2798826092
   36      C       2.4128360188     3.2294279476     0.5694568544
   37      C       2.3220537653     3.2509572795    -0.8159687014
   38      C       2.2822719849     2.0737162812    -1.5654823503
   39      H       0.8961742985    -2.4471198964    -2.7437010870
   40      H       3.9443590087    -2.4107633612     2.4447447518
   41      H       2.2772478035     4.2042718631    -1.3315968680
   42      H       2.1369209264    -3.0898108444    -1.6443025564
   43      H       0.4198649328    -3.0575285828    -1.1274645929
   44      H       4.5061028618    -2.9961473732     0.8471159157
   45      H       2.7749273865    -3.1097450928     1.3030294651
   46      H       2.4467062412     4.1657765738     1.1164706035
   47      H       2.2175739802     2.0968893806    -2.5951952684
   48      H       2.5310070592     2.0186671485     2.3097821708
 ----------------------------------------------------------------

   15   -1376.4280604006      6.59E-09 Convergence criterion met
 Total energy in the final basis set = -1376.42806040

                    Orbital Energies (a.u.)
 --------------------------------------------------------------

 Alpha MOs
 -- Occupied --
-19.178 -19.177 -19.171 -19.169 -19.121 -19.121 -19.116 -19.114
-10.313 -10.313 -10.308 -10.307 -10.234 -10.234 -10.227 -10.226
-10.212 -10.211 -10.210 -10.210 -10.195 -10.195 -10.195 -10.194
-10.194 -10.194 -10.194 -10.193  -1.121  -1.120  -1.111  -1.110
 -1.032  -1.032  -1.026  -1.025  -0.884  -0.883  -0.797  -0.796
 -0.784  -0.783  -0.741  -0.740  -0.730  -0.728  -0.653  -0.653
 -0.643  -0.642  -0.593  -0.592  -0.576  -0.575  -0.552  -0.550
 -0.521  -0.520  -0.513  -0.511  -0.491  -0.491  -0.487  -0.487
 -0.483  -0.479  -0.477  -0.473  -0.469  -0.468  -0.465  -0.464
 -0.439  -0.436  -0.430  -0.425  -0.413  -0.413  -0.405  -0.403
 -0.386  -0.386  -0.385  -0.382  -0.382  -0.379  -0.367  -0.366
 -0.363  -0.358  -0.321  -0.320  -0.310  -0.309  -0.299  -0.298
 -0.293  -0.291  -0.273  -0.271  -0.269  -0.267

          Ground-State Mulliken Net Atomic Charges

     Atom                 Charge (a.u.)
  ----------------------------------------
      1 C                     0.909037
      2 C                     0.784484
      3 C                    -0.660017
      4 C                    -0.782311
      5 O                     0.098367
      6 O                    -0.169369
      7 O                     0.090045
      8 O                    -0.132279
      9 C                    -0.166293
     10 C                    -0.357364
     11 C                    -0.302433
     12 C                    -0.310264
     13 C                    -0.267068
     14 C                    -0.506518
     15 H                     0.169533
     16 H                     0.213530
     17 H                     0.180092
     18 H                     0.179413
     19 H                     0.172455
     20 H                     0.088943
     21 H                     0.188943
     22 H                     0.177665
     23 H                     0.197230
     24 H                     0.206705
     25 C                     0.770692
     26 C                     0.944086
     27 C                    -0.845804
     28 C                    -0.625581
     29 O                     0.098313
     30 O                    -0.121400
     31 O                     0.078176
     32 O                    -0.171498
     33 C                    -0.363157
     34 C                    -0.160051
     35 C                    -0.494597
     36 C                    -0.263771
     37 C                    -0.315165
     38 C                    -0.308664
     39 H                     0.215677
     40 H                     0.168472
     41 H                     0.177567
     42 H                     0.193852
     43 H                     0.086240
     44 H                     0.172154
     45 H                     0.178517
     46 H                     0.180393
     47 H                     0.207214
     48 H                     0.195808
  ----------------------------------------
  Sum of atomic charges =     0.000000

                    Cartesian Multipole Moments
 -----------------------------------------------------------------
    Charge (ESU x 10^10)
                 0.0000
    Dipole Moment (Debye)
         X       0.1957      Y       0.2077      Z       0.2024
       Tot       0.3498
    Quadrupole Moments (Debye-Ang)
        XX    -169.6204     XY      -0.8821     YY    -125.2190
        XZ      18.8116     YZ       0.5653     ZZ    -174.4655

 Total job time:  1318.65s(wall), 2623.53s(cpu)
        *  Thank you very much for using Q-Chem.  Have a nice day.  *
