 Q-Chem 5.0, Q-Chem, Inc., Pleasanton, CA (2017)
 Q-Chem 5.0.1 for Intel X86 EM64T Linux

User input:
--------------------------------------------------------------
$molecule
0  1
C        -0.54444000        -0.68370000        -0.06689000
C        -0.55709000        +0.71878000        +0.05493000
C        +0.74969000        -1.43776000        -0.09374000
C        +0.72843000        +1.48436000        +0.06598000
O        +1.53645000        -1.09176000        +0.94813000
O        +1.04702000        -2.28405000        -0.90088000
O        +1.53784000        +1.08301000        -0.93877000
O        +1.01035000        +2.37097000        +0.83478000
C        +2.83449000        +1.70121000        -0.99358000
C        +2.82316000        -1.73208000        +1.00475000
C        -1.74320000        -1.41616000        -0.12552000
C        -2.93952000        -0.70056000        -0.05285000
C        -2.95313000        +0.68255000        +0.06934000
C        -1.77161000        +1.42404000        +0.12810000
H        +2.73835000        +2.77989000        -1.12464000
H        +2.70778000        -2.81319000        +1.09555000
H        -3.90354000        +1.20325000        +0.11710000
H        +3.38998000        +1.50093000        -0.07544000
H        +3.33184000        +1.25269000        -1.85067000
H        +3.31095000        -1.32281000        +1.88650000
H        +3.39889000        -1.50934000        +0.10459000
H        -3.87892000        -1.24211000        -0.08988000
H        -1.78886000        +2.45164000        +0.22176000
H        -1.73878000        -2.44393000        -0.21875000
@C        -0.51141000        -1.10222000        +4.71472000
@C        -0.52406000        +0.30026000        +4.83654000
@C        +0.78272000        -1.85628000        +4.68787000
@C        +0.76146000        +1.06584000        +4.84759000
@O        +1.56948000        -1.51028000        +5.72974000
@O        +1.08005000        -2.70257000        +3.88073000
@O        +1.57087000        +0.66449000        +3.84284000
@O        +1.04338000        +1.95245000        +5.61639000
@C        +2.86752000        +1.28269000        +3.78803000
@C        +2.85619000        -2.15060000        +5.78636000
@C        -1.71017000        -1.83468000        +4.65609000
@C        -2.90649000        -1.11908000        +4.72876000
@C        -2.92010000        +0.26403000        +4.85095000
@C        -1.73858000        +1.00552000        +4.90971000
@H        +2.77138000        +2.36137000        +3.65697000
@H        +2.74081000        -3.23171000        +5.87716000
@H        -3.87051000        +0.78473000        +4.89871000
@H        +3.42301000        +1.08241000        +4.70617000
@H        +3.36487000        +0.83417000        +2.93094000
@H        +3.34398000        -1.74133000        +6.66811000
@H        +3.43192000        -1.92786000        +4.88620000
@H        -3.84589000        -1.66063000        +4.69173000
@H        -1.75583000        +2.03312000        +5.00337000
@H        -1.70575000        -2.86245000        +4.56286000
$end

$rem
JOBTYPE                   SP
METHOD                    B3LYP
DFT_D                     d3_op
BASIS                     6-311++G(d,p)
SYMMETRY                  False
THRESH                    12
SCF_CONVERGENCE           8
MAX_SUB_FILE_NUM          128
MEM_STATIC                400
MEM_TOTAL                 4000
$end
--------------------------------------------------------------

             Standard Nuclear Orientation (Angstroms)
    I     Atom           X                Y                Z
 ----------------------------------------------------------------
    1      C      -0.5444400000    -0.6837000000    -0.0668900000
    2      C      -0.5570900000     0.7187800000     0.0549300000
    3      C       0.7496900000    -1.4377600000    -0.0937400000
    4      C       0.7284300000     1.4843600000     0.0659800000
    5      O       1.5364500000    -1.0917600000     0.9481300000
    6      O       1.0470200000    -2.2840500000    -0.9008800000
    7      O       1.5378400000     1.0830100000    -0.9387700000
    8      O       1.0103500000     2.3709700000     0.8347800000
    9      C       2.8344900000     1.7012100000    -0.9935800000
   10      C       2.8231600000    -1.7320800000     1.0047500000
   11      C      -1.7432000000    -1.4161600000    -0.1255200000
   12      C      -2.9395200000    -0.7005600000    -0.0528500000
   13      C      -2.9531300000     0.6825500000     0.0693400000
   14      C      -1.7716100000     1.4240400000     0.1281000000
   15      H       2.7383500000     2.7798900000    -1.1246400000
   16      H       2.7077800000    -2.8131900000     1.0955500000
   17      H      -3.9035400000     1.2032500000     0.1171000000
   18      H       3.3899800000     1.5009300000    -0.0754400000
   19      H       3.3318400000     1.2526900000    -1.8506700000
   20      H       3.3109500000    -1.3228100000     1.8865000000
   21      H       3.3988900000    -1.5093400000     0.1045900000
   22      H      -3.8789200000    -1.2421100000    -0.0898800000
   23      H      -1.7888600000     2.4516400000     0.2217600000
   24      H      -1.7387800000    -2.4439300000    -0.2187500000
   25      GH     -0.5114100000    -1.1022200000     4.7147200000
   26      GH     -0.5240600000     0.3002600000     4.8365400000
   27      GH      0.7827200000    -1.8562800000     4.6878700000
   28      GH      0.7614600000     1.0658400000     4.8475900000
   29      GH      1.5694800000    -1.5102800000     5.7297400000
   30      GH      1.0800500000    -2.7025700000     3.8807300000
   31      GH      1.5708700000     0.6644900000     3.8428400000
   32      GH      1.0433800000     1.9524500000     5.6163900000
   33      GH      2.8675200000     1.2826900000     3.7880300000
   34      GH      2.8561900000    -2.1506000000     5.7863600000
   35      GH     -1.7101700000    -1.8346800000     4.6560900000
   36      GH     -2.9064900000    -1.1190800000     4.7287600000
   37      GH     -2.9201000000     0.2640300000     4.8509500000
   38      GH     -1.7385800000     1.0055200000     4.9097100000
   39      GH      2.7713800000     2.3613700000     3.6569700000
   40      GH      2.7408100000    -3.2317100000     5.8771600000
   41      GH     -3.8705100000     0.7847300000     4.8987100000
   42      GH      3.4230100000     1.0824100000     4.7061700000
   43      GH      3.3648700000     0.8341700000     2.9309400000
   44      GH      3.3439800000    -1.7413300000     6.6681100000
   45      GH      3.4319200000    -1.9278600000     4.8862000000
   46      GH     -3.8458900000    -1.6606300000     4.6917300000
   47      GH     -1.7558300000     2.0331200000     5.0033700000
   48      GH     -1.7057500000    -2.8624500000     4.5628600000
 ----------------------------------------------------------------

   14    -688.2113162441      5.74E-09 Convergence criterion met
 Total energy in the final basis set = -688.21131624

                    Orbital Energies (a.u.)
 --------------------------------------------------------------

 Alpha MOs
 -- Occupied --
-19.178 -19.178 -19.122 -19.122 -10.314 -10.314 -10.233 -10.233
-10.215 -10.214 -10.198 -10.198 -10.197 -10.197  -1.123  -1.116
 -1.033  -1.032  -0.887  -0.800  -0.787  -0.744  -0.733  -0.656
 -0.646  -0.596  -0.579  -0.555  -0.524  -0.516  -0.493  -0.492
 -0.485  -0.479  -0.472  -0.468  -0.440  -0.431  -0.416  -0.408
 -0.389  -0.387  -0.384  -0.369  -0.366  -0.324  -0.315  -0.301
 -0.297  -0.275  -0.272

          Ground-State Mulliken Net Atomic Charges

     Atom                 Charge (a.u.)
  ----------------------------------------
      1 C                     0.930944
      2 C                     0.787455
      3 C                    -0.638123
      4 C                    -0.811600
      5 O                     0.087451
      6 O                    -0.163808
      7 O                     0.085206
      8 O                    -0.116534
      9 C                    -0.163304
     10 C                    -0.376499
     11 C                    -0.301795
     12 C                    -0.309006
     13 C                    -0.270447
     14 C                    -0.517491
     15 H                     0.169102
     16 H                     0.203717
     17 H                     0.184338
     18 H                     0.183889
     19 H                     0.171980
     20 H                     0.114493
     21 H                     0.194087
     22 H                     0.181939
     23 H                     0.200751
     24 H                     0.206329
     25 GH                   -0.031556
     26 GH                   -0.041130
     27 GH                    0.066124
     28 GH                   -0.027828
     29 GH                    0.000355
     30 GH                   -0.006420
     31 GH                   -0.014126
     32 GH                    0.000851
     33 GH                    0.005965
     34 GH                   -0.009493
     35 GH                    0.028910
     36 GH                    0.002897
     37 GH                   -0.003599
     38 GH                   -0.005689
     39 GH                    0.000684
     40 GH                    0.000544
     41 GH                   -0.000270
     42 GH                    0.001574
     43 GH                   -0.003377
     44 GH                   -0.000637
     45 GH                    0.003274
     46 GH                    0.000120
     47 GH                    0.000321
     48 GH                   -0.000570
  ----------------------------------------
  Sum of atomic charges =     0.000000

                    Cartesian Multipole Moments
 -----------------------------------------------------------------
    Charge (ESU x 10^10)
                 0.0000
    Dipole Moment (Debye)
         X      -0.0493      Y      -0.1149      Z       0.0876
       Tot       0.1527
    Quadrupole Moments (Debye-Ang)
        XX     -61.3618     XY      -0.0399     YY     -84.3366
        XZ       0.0586     YZ      -9.7105     ZZ     -87.0197

 Total job time:  1233.54s(wall), 2450.64s(cpu)
        *  Thank you very much for using Q-Chem.  Have a nice day.  *
