 Q-Chem 5.0, Q-Chem, Inc., Pleasanton, CA (2017)
 Q-Chem 5.0.1 for Intel X86 EM64T Linux

User input:
--------------------------------------------------------------
$molecule
0  1
--
0  1
C        +0.22270000        +1.04488000        +0.58595000
C        +0.62626000        -0.41353000        +0.99871000
C        -1.18200000        +1.23223000        +0.04377000
C        -0.37457000        -1.51643000        +0.72333000
O        -2.09172000        +0.78832000        +0.93966000
O        -1.47336000        +1.75939000        -0.99882000
O        -0.91364000        -1.42792000        -0.50620000
O        -0.62208000        -2.40877000        +1.49911000
C        -1.86134000        -2.44741000        -0.86560000
C        -3.47068000        +0.87492000        +0.53920000
C        +1.33008000        +1.39974000        -0.43491000
C        +2.63070000        +1.71700000        +0.32855000
C        +3.04336000        +0.29351000        +0.80300000
C        +1.94423000        -0.59299000        +0.15262000
O        +1.62840000        +0.13663000        -1.04376000
H        +0.27811000        +1.68786000        +1.46900000
H        +0.83923000        -0.48042000        +2.06408000
H        -2.68749000        -2.46677000        -0.15296000
H        -3.76076000        +1.91522000        +0.38406000
H        +3.37234000        +2.13782000        -0.35195000
H        +2.48236000        +2.42488000        +1.14651000
H        +4.02182000        +0.00994000        +0.41161000
H        +3.07359000        +0.18738000        +1.88928000
H        -2.21148000        -2.17765000        -1.85937000
H        -1.38062000        -3.42697000        -0.88096000
H        -4.03855000        +0.43623000        +1.35671000
H        -3.63120000        +0.31700000        -0.38495000
C        +2.35450000        -2.01267000        -0.16812000
H        +3.26311000        -2.00678000        -0.77366000
H        +2.54990000        -2.57059000        +0.75079000
H        +1.57335000        -2.52896000        -0.72872000
H        +1.03270000        +2.19943000        -1.08064000
--
0  1
C        +0.24774000        +2.46323000        +5.17154000
C        +0.65130000        +1.00482000        +5.58430000
C        -1.15696000        +2.65058000        +4.62936000
C        -0.34953000        -0.09808000        +5.30892000
O        -2.06668000        +2.20667000        +5.52525000
O        -1.44832000        +3.17774000        +3.58677000
O        -0.88860000        -0.00957000        +4.07939000
O        -0.59704000        -0.99042000        +6.08470000
C        -1.83630000        -1.02906000        +3.71999000
C        -3.44564000        +2.29327000        +5.12479000
C        +1.35512000        +2.81809000        +4.15068000
C        +2.65574000        +3.13535000        +4.91414000
C        +3.06840000        +1.71186000        +5.38859000
C        +1.96927000        +0.82536000        +4.73821000
O        +1.65344000        +1.55498000        +3.54183000
H        +0.30315000        +3.10621000        +6.05459000
H        +0.86427000        +0.93793000        +6.64967000
H        -2.66245000        -1.04842000        +4.43263000
H        -3.73572000        +3.33357000        +4.96965000
H        +3.39738000        +3.55617000        +4.23364000
H        +2.50740000        +3.84323000        +5.73210000
H        +4.04686000        +1.42829000        +4.99720000
H        +3.09863000        +1.60573000        +6.47487000
H        -2.18644000        -0.75930000        +2.72622000
H        -1.35558000        -2.00862000        +3.70463000
H        -4.01351000        +1.85458000        +5.94230000
H        -3.60616000        +1.73535000        +4.20064000
C        +2.37954000        -0.59432000        +4.41747000
H        +3.28815000        -0.58843000        +3.81193000
H        +2.57494000        -1.15224000        +5.33638000
H        +1.59839000        -1.11061000        +3.85687000
H        +1.05774000        +3.61778000        +3.50495000
$end

$rem
JOBTYPE                   SP
METHOD                    B3LYP
DFT_D                     d3_op
BASIS                     6-311++G(d,p)
SYMMETRY                  False
THRESH                    12
SCF_CONVERGENCE           8
MAX_SUB_FILE_NUM          128
MEM_STATIC                400
MEM_TOTAL                 4000
$end
--------------------------------------------------------------

             Standard Nuclear Orientation (Angstroms)
    I     Atom           X                Y                Z
 ----------------------------------------------------------------
    1      C      -1.5332415706     0.2180250080     1.1390178577
    2      C      -1.6999432981     0.5809503820    -0.3777836871
    3      C      -2.0018905934    -1.1617841721     1.5617896458
    4      C      -2.4055445923    -0.4272564010    -1.2606931614
    5      O      -1.3709834896    -2.1121296206     0.8364861139
    6      O      -2.7704893061    -1.4045276985     2.4562804632
    7      O      -3.5219616595    -0.9178438747    -0.6922643017
    8      O      -2.0386109811    -0.7190017687    -2.3740712865
    9      C      -4.2716284081    -1.8683762756    -1.4676038601
   10      C      -1.7467064824    -3.4732874855     1.1112222647
   11      C      -2.3080305994     1.3690827916     1.8239552004
   12      C      -1.4445854466     2.6450646334     1.7856110862
   13      C      -1.5406906590     3.0153387033     0.2771762154
   14      C      -2.5122848519     1.9267659499    -0.2594588899
   15      O      -3.3459154476     1.6688172165     0.8815676297
   16      H      -0.4699515256     0.2508516655     1.3931979943
   17      H      -0.7360594154     0.7522951555    -0.8536119747
   18      H      -3.6447137701    -2.7211082559    -1.7332739719
   19      H      -1.4992807083    -3.7396506701     2.1399448008
   20      H      -1.8902990362     3.4189341456     2.4122409499
   21      H      -0.4222961946     2.4778770314     2.1307638098
   22      H      -1.9828723191     4.0029702781     0.1356089151
   23      H      -0.5777525997     3.0026455471    -0.2373826694
   24      H      -5.0955319773    -2.1760506312    -0.8277080173
   25      H      -4.6477297192    -1.4040581777    -2.3807423761
   26      H      -1.1764209856    -4.0790226876     0.4104318751
   27      H      -2.8183133476    -3.6081398560     0.9544798523
   28      C      -3.3410571091     2.3248043704    -1.4600374522
   29      H      -3.8719226614     3.2556452641    -1.2502696953
   30      H      -2.7011569390     2.4758297415    -2.3327175677
   31      H      -4.0787663571     1.5568037405    -1.6987488776
   32      H      -2.6059491498     1.1099183799     2.8184322179
   33      C       3.2444031088     0.0935296026     0.6933817015
   34      C       3.0777013813     0.4564549766    -0.8234198433
   35      C       2.7757540860    -1.2862795775     1.1161534896
   36      C       2.3721000871    -0.5517518064    -1.7063293176
   37      O       3.4066611898    -2.2366250260     0.3908499576
   38      O       2.0071553732    -1.5290231039     2.0106443070
   39      O       1.2556830199    -1.0423392801    -1.1379004579
   40      O       2.7390336983    -0.8434971741    -2.8197074427
   41      C       0.5060162713    -1.9928716810    -1.9132400164
   42      C       3.0309381970    -3.5977828909     0.6655861085
   43      C       2.4696140800     1.2445873862     1.3783190441
   44      C       3.3330592328     2.5205692280     1.3399749299
   45      C       3.2369540204     2.8908432979    -0.1684599409
   46      C       2.2653598275     1.8022705445    -0.7050950461
   47      O       1.4317292317     1.5443218111     0.4359314735
   48      H       4.3076931538     0.1263562601     0.9475618380
   49      H       4.0415852640     0.6277997501    -1.2992481309
   50      H       1.1329309093    -2.8456036613    -2.1789101281
   51      H       3.2783639711    -3.8641460756     1.6943086445
   52      H       2.8873456432     3.2944387402     1.9666047936
   53      H       4.3553484848     2.3533816260     1.6851276535
   54      H       2.7947723603     3.8784748727    -0.3100272411
   55      H       4.1998920797     2.8781501417    -0.6830188257
   56      H      -0.3178872979    -2.3005460366    -1.2733441735
   57      H       0.1299149602    -1.5285535832    -2.8263785323
   58      H       3.6012236938    -4.2035180930    -0.0352042811
   59      H       1.9593313317    -3.7326352614     0.5088436960
   60      C       1.4365875703     2.2003089650    -1.9056736085
   61      H       0.9057220180     3.1311498587    -1.6959058516
   62      H       2.0764877404     2.3513343361    -2.7783537240
   63      H       0.6988783223     1.4323083351    -2.1443850338
   64      H       2.1716955296     0.9854229745     2.3727960617
 ----------------------------------------------------------------

   15   -1610.4068917758      5.09E-09 Convergence criterion met
 Total energy in the final basis set = -1610.40689178

                    Orbital Energies (a.u.)
 --------------------------------------------------------------

 Alpha MOs
 -- Occupied --
-19.179 -19.170 -19.170 -19.168 -19.144 -19.124 -19.120 -19.115
-19.114 -19.109 -10.314 -10.305 -10.302 -10.299 -10.254 -10.239
-10.235 -10.234 -10.229 -10.228 -10.216 -10.212 -10.212 -10.209
-10.191 -10.188 -10.187 -10.187 -10.178 -10.166 -10.164 -10.164
 -1.122  -1.116  -1.112  -1.107  -1.076  -1.052  -1.035  -1.027
 -1.025  -1.022  -0.839  -0.820  -0.804  -0.791  -0.785  -0.773
 -0.747  -0.741  -0.727  -0.723  -0.703  -0.688  -0.660  -0.646
 -0.612  -0.598  -0.597  -0.580  -0.569  -0.566  -0.564  -0.554
 -0.540  -0.525  -0.523  -0.515  -0.510  -0.503  -0.498  -0.494
 -0.487  -0.483  -0.483  -0.479  -0.476  -0.473  -0.469  -0.466
 -0.465  -0.453  -0.448  -0.439  -0.435  -0.428  -0.427  -0.418
 -0.417  -0.410  -0.409  -0.400  -0.397  -0.397  -0.391  -0.386
 -0.381  -0.376  -0.374  -0.370  -0.369  -0.366  -0.364  -0.359
 -0.355  -0.350  -0.344  -0.341  -0.339  -0.337  -0.323  -0.323
 -0.319  -0.316  -0.308  -0.307  -0.294  -0.288  -0.283  -0.280
 -0.275  -0.263

          Ground-State Mulliken Net Atomic Charges

     Atom                 Charge (a.u.)
  ----------------------------------------
      1 C                     0.270367
      2 C                     0.288528
      3 C                    -0.488787
      4 C                    -0.255073
      5 O                     0.014305
      6 O                    -0.160248
      7 O                     0.098229
      8 O                    -0.086984
      9 C                    -0.167144
     10 C                    -0.298014
     11 C                    -0.617791
     12 C                    -0.349679
     13 C                    -0.002542
     14 C                    -0.555265
     15 O                     0.027904
     16 H                     0.293172
     17 H                    -0.153846
     18 H                     0.191743
     19 H                     0.200398
     20 H                     0.195944
     21 H                     0.119680
     22 H                     0.196390
     23 H                     0.057963
     24 H                     0.179096
     25 H                     0.173582
     26 H                     0.116406
     27 H                     0.193293
     28 C                    -0.345784
     29 H                     0.187296
     30 H                     0.161466
     31 H                     0.188765
     32 H                     0.276482
     33 C                    -0.031715
     34 C                     0.361227
     35 C                    -0.663862
     36 C                    -0.769558
     37 O                     0.046312
     38 O                    -0.096483
     39 O                     0.056574
     40 O                    -0.088407
     41 C                    -0.386793
     42 C                    -0.164413
     43 C                    -0.104629
     44 C                    -0.716598
     45 C                    -0.278902
     46 C                    -0.309815
     47 O                     0.260340
     48 H                     0.249281
     49 H                     0.289457
     50 H                     0.216480
     51 H                     0.169287
     52 H                     0.176023
     53 H                     0.143617
     54 H                     0.170113
     55 H                     0.148212
     56 H                     0.130327
     57 H                     0.247504
     58 H                     0.168556
     59 H                     0.183325
     60 C                    -0.300169
     61 H                     0.211716
     62 H                     0.200727
     63 H                     0.256820
     64 H                     0.275590
  ----------------------------------------
  Sum of atomic charges =     0.000000

                    Cartesian Multipole Moments
 -----------------------------------------------------------------
    Charge (ESU x 10^10)
                 0.0000
    Dipole Moment (Debye)
         X       3.1624      Y       0.0791      Z       0.0696
       Tot       3.1641
    Quadrupole Moments (Debye-Ang)
        XX    -188.3578     XY       9.7541     YY    -165.9767
        XZ      19.4760     YZ      -0.0775     ZZ    -209.3901

 Total job time:  7453.17s(wall), 7435.90s(cpu)
        *  Thank you very much for using Q-Chem.  Have a nice day.  *
