 Q-Chem 5.0, Q-Chem, Inc., Pleasanton, CA (2017)
 Q-Chem 5.0.1 for Intel X86 EM64T Linux

User input:
--------------------------------------------------------------
$molecule
0  1
--
0  1
C        +0.22270000        +1.04488000        +0.58595000
C        +0.62626000        -0.41353000        +0.99871000
C        -1.18200000        +1.23223000        +0.04377000
C        -0.37457000        -1.51643000        +0.72333000
O        -2.09172000        +0.78832000        +0.93966000
O        -1.47336000        +1.75939000        -0.99882000
O        -0.91364000        -1.42792000        -0.50620000
O        -0.62208000        -2.40877000        +1.49911000
C        -1.86134000        -2.44741000        -0.86560000
C        -3.47068000        +0.87492000        +0.53920000
C        +1.33008000        +1.39974000        -0.43491000
C        +2.63070000        +1.71700000        +0.32855000
C        +3.04336000        +0.29351000        +0.80300000
C        +1.94423000        -0.59299000        +0.15262000
O        +1.62840000        +0.13663000        -1.04376000
H        +0.27811000        +1.68786000        +1.46900000
H        +0.83923000        -0.48042000        +2.06408000
H        -2.68749000        -2.46677000        -0.15296000
H        -3.76076000        +1.91522000        +0.38406000
H        +3.37234000        +2.13782000        -0.35195000
H        +2.48236000        +2.42488000        +1.14651000
H        +4.02182000        +0.00994000        +0.41161000
H        +3.07359000        +0.18738000        +1.88928000
H        -2.21148000        -2.17765000        -1.85937000
H        -1.38062000        -3.42697000        -0.88096000
H        -4.03855000        +0.43623000        +1.35671000
H        -3.63120000        +0.31700000        -0.38495000
C        +0.90028000        +2.39077000        -1.49430000
C        +2.35450000        -2.01267000        -0.16812000
H        +3.26311000        -2.00678000        -0.77366000
H        +2.54990000        -2.57059000        +0.75079000
H        +1.57335000        -2.52896000        -0.72872000
H        +1.71845000        +2.58186000        -2.15686000
H        +0.59919000        +3.30478000        -1.02650000
H        +0.07925000        +1.98653000        -2.04874000
--
0  1
C        +0.24774000        +2.46323000        +5.17154000
C        +0.65130000        +1.00482000        +5.58430000
C        -1.15696000        +2.65058000        +4.62936000
C        -0.34953000        -0.09808000        +5.30892000
O        -2.06668000        +2.20667000        +5.52525000
O        -1.44832000        +3.17774000        +3.58677000
O        -0.88860000        -0.00957000        +4.07939000
O        -0.59704000        -0.99042000        +6.08470000
C        -1.83630000        -1.02906000        +3.71999000
C        -3.44564000        +2.29327000        +5.12479000
C        +1.35512000        +2.81809000        +4.15068000
C        +2.65574000        +3.13535000        +4.91414000
C        +3.06840000        +1.71186000        +5.38859000
C        +1.96927000        +0.82536000        +4.73821000
O        +1.65344000        +1.55498000        +3.54183000
H        +0.30315000        +3.10621000        +6.05459000
H        +0.86427000        +0.93793000        +6.64967000
H        -2.66245000        -1.04842000        +4.43263000
H        -3.73572000        +3.33357000        +4.96965000
H        +3.39738000        +3.55617000        +4.23364000
H        +2.50740000        +3.84323000        +5.73210000
H        +4.04686000        +1.42829000        +4.99720000
H        +3.09863000        +1.60573000        +6.47487000
H        -2.18644000        -0.75930000        +2.72622000
H        -1.35558000        -2.00862000        +3.70463000
H        -4.01351000        +1.85458000        +5.94230000
H        -3.60616000        +1.73535000        +4.20064000
C        +0.92532000        +3.80912000        +3.09129000
C        +2.37954000        -0.59432000        +4.41747000
H        +3.28815000        -0.58843000        +3.81193000
H        +2.57494000        -1.15224000        +5.33638000
H        +1.59839000        -1.11061000        +3.85687000
H        +1.74349000        +4.00021000        +2.42873000
H        +0.62423000        +4.72313000        +3.55909000
H        +0.10429000        +3.40488000        +2.53685000
$end

$rem
JOBTYPE                   SP
METHOD                    B3LYP
DFT_D                     d3_op
BASIS                     6-311++G(d,p)
SYMMETRY                  False
THRESH                    12
SCF_CONVERGENCE           8
MAX_SUB_FILE_NUM          128
MEM_STATIC                400
MEM_TOTAL                 4000
$end
--------------------------------------------------------------

             Standard Nuclear Orientation (Angstroms)
    I     Atom           X                Y                Z
 ----------------------------------------------------------------
    1      C      -1.5298798854     0.2594016540     0.8680565277
    2      C      -1.6491530538     0.4085134372    -0.6887770558
    3      C      -1.9901134160    -1.0595353824     1.4603667978
    4      C      -2.3064245769    -0.7254281824    -1.4477591318
    5      O      -1.3183905939    -2.0862588705     0.8930108357
    6      O      -2.7855488122    -1.1943496395     2.3541731918
    7      O      -3.4338324297    -1.1575668319    -0.8541412185
    8      O      -1.8957733096    -1.1583744829    -2.4981350272
    9      C      -4.1398766498    -2.2206570837    -1.5159600652
   10      C      -1.6808731748    -3.4049295987     1.3392308959
   11      C      -2.3472913892     1.4763542285     1.3632697027
   12      C      -1.5043521988     2.7532648746     1.1786344225
   13      C      -1.5534985414     2.9122970807    -0.3686238794
   14      C      -2.4874018642     1.7403116939    -0.7824329999
   15      O      -3.3562358073     1.6226667217     0.3554186063
   16      H      -0.4768769150     0.3491808923     1.1498282152
   17      H      -0.6721145875     0.5338442968    -1.1519527687
   18      H      -3.4899264450    -3.0881205403    -1.6417626270
   19      H      -1.4653799875    -3.5232295998     2.4022486343
   20      H      -1.9846198865     3.5956860506     1.6785035277
   21      H      -0.4921943873     2.6564741812     1.5765358399
   22      H      -2.0067779605     3.8617766224    -0.6584659342
   23      H      -0.5729854945     2.8500499423    -0.8449652766
   24      H      -4.9805443360    -2.4556680024    -0.8671187907
   25      H      -4.4913012207    -1.8932738112    -2.4958510823
   26      H      -1.0763138670    -4.0882864661     0.7469646652
   27      H      -2.7439175019    -3.5826510535     1.1676311805
   28      C      -2.9977041414     1.2761563099     2.7145874736
   29      C      -3.2799469305     1.9532338068    -2.0525603220
   30      H      -3.8332529273     2.8924800365    -1.9896754291
   31      H      -2.6123556722     1.9974439295    -2.9163999202
   32      H      -3.9959440525     1.1443460323    -2.2077110103
   33      H      -3.5406818855     2.1581421890     2.9832496574
   34      H      -2.2432164767     1.0843418842     3.4486596078
   35      H      -3.6691840763     0.4444098829     2.6675074315
   36      C       3.2618882721     0.1769435206     0.5994714320
   37      C       3.1426151037     0.3260553037    -0.9573621515
   38      C       2.8016547414    -1.1419935158     1.1917817021
   39      C       2.4853435805    -0.8078863158    -1.7163442275
   40      O       3.4733775636    -2.1687170039     0.6244257399
   41      O       2.0062193453    -1.2768077730     2.0855880961
   42      O       1.3579357278    -1.2400249653    -1.1227263142
   43      O       2.8959948479    -1.2408326163    -2.7667201229
   44      C       0.6518915077    -2.3031152171    -1.7845451609
   45      C       3.1108949826    -3.4873877321     1.0706458002
   46      C       2.4444767683     1.3938960950     1.0946846069
   47      C       3.2874159587     2.6708067412     0.9100493268
   48      C       3.2382696160     2.8298389473    -0.6372089751
   49      C       2.3043662933     1.6578535605    -1.0510180956
   50      O       1.4355323502     1.5402085882     0.0868335105
   51      H       4.3148912424     0.2667227589     0.8812431194
   52      H       4.1196535699     0.4513861634    -1.4205378644
   53      H       1.3018417124    -3.1705786737    -1.9103477227
   54      H       3.3263881699    -3.6056877333     2.1336635385
   55      H       2.8071482709     3.5132279172     1.4099184319
   56      H       4.2995737701     2.5740160478     1.3079507442
   57      H       2.7849901970     3.7793184890    -0.9270510299
   58      H       4.2187826629     2.7675918089    -1.1135503724
   59      H      -0.1887761785    -2.5381261358    -1.1357038864
   60      H       0.3004669367    -1.9757319446    -2.7644361781
   61      H       3.7154542905    -4.1707445996     0.4783795694
   62      H       2.0478506555    -3.6651091869     0.8990460847
   63      C       1.7940640160     1.1936981765     2.4460023779
   64      C       1.5118212269     1.8707756734    -2.3211454178
   65      H       0.9585152301     2.8100219031    -2.2582605249
   66      H       2.1794124853     1.9149857961    -3.1849850159
   67      H       0.7958241049     1.0618878988    -2.4762961060
   68      H       1.2510862719     2.0756840556     2.7146645617
   69      H       2.5485516807     1.0018837508     3.1800745120
   70      H       1.1225840812     0.3619517495     2.3989223358
 ----------------------------------------------------------------

   15   -1689.0478175048      5.21E-09 Convergence criterion met
 Total energy in the final basis set = -1689.04781750

                    Orbital Energies (a.u.)
 --------------------------------------------------------------

 Alpha MOs
 -- Occupied --
-19.180 -19.171 -19.170 -19.170 -19.137 -19.122 -19.114 -19.114
-19.114 -19.109 -10.316 -10.305 -10.302 -10.302 -10.251 -10.241
-10.235 -10.233 -10.230 -10.229 -10.219 -10.212 -10.210 -10.208
-10.191 -10.188 -10.185 -10.183 -10.176 -10.164 -10.162 -10.160
-10.149 -10.127  -1.124  -1.117  -1.112  -1.110  -1.073  -1.050
 -1.039  -1.027  -1.027  -1.025  -0.839  -0.820  -0.813  -0.794
 -0.790  -0.772  -0.749  -0.744  -0.733  -0.725  -0.724  -0.712
 -0.679  -0.666  -0.652  -0.634  -0.607  -0.596  -0.588  -0.572
 -0.570  -0.565  -0.563  -0.554  -0.530  -0.519  -0.517  -0.511
 -0.509  -0.500  -0.499  -0.492  -0.486  -0.485  -0.482  -0.479
 -0.475  -0.471  -0.470  -0.465  -0.463  -0.451  -0.448  -0.440
 -0.438  -0.434  -0.428  -0.428  -0.420  -0.414  -0.410  -0.407
 -0.406  -0.403  -0.397  -0.394  -0.392  -0.385  -0.379  -0.375
 -0.372  -0.368  -0.367  -0.364  -0.361  -0.358  -0.354  -0.354
 -0.349  -0.343  -0.340  -0.337  -0.335  -0.332  -0.324  -0.323
 -0.318  -0.317  -0.310  -0.307  -0.287  -0.283  -0.281  -0.275
 -0.262  -0.261

          Ground-State Mulliken Net Atomic Charges

     Atom                 Charge (a.u.)
  ----------------------------------------
      1 C                     0.425126
      2 C                     0.533237
      3 C                    -0.452958
      4 C                    -0.098345
      5 O                     0.055855
      6 O                    -0.093311
      7 O                     0.089889
      8 O                    -0.070806
      9 C                    -0.148693
     10 C                    -0.278475
     11 C                    -1.336067
     12 C                    -0.049612
     13 C                     0.133409
     14 C                    -1.283406
     15 O                     0.203013
     16 H                     0.133153
     17 H                    -0.002630
     18 H                     0.191925
     19 H                     0.199555
     20 H                     0.196085
     21 H                     0.123921
     22 H                     0.201779
     23 H                     0.049295
     24 H                     0.176883
     25 H                     0.177617
     26 H                     0.125078
     27 H                     0.196424
     28 C                    -0.289977
     29 C                    -0.145608
     30 H                     0.180357
     31 H                     0.166984
     32 H                     0.189066
     33 H                     0.139557
     34 H                     0.141422
     35 H                     0.209310
     36 C                    -0.253198
     37 C                     0.340530
     38 C                    -0.500538
     39 C                    -0.755488
     40 O                     0.071701
     41 O                    -0.077614
     42 O                     0.042055
     43 O                    -0.083042
     44 C                    -0.374321
     45 C                    -0.152817
     46 C                    -0.064372
     47 C                    -0.252797
     48 C                    -0.314510
     49 C                    -0.247825
     50 O                     0.305642
     51 H                     0.258766
     52 H                     0.284814
     53 H                     0.219384
     54 H                     0.168244
     55 H                     0.175348
     56 H                     0.155997
     57 H                     0.169823
     58 H                     0.151985
     59 H                     0.126303
     60 H                     0.246273
     61 H                     0.169406
     62 H                     0.175308
     63 C                    -0.720903
     64 C                    -0.434974
     65 H                     0.222584
     66 H                     0.199385
     67 H                     0.235270
     68 H                     0.146393
     69 H                     0.169324
     70 H                     0.208810
  ----------------------------------------
  Sum of atomic charges =    -0.000000

                    Cartesian Multipole Moments
 -----------------------------------------------------------------
    Charge (ESU x 10^10)
                -0.0000
    Dipole Moment (Debye)
         X       2.8870      Y      -0.5032      Z       0.4520
       Tot       2.9652
    Quadrupole Moments (Debye-Ang)
        XX    -202.3629     XY      12.1753     YY    -181.1316
        XZ      17.7197     YZ      -6.7225     ZZ    -220.9726

 Total job time:  4061.03s(wall), 8086.61s(cpu)
        *  Thank you very much for using Q-Chem.  Have a nice day.  *
