 Q-Chem 5.0, Q-Chem, Inc., Pleasanton, CA (2017)
 Q-Chem 5.0.1 for Intel X86 EM64T Linux

User input:
--------------------------------------------------------------
$molecule
0  1
C        +0.22270000        +1.04488000        +0.58595000
C        +0.62626000        -0.41353000        +0.99871000
C        -1.18200000        +1.23223000        +0.04377000
C        -0.37457000        -1.51643000        +0.72333000
O        -2.09172000        +0.78832000        +0.93966000
O        -1.47336000        +1.75939000        -0.99882000
O        -0.91364000        -1.42792000        -0.50620000
O        -0.62208000        -2.40877000        +1.49911000
C        -1.86134000        -2.44741000        -0.86560000
C        -3.47068000        +0.87492000        +0.53920000
C        +1.33008000        +1.39974000        -0.43491000
C        +2.63070000        +1.71700000        +0.32855000
C        +3.04336000        +0.29351000        +0.80300000
C        +1.94423000        -0.59299000        +0.15262000
O        +1.62840000        +0.13663000        -1.04376000
H        +0.27811000        +1.68786000        +1.46900000
H        +0.83923000        -0.48042000        +2.06408000
H        -2.68749000        -2.46677000        -0.15296000
H        -3.76076000        +1.91522000        +0.38406000
H        +3.37234000        +2.13782000        -0.35195000
H        +2.48236000        +2.42488000        +1.14651000
H        +4.02182000        +0.00994000        +0.41161000
H        +3.07359000        +0.18738000        +1.88928000
H        -2.21148000        -2.17765000        -1.85937000
H        -1.38062000        -3.42697000        -0.88096000
H        -4.03855000        +0.43623000        +1.35671000
H        -3.63120000        +0.31700000        -0.38495000
C        +0.90028000        +2.39077000        -1.49430000
C        +2.35450000        -2.01267000        -0.16812000
H        +3.26311000        -2.00678000        -0.77366000
H        +2.54990000        -2.57059000        +0.75079000
H        +1.57335000        -2.52896000        -0.72872000
H        +1.71845000        +2.58186000        -2.15686000
H        +0.59919000        +3.30478000        -1.02650000
H        +0.07925000        +1.98653000        -2.04874000
@C        +0.24774000        +2.46323000        +5.17154000
@C        +0.65130000        +1.00482000        +5.58430000
@C        -1.15696000        +2.65058000        +4.62936000
@C        -0.34953000        -0.09808000        +5.30892000
@O        -2.06668000        +2.20667000        +5.52525000
@O        -1.44832000        +3.17774000        +3.58677000
@O        -0.88860000        -0.00957000        +4.07939000
@O        -0.59704000        -0.99042000        +6.08470000
@C        -1.83630000        -1.02906000        +3.71999000
@C        -3.44564000        +2.29327000        +5.12479000
@C        +1.35512000        +2.81809000        +4.15068000
@C        +2.65574000        +3.13535000        +4.91414000
@C        +3.06840000        +1.71186000        +5.38859000
@C        +1.96927000        +0.82536000        +4.73821000
@O        +1.65344000        +1.55498000        +3.54183000
@H        +0.30315000        +3.10621000        +6.05459000
@H        +0.86427000        +0.93793000        +6.64967000
@H        -2.66245000        -1.04842000        +4.43263000
@H        -3.73572000        +3.33357000        +4.96965000
@H        +3.39738000        +3.55617000        +4.23364000
@H        +2.50740000        +3.84323000        +5.73210000
@H        +4.04686000        +1.42829000        +4.99720000
@H        +3.09863000        +1.60573000        +6.47487000
@H        -2.18644000        -0.75930000        +2.72622000
@H        -1.35558000        -2.00862000        +3.70463000
@H        -4.01351000        +1.85458000        +5.94230000
@H        -3.60616000        +1.73535000        +4.20064000
@C        +0.92532000        +3.80912000        +3.09129000
@C        +2.37954000        -0.59432000        +4.41747000
@H        +3.28815000        -0.58843000        +3.81193000
@H        +2.57494000        -1.15224000        +5.33638000
@H        +1.59839000        -1.11061000        +3.85687000
@H        +1.74349000        +4.00021000        +2.42873000
@H        +0.62423000        +4.72313000        +3.55909000
@H        +0.10429000        +3.40488000        +2.53685000
$end

$rem
JOBTYPE                   SP
METHOD                    B3LYP
DFT_D                     d3_op
BASIS                     6-311++G(d,p)
SYMMETRY                  False
THRESH                    12
SCF_CONVERGENCE           8
MAX_SUB_FILE_NUM          128
MEM_STATIC                400
MEM_TOTAL                 4000
$end
--------------------------------------------------------------

             Standard Nuclear Orientation (Angstroms)
    I     Atom           X                Y                Z
 ----------------------------------------------------------------
    1      C       0.2227000000     1.0448800000     0.5859500000
    2      C       0.6262600000    -0.4135300000     0.9987100000
    3      C      -1.1820000000     1.2322300000     0.0437700000
    4      C      -0.3745700000    -1.5164300000     0.7233300000
    5      O      -2.0917200000     0.7883200000     0.9396600000
    6      O      -1.4733600000     1.7593900000    -0.9988200000
    7      O      -0.9136400000    -1.4279200000    -0.5062000000
    8      O      -0.6220800000    -2.4087700000     1.4991100000
    9      C      -1.8613400000    -2.4474100000    -0.8656000000
   10      C      -3.4706800000     0.8749200000     0.5392000000
   11      C       1.3300800000     1.3997400000    -0.4349100000
   12      C       2.6307000000     1.7170000000     0.3285500000
   13      C       3.0433600000     0.2935100000     0.8030000000
   14      C       1.9442300000    -0.5929900000     0.1526200000
   15      O       1.6284000000     0.1366300000    -1.0437600000
   16      H       0.2781100000     1.6878600000     1.4690000000
   17      H       0.8392300000    -0.4804200000     2.0640800000
   18      H      -2.6874900000    -2.4667700000    -0.1529600000
   19      H      -3.7607600000     1.9152200000     0.3840600000
   20      H       3.3723400000     2.1378200000    -0.3519500000
   21      H       2.4823600000     2.4248800000     1.1465100000
   22      H       4.0218200000     0.0099400000     0.4116100000
   23      H       3.0735900000     0.1873800000     1.8892800000
   24      H      -2.2114800000    -2.1776500000    -1.8593700000
   25      H      -1.3806200000    -3.4269700000    -0.8809600000
   26      H      -4.0385500000     0.4362300000     1.3567100000
   27      H      -3.6312000000     0.3170000000    -0.3849500000
   28      C       0.9002800000     2.3907700000    -1.4943000000
   29      C       2.3545000000    -2.0126700000    -0.1681200000
   30      H       3.2631100000    -2.0067800000    -0.7736600000
   31      H       2.5499000000    -2.5705900000     0.7507900000
   32      H       1.5733500000    -2.5289600000    -0.7287200000
   33      H       1.7184500000     2.5818600000    -2.1568600000
   34      H       0.5991900000     3.3047800000    -1.0265000000
   35      H       0.0792500000     1.9865300000    -2.0487400000
   36      GH      0.2477400000     2.4632300000     5.1715400000
   37      GH      0.6513000000     1.0048200000     5.5843000000
   38      GH     -1.1569600000     2.6505800000     4.6293600000
   39      GH     -0.3495300000    -0.0980800000     5.3089200000
   40      GH     -2.0666800000     2.2066700000     5.5252500000
   41      GH     -1.4483200000     3.1777400000     3.5867700000
   42      GH     -0.8886000000    -0.0095700000     4.0793900000
   43      GH     -0.5970400000    -0.9904200000     6.0847000000
   44      GH     -1.8363000000    -1.0290600000     3.7199900000
   45      GH     -3.4456400000     2.2932700000     5.1247900000
   46      GH      1.3551200000     2.8180900000     4.1506800000
   47      GH      2.6557400000     3.1353500000     4.9141400000
   48      GH      3.0684000000     1.7118600000     5.3885900000
   49      GH      1.9692700000     0.8253600000     4.7382100000
   50      GH      1.6534400000     1.5549800000     3.5418300000
   51      GH      0.3031500000     3.1062100000     6.0545900000
   52      GH      0.8642700000     0.9379300000     6.6496700000
   53      GH     -2.6624500000    -1.0484200000     4.4326300000
   54      GH     -3.7357200000     3.3335700000     4.9696500000
   55      GH      3.3973800000     3.5561700000     4.2336400000
   56      GH      2.5074000000     3.8432300000     5.7321000000
   57      GH      4.0468600000     1.4282900000     4.9972000000
   58      GH      3.0986300000     1.6057300000     6.4748700000
   59      GH     -2.1864400000    -0.7593000000     2.7262200000
   60      GH     -1.3555800000    -2.0086200000     3.7046300000
   61      GH     -4.0135100000     1.8545800000     5.9423000000
   62      GH     -3.6061600000     1.7353500000     4.2006400000
   63      GH      0.9253200000     3.8091200000     3.0912900000
   64      GH      2.3795400000    -0.5943200000     4.4174700000
   65      GH      3.2881500000    -0.5884300000     3.8119300000
   66      GH      2.5749400000    -1.1522400000     5.3363800000
   67      GH      1.5983900000    -1.1106100000     3.8568700000
   68      GH      1.7434900000     4.0002100000     2.4287300000
   69      GH      0.6242300000     4.7231300000     3.5590900000
   70      GH      0.1042900000     3.4048800000     2.5368500000
 ----------------------------------------------------------------

   14    -844.5181939632      5.82E-09 Convergence criterion met
 Total energy in the final basis set = -844.51819396

                    Orbital Energies (a.u.)
 --------------------------------------------------------------

 Alpha MOs
 -- Occupied --
-19.176 -19.174 -19.125 -19.117 -19.116 -10.311 -10.306 -10.242
-10.232 -10.231 -10.231 -10.204 -10.203 -10.178 -10.175 -10.169
-10.136  -1.121  -1.114  -1.061  -1.034  -1.027  -0.832  -0.804
 -0.784  -0.748  -0.730  -0.720  -0.674  -0.644  -0.603  -0.579
 -0.570  -0.561  -0.525  -0.514  -0.508  -0.493  -0.489  -0.479
 -0.476  -0.471  -0.459  -0.442  -0.435  -0.433  -0.414  -0.411
 -0.403  -0.399  -0.395  -0.374  -0.372  -0.364  -0.358  -0.355
 -0.349  -0.346  -0.333  -0.328  -0.321  -0.313  -0.284  -0.272
 -0.270

          Ground-State Mulliken Net Atomic Charges

     Atom                 Charge (a.u.)
  ----------------------------------------
      1 C                     0.223226
      2 C                     0.473115
      3 C                    -0.419947
      4 C                    -0.151424
      5 O                     0.080911
      6 O                    -0.087489
      7 O                     0.078712
      8 O                    -0.054716
      9 C                    -0.151315
     10 C                    -0.306620
     11 C                    -1.212735
     12 C                    -0.099418
     13 C                     0.067673
     14 C                    -1.182327
     15 O                     0.212258
     16 H                     0.091898
     17 H                     0.074062
     18 H                     0.195411
     19 H                     0.194679
     20 H                     0.204243
     21 H                     0.154714
     22 H                     0.207518
     23 H                     0.121839
     24 H                     0.175864
     25 H                     0.177935
     26 H                     0.131769
     27 H                     0.195502
     28 C                    -0.307390
     29 C                    -0.143938
     30 H                     0.181518
     31 H                     0.173758
     32 H                     0.192898
     33 H                     0.143025
     34 H                     0.144163
     35 H                     0.211844
     36 GH                    0.009407
     37 GH                    0.011620
     38 GH                    0.006237
     39 GH                    0.002668
     40 GH                    0.001983
     41 GH                   -0.015920
     42 GH                    0.005071
     43 GH                    0.001694
     44 GH                   -0.061132
     45 GH                    0.006019
     46 GH                   -0.050252
     47 GH                   -0.007491
     48 GH                    0.000741
     49 GH                   -0.084974
     50 GH                    0.011467
     51 GH                    0.000240
     52 GH                    0.000274
     53 GH                   -0.003970
     54 GH                    0.000892
     55 GH                    0.000328
     56 GH                   -0.000055
     57 GH                    0.000478
     58 GH                    0.000110
     59 GH                    0.057619
     60 GH                    0.003538
     61 GH                   -0.000318
     62 GH                   -0.004642
     63 GH                    0.008079
     64 GH                    0.046122
     65 GH                    0.017345
     66 GH                   -0.001590
     67 GH                    0.008269
     68 GH                    0.009723
     69 GH                   -0.003026
     70 GH                    0.032230
  ----------------------------------------
  Sum of atomic charges =     0.000000

                    Cartesian Multipole Moments
 -----------------------------------------------------------------
    Charge (ESU x 10^10)
                 0.0000
    Dipole Moment (Debye)
         X      -0.3249      Y       0.5025      Z       0.9173
       Tot       1.0952
    Quadrupole Moments (Debye-Ang)
        XX     -89.0618     XY       1.8220     YY    -103.5188
        XZ       3.4874     YZ      10.7960     ZZ    -108.3455

 Total job time:  3980.65s(wall), 7925.13s(cpu)
        *  Thank you very much for using Q-Chem.  Have a nice day.  *
