 Q-Chem 5.0, Q-Chem, Inc., Pleasanton, CA (2017)
 Q-Chem 5.0.1 for Intel X86 EM64T Linux

User input:
--------------------------------------------------------------
$molecule
0  1
C        -0.51141000        -1.10222000        +4.71472000
C        -0.52406000        +0.30026000        +4.83654000
C        +0.78272000        -1.85628000        +4.68787000
C        +0.76146000        +1.06584000        +4.84759000
O        +1.56948000        -1.51028000        +5.72974000
O        +1.08005000        -2.70257000        +3.88073000
O        +1.57087000        +0.66449000        +3.84284000
O        +1.04338000        +1.95245000        +5.61639000
C        +2.86752000        +1.28269000        +3.78803000
C        +2.85619000        -2.15060000        +5.78636000
C        -1.71017000        -1.83468000        +4.65609000
C        -2.90649000        -1.11908000        +4.72876000
C        -2.92010000        +0.26403000        +4.85095000
C        -1.73858000        +1.00552000        +4.90971000
H        +2.77138000        +2.36137000        +3.65697000
H        +2.74081000        -3.23171000        +5.87716000
H        -3.87051000        +0.78473000        +4.89871000
H        +3.42301000        +1.08241000        +4.70617000
H        +3.36487000        +0.83417000        +2.93094000
H        +3.34398000        -1.74133000        +6.66811000
H        +3.43192000        -1.92786000        +4.88620000
H        -3.84589000        -1.66063000        +4.69173000
C        -1.80657000        +2.50894000        +5.03000000
H        -1.20911000        +3.00500000        +4.26096000
H        -1.42200000        +2.84575000        +5.99445000
H        -2.83908000        +2.84771000        +4.92799000
H        -1.70575000        -2.86245000        +4.56286000
@C        -0.54444000        -0.68370000        -0.06689000
@C        -0.55709000        +0.71878000        +0.05493000
@C        +0.74969000        -1.43776000        -0.09374000
@C        +0.72843000        +1.48436000        +0.06598000
@O        +1.53645000        -1.09176000        +0.94813000
@O        +1.04702000        -2.28405000        -0.90088000
@O        +1.53784000        +1.08301000        -0.93877000
@O        +1.01035000        +2.37097000        +0.83478000
@C        +2.83449000        +1.70121000        -0.99358000
@C        +2.82316000        -1.73208000        +1.00475000
@C        -1.74320000        -1.41616000        -0.12552000
@C        -2.93952000        -0.70056000        -0.05285000
@C        -2.95313000        +0.68255000        +0.06934000
@C        -1.77161000        +1.42404000        +0.12810000
@H        +2.73835000        +2.77989000        -1.12464000
@H        +2.70778000        -2.81319000        +1.09555000
@H        -3.90354000        +1.20325000        +0.11710000
@H        +3.38998000        +1.50093000        -0.07544000
@H        +3.33184000        +1.25269000        -1.85067000
@H        +3.31095000        -1.32281000        +1.88650000
@H        +3.39889000        -1.50934000        +0.10459000
@H        -3.87892000        -1.24211000        -0.08988000
@C        -1.83960000        +2.92746000        +0.24839000
@H        -1.24214000        +3.42352000        -0.52065000
@H        -1.45503000        +3.26427000        +1.21284000
@H        -2.87211000        +3.26623000        +0.14638000
@H        -1.73878000        -2.44393000        -0.21875000
$end

$rem
JOBTYPE                   SP
METHOD                    B3LYP
DFT_D                     d3_op
BASIS                     6-311++G(d,p)
SYMMETRY                  False
THRESH                    12
SCF_CONVERGENCE           8
MAX_SUB_FILE_NUM          128
MEM_STATIC                400
MEM_TOTAL                 4000
$end
--------------------------------------------------------------

             Standard Nuclear Orientation (Angstroms)
    I     Atom           X                Y                Z
 ----------------------------------------------------------------
    1      C      -0.5114100000    -1.1022200000     4.7147200000
    2      C      -0.5240600000     0.3002600000     4.8365400000
    3      C       0.7827200000    -1.8562800000     4.6878700000
    4      C       0.7614600000     1.0658400000     4.8475900000
    5      O       1.5694800000    -1.5102800000     5.7297400000
    6      O       1.0800500000    -2.7025700000     3.8807300000
    7      O       1.5708700000     0.6644900000     3.8428400000
    8      O       1.0433800000     1.9524500000     5.6163900000
    9      C       2.8675200000     1.2826900000     3.7880300000
   10      C       2.8561900000    -2.1506000000     5.7863600000
   11      C      -1.7101700000    -1.8346800000     4.6560900000
   12      C      -2.9064900000    -1.1190800000     4.7287600000
   13      C      -2.9201000000     0.2640300000     4.8509500000
   14      C      -1.7385800000     1.0055200000     4.9097100000
   15      H       2.7713800000     2.3613700000     3.6569700000
   16      H       2.7408100000    -3.2317100000     5.8771600000
   17      H      -3.8705100000     0.7847300000     4.8987100000
   18      H       3.4230100000     1.0824100000     4.7061700000
   19      H       3.3648700000     0.8341700000     2.9309400000
   20      H       3.3439800000    -1.7413300000     6.6681100000
   21      H       3.4319200000    -1.9278600000     4.8862000000
   22      H      -3.8458900000    -1.6606300000     4.6917300000
   23      C      -1.8065700000     2.5089400000     5.0300000000
   24      H      -1.2091100000     3.0050000000     4.2609600000
   25      H      -1.4220000000     2.8457500000     5.9944500000
   26      H      -2.8390800000     2.8477100000     4.9279900000
   27      H      -1.7057500000    -2.8624500000     4.5628600000
   28      GH     -0.5444400000    -0.6837000000    -0.0668900000
   29      GH     -0.5570900000     0.7187800000     0.0549300000
   30      GH      0.7496900000    -1.4377600000    -0.0937400000
   31      GH      0.7284300000     1.4843600000     0.0659800000
   32      GH      1.5364500000    -1.0917600000     0.9481300000
   33      GH      1.0470200000    -2.2840500000    -0.9008800000
   34      GH      1.5378400000     1.0830100000    -0.9387700000
   35      GH      1.0103500000     2.3709700000     0.8347800000
   36      GH      2.8344900000     1.7012100000    -0.9935800000
   37      GH      2.8231600000    -1.7320800000     1.0047500000
   38      GH     -1.7432000000    -1.4161600000    -0.1255200000
   39      GH     -2.9395200000    -0.7005600000    -0.0528500000
   40      GH     -2.9531300000     0.6825500000     0.0693400000
   41      GH     -1.7716100000     1.4240400000     0.1281000000
   42      GH      2.7383500000     2.7798900000    -1.1246400000
   43      GH      2.7077800000    -2.8131900000     1.0955500000
   44      GH     -3.9035400000     1.2032500000     0.1171000000
   45      GH      3.3899800000     1.5009300000    -0.0754400000
   46      GH      3.3318400000     1.2526900000    -1.8506700000
   47      GH      3.3109500000    -1.3228100000     1.8865000000
   48      GH      3.3988900000    -1.5093400000     0.1045900000
   49      GH     -3.8789200000    -1.2421100000    -0.0898800000
   50      GH     -1.8396000000     2.9274600000     0.2483900000
   51      GH     -1.2421400000     3.4235200000    -0.5206500000
   52      GH     -1.4550300000     3.2642700000     1.2128400000
   53      GH     -2.8721100000     3.2662300000     0.1463800000
   54      GH     -1.7387800000    -2.4439300000    -0.2187500000
 ----------------------------------------------------------------

   14    -727.5446239921      5.57E-09 Convergence criterion met
 Total energy in the final basis set = -727.54462399

                    Orbital Energies (a.u.)
 --------------------------------------------------------------

 Alpha MOs
 -- Occupied --
-19.178 -19.177 -19.121 -19.119 -10.313 -10.312 -10.233 -10.232
-10.211 -10.208 -10.207 -10.193 -10.191 -10.190 -10.174  -1.122
 -1.115  -1.033  -1.030  -0.886  -0.801  -0.795  -0.747  -0.731
 -0.704  -0.655  -0.627  -0.581  -0.575  -0.550  -0.521  -0.514
 -0.492  -0.490  -0.482  -0.478  -0.472  -0.447  -0.435  -0.431
 -0.429  -0.412  -0.406  -0.396  -0.384  -0.378  -0.370  -0.365
 -0.364  -0.322  -0.314  -0.296  -0.294  -0.269  -0.264

          Ground-State Mulliken Net Atomic Charges

     Atom                 Charge (a.u.)
  ----------------------------------------
      1 C                     0.598307
      2 C                     0.537814
      3 C                    -0.986815
      4 C                    -0.682611
      5 O                     0.093096
      6 O                    -0.086728
      7 O                     0.105856
      8 O                    -0.135581
      9 C                    -0.356560
     10 C                    -0.158919
     11 C                    -0.394296
     12 C                    -0.257411
     13 C                    -0.425204
     14 C                     0.496100
     15 H                     0.197090
     16 H                     0.168901
     17 H                     0.155549
     18 H                     0.199201
     19 H                     0.117519
     20 H                     0.172489
     21 H                     0.180224
     22 H                     0.189253
     23 C                    -0.439168
     24 H                     0.209817
     25 H                     0.216042
     26 H                     0.135477
     27 H                     0.186992
     28 GH                    0.021287
     29 GH                   -0.109285
     30 GH                   -0.047244
     31 GH                    0.088290
     32 GH                   -0.013513
     33 GH                    0.000513
     34 GH                    0.000537
     35 GH                   -0.008605
     36 GH                   -0.006841
     37 GH                   -0.001978
     38 GH                    0.004172
     39 GH                    0.011381
     40 GH                    0.002950
     41 GH                    0.021718
     42 GH                    0.000896
     43 GH                    0.000162
     44 GH                   -0.000822
     45 GH                    0.002416
     46 GH                   -0.000588
     47 GH                    0.002478
     48 GH                    0.001379
     49 GH                   -0.000384
     50 GH                    0.006089
     51 GH                   -0.000105
     52 GH                   -0.011374
     53 GH                    0.000842
     54 GH                   -0.000806
  ----------------------------------------
  Sum of atomic charges =     0.000000

                    Cartesian Multipole Moments
 -----------------------------------------------------------------
    Charge (ESU x 10^10)
                 0.0000
    Dipole Moment (Debye)
         X       0.0006      Y       0.4770      Z       0.1748
       Tot       0.5080
    Quadrupole Moments (Debye-Ang)
        XX     -68.8072     XY      -0.6951     YY     -90.0996
        XZ       0.0019     YZ      -7.0986     ZZ     -91.5717

 Total job time:  1634.66s(wall), 3254.08s(cpu)
        *  Thank you very much for using Q-Chem.  Have a nice day.  *
