 Q-Chem 5.0, Q-Chem, Inc., Pleasanton, CA (2017)
 Q-Chem 5.0.1 for Intel X86 EM64T Linux

User input:
--------------------------------------------------------------
$molecule
0  1
--
0  1
C        -0.54444000        -0.68370000        -0.06689000
C        -0.55709000        +0.71878000        +0.05493000
C        +0.74969000        -1.43776000        -0.09374000
C        +0.72843000        +1.48436000        +0.06598000
O        +1.53645000        -1.09176000        +0.94813000
O        +1.04702000        -2.28405000        -0.90088000
O        +1.53784000        +1.08301000        -0.93877000
O        +1.01035000        +2.37097000        +0.83478000
C        +2.83449000        +1.70121000        -0.99358000
C        +2.82316000        -1.73208000        +1.00475000
C        -1.74320000        -1.41616000        -0.12552000
C        -2.93952000        -0.70056000        -0.05285000
C        -2.95313000        +0.68255000        +0.06934000
C        -1.77161000        +1.42404000        +0.12810000
H        +2.73835000        +2.77989000        -1.12464000
H        +2.70778000        -2.81319000        +1.09555000
H        -3.90354000        +1.20325000        +0.11710000
H        +3.38998000        +1.50093000        -0.07544000
H        +3.33184000        +1.25269000        -1.85067000
H        +3.31095000        -1.32281000        +1.88650000
H        +3.39889000        -1.50934000        +0.10459000
H        -3.87892000        -1.24211000        -0.08988000
C        -1.83960000        +2.92746000        +0.24839000
H        -1.24214000        +3.42352000        -0.52065000
H        -1.45503000        +3.26427000        +1.21284000
H        -2.87211000        +3.26623000        +0.14638000
H        -1.73878000        -2.44393000        -0.21875000
--
0  1
C        -0.51141000        -1.10222000        +4.71472000
C        -0.52406000        +0.30026000        +4.83654000
C        +0.78272000        -1.85628000        +4.68787000
C        +0.76146000        +1.06584000        +4.84759000
O        +1.56948000        -1.51028000        +5.72974000
O        +1.08005000        -2.70257000        +3.88073000
O        +1.57087000        +0.66449000        +3.84284000
O        +1.04338000        +1.95245000        +5.61639000
C        +2.86752000        +1.28269000        +3.78803000
C        +2.85619000        -2.15060000        +5.78636000
C        -1.71017000        -1.83468000        +4.65609000
C        -2.90649000        -1.11908000        +4.72876000
C        -2.92010000        +0.26403000        +4.85095000
C        -1.73858000        +1.00552000        +4.90971000
H        +2.77138000        +2.36137000        +3.65697000
H        +2.74081000        -3.23171000        +5.87716000
H        -3.87051000        +0.78473000        +4.89871000
H        +3.42301000        +1.08241000        +4.70617000
H        +3.36487000        +0.83417000        +2.93094000
H        +3.34398000        -1.74133000        +6.66811000
H        +3.43192000        -1.92786000        +4.88620000
H        -3.84589000        -1.66063000        +4.69173000
C        -1.80657000        +2.50894000        +5.03000000
H        -1.20911000        +3.00500000        +4.26096000
H        -1.42200000        +2.84575000        +5.99445000
H        -2.83908000        +2.84771000        +4.92799000
H        -1.70575000        -2.86245000        +4.56286000
$end

$rem
JOBTYPE                   SP
METHOD                    B3LYP
DFT_D                     d3_op
BASIS                     6-311++G(d,p)
SYMMETRY                  False
THRESH                    12
SCF_CONVERGENCE           8
MAX_SUB_FILE_NUM          128
MEM_STATIC                400
MEM_TOTAL                 4000
$end
--------------------------------------------------------------

             Standard Nuclear Orientation (Angstroms)
    I     Atom           X                Y                Z
 ----------------------------------------------------------------
    1      C      -2.3445832878     0.1984247395     1.2446399694
    2      C      -2.4506295792     0.6954146344    -0.0682596892
    3      C      -2.2132834420    -1.2722102853     1.4978056017
    4      C      -2.5269223638    -0.2492051121    -1.2261325038
    5      O      -1.2190581995    -1.8069836136     0.7563650788
    6      O      -2.8649172134    -1.9037836730     2.2931516625
    7      O      -3.4307841416    -1.2262033948    -0.9932008071
    8      O      -1.9033380760    -0.1500364132    -2.2546838267
    9      C      -3.5480024448    -2.2365857037    -2.0090079038
   10      C      -1.0239377735    -3.2252864359     0.8948687774
   11      C      -2.3181277471     1.0690454550     2.3483973432
   12      C      -2.3952829805     2.4387317436     2.0904198793
   13      C      -2.4978716361     2.9300894164     0.7957569480
   14      C      -2.5261374122     2.0786973871    -0.3103996080
   15      H      -3.8537227726    -1.7917755381    -2.9569789811
   16      H      -0.7634850088    -3.4759666469     1.9242762796
   17      H      -2.5613063052     4.0012160283     0.6365322650
   18      H      -2.5943583826    -2.7498119935    -2.1462086919
   19      H      -4.3073582307    -2.9249695725    -1.6448143829
   20      H      -0.2062646830    -3.4715332028     0.2212981973
   21      H      -1.9316904972    -3.7632500859     0.6156801851
   22      H      -2.3709803006     3.1327079801     2.9240423036
   23      C      -2.6515039300     2.6616284800    -1.6974246970
   24      H      -3.4733091265     2.2066460364    -2.2560692101
   25      H      -1.7434725905     2.4943599191    -2.2796610567
   26      H      -2.8356992473     3.7357905193    -1.6382972794
   27      H      -2.2444549991     0.7090612411     3.3127656516
   28      C       2.4410272353     0.4177177606     0.9448289359
   29      C       2.3349809439     0.9147076555    -0.3680707227
   30      C       2.5723270811    -1.0529172642     1.1979945682
   31      C       2.2586881593    -0.0299120910    -1.5259435374
   32      O       3.5665523236    -1.5876905926     0.4565540453
   33      O       1.9206933096    -1.6844906519     1.9933406289
   34      O       1.3548263815    -1.0069103737    -1.2930118406
   35      O       2.8822724471     0.0692566078    -2.5544948602
   36      C       1.2376080783    -2.0172926827    -2.3088189373
   37      C       3.7616727495    -3.0059934149     0.5950577438
   38      C       2.4674827760     1.2883384761     2.0485863097
   39      C       2.3903275426     2.6580247647     1.7906088458
   40      C       2.2877388870     3.1493824374     0.4959459145
   41      C       2.2594731109     2.2979904081    -0.6102106415
   42      H       0.9318877505    -1.5724825170    -3.2567900146
   43      H       4.0221255143    -3.2566736258     1.6244652461
   44      H       2.2243042179     4.2205090494     0.3367212315
   45      H       2.1912521405    -2.5305189725    -2.4460197254
   46      H       0.4782522924    -2.7056765514    -1.9446254164
   47      H       4.5793458401    -3.2522401817    -0.0785128362
   48      H       2.8539200259    -3.5439570648     0.3158691516
   49      H       2.4146302225     3.3520010012     2.6242312701
   50      C       2.1341065930     2.8809215011    -1.9972357305
   51      H       1.3123013966     2.4259390575    -2.5558802436
   52      H       3.0421379326     2.7136529402    -2.5794720902
   53      H       1.9499112758     3.9550835404    -1.9381083129
   54      H       2.5411555239     0.9283542622     3.0129546181
 ----------------------------------------------------------------

   15   -1455.0953141164      7.26E-09 Convergence criterion met
 Total energy in the final basis set = -1455.09531412

                    Orbital Energies (a.u.)
 --------------------------------------------------------------

 Alpha MOs
 -- Occupied --
-19.177 -19.176 -19.170 -19.167 -19.121 -19.119 -19.115 -19.112
-10.312 -10.311 -10.307 -10.304 -10.233 -10.233 -10.227 -10.224
-10.208 -10.207 -10.205 -10.204 -10.204 -10.204 -10.191 -10.190
-10.188 -10.187 -10.187 -10.187 -10.173 -10.170  -1.120  -1.119
 -1.111  -1.108  -1.032  -1.030  -1.026  -1.022  -0.883  -0.883
 -0.798  -0.797  -0.792  -0.791  -0.744  -0.744  -0.729  -0.726
 -0.702  -0.701  -0.652  -0.651  -0.624  -0.623  -0.579  -0.576
 -0.574  -0.569  -0.547  -0.545  -0.519  -0.517  -0.511  -0.510
 -0.490  -0.490  -0.485  -0.485  -0.481  -0.477  -0.476  -0.472
 -0.469  -0.467  -0.446  -0.443  -0.434  -0.431  -0.430  -0.429
 -0.426  -0.422  -0.411  -0.409  -0.404  -0.401  -0.393  -0.393
 -0.382  -0.380  -0.376  -0.373  -0.369  -0.366  -0.363  -0.362
 -0.360  -0.356  -0.320  -0.319  -0.310  -0.307  -0.295  -0.294
 -0.290  -0.288  -0.267  -0.264  -0.262  -0.259

          Ground-State Mulliken Net Atomic Charges

     Atom                 Charge (a.u.)
  ----------------------------------------
      1 C                     0.589682
      2 C                     0.582119
      3 C                    -0.407598
      4 C                    -1.116495
      5 O                     0.105047
      6 O                    -0.169993
      7 O                     0.109298
      8 O                    -0.097529
      9 C                    -0.169296
     10 C                    -0.342060
     11 C                    -0.358602
     12 C                    -0.279843
     13 C                    -0.272104
     14 C                     0.282177
     15 H                     0.165236
     16 H                     0.213595
     17 H                     0.152759
     18 H                     0.183424
     19 H                     0.173114
     20 H                     0.090243
     21 H                     0.187891
     22 H                     0.180247
     23 C                    -0.513370
     24 H                     0.175181
     25 H                     0.188974
     26 H                     0.145616
     27 H                     0.198548
     28 C                     0.476337
     29 C                     0.637715
     30 C                    -0.808722
     31 C                    -0.791885
     32 O                     0.097300
     33 O                    -0.102458
     34 O                     0.108351
     35 O                    -0.141799
     36 C                    -0.327861
     37 C                    -0.154787
     38 C                    -0.401089
     39 C                    -0.279719
     40 C                    -0.417125
     41 C                     0.469277
     42 H                     0.205065
     43 H                     0.169513
     44 H                     0.152656
     45 H                     0.196750
     46 H                     0.090023
     47 H                     0.173358
     48 H                     0.176157
     49 H                     0.184001
     50 C                    -0.448657
     51 H                     0.207759
     52 H                     0.214778
     53 H                     0.132927
     54 H                     0.185876
  ----------------------------------------
  Sum of atomic charges =     0.000000

                    Cartesian Multipole Moments
 -----------------------------------------------------------------
    Charge (ESU x 10^10)
                 0.0000
    Dipole Moment (Debye)
         X       0.2334      Y       0.3897      Z      -0.7785
       Tot       0.9014
    Quadrupole Moments (Debye-Ang)
        XX    -181.9521     XY      -7.6520     YY    -145.2716
        XZ      16.7747     YZ      14.3946     ZZ    -180.9300

 Total job time:  1780.27s(wall), 3544.13s(cpu)
        *  Thank you very much for using Q-Chem.  Have a nice day.  *
