 Q-Chem 5.0, Q-Chem, Inc., Pleasanton, CA (2017)
 Q-Chem 5.0.1 for Intel X86 EM64T Linux

User input:
--------------------------------------------------------------
$molecule
0  1
--
0  1
C        -0.54444000        -0.68370000        -0.06689000
C        -0.55709000        +0.71878000        +0.05493000
C        +0.74969000        -1.43776000        -0.09374000
C        +0.72843000        +1.48436000        +0.06598000
O        +1.53645000        -1.09176000        +0.94813000
O        +1.04702000        -2.28405000        -0.90088000
O        +1.53784000        +1.08301000        -0.93877000
O        +1.01035000        +2.37097000        +0.83478000
C        +2.83449000        +1.70121000        -0.99358000
C        +2.82316000        -1.73208000        +1.00475000
C        -1.74320000        -1.41616000        -0.12552000
C        -2.93952000        -0.70056000        -0.05285000
C        -2.95313000        +0.68255000        +0.06934000
C        -1.77161000        +1.42404000        +0.12810000
H        +2.73835000        +2.77989000        -1.12464000
H        +2.70778000        -2.81319000        +1.09555000
H        -3.90354000        +1.20325000        +0.11710000
H        +3.38998000        +1.50093000        -0.07544000
H        +3.33184000        +1.25269000        -1.85067000
H        +3.31095000        -1.32281000        +1.88650000
H        +3.39889000        -1.50934000        +0.10459000
H        -3.87892000        -1.24211000        -0.08988000
C        -1.83960000        +2.92746000        +0.24839000
C        -1.78103000        -2.92226000        -0.24590000
H        -1.39752000        -3.25223000        -1.21323000
H        -2.80572000        -3.28175000        -0.13627000
H        -1.16958000        -3.40777000        +0.51926000
H        -1.24214000        +3.42352000        -0.52065000
H        -1.45503000        +3.26427000        +1.21284000
H        -2.87211000        +3.26623000        +0.14638000
--
0  1
C        -0.51141000        -1.10222000        +4.71472000
C        -0.52406000        +0.30026000        +4.83654000
C        +0.78272000        -1.85628000        +4.68787000
C        +0.76146000        +1.06584000        +4.84759000
O        +1.56948000        -1.51028000        +5.72974000
O        +1.08005000        -2.70257000        +3.88073000
O        +1.57087000        +0.66449000        +3.84284000
O        +1.04338000        +1.95245000        +5.61639000
C        +2.86752000        +1.28269000        +3.78803000
C        +2.85619000        -2.15060000        +5.78636000
C        -1.71017000        -1.83468000        +4.65609000
C        -2.90649000        -1.11908000        +4.72876000
C        -2.92010000        +0.26403000        +4.85095000
C        -1.73858000        +1.00552000        +4.90971000
H        +2.77138000        +2.36137000        +3.65697000
H        +2.74081000        -3.23171000        +5.87716000
H        -3.87051000        +0.78473000        +4.89871000
H        +3.42301000        +1.08241000        +4.70617000
H        +3.36487000        +0.83417000        +2.93094000
H        +3.34398000        -1.74133000        +6.66811000
H        +3.43192000        -1.92786000        +4.88620000
H        -3.84589000        -1.66063000        +4.69173000
C        -1.80657000        +2.50894000        +5.03000000
C        -1.74800000        -3.34078000        +4.53571000
H        -1.36449000        -3.67075000        +3.56838000
H        -2.77269000        -3.70027000        +4.64534000
H        -1.13655000        -3.82629000        +5.30087000
H        -1.20911000        +3.00500000        +4.26096000
H        -1.42200000        +2.84575000        +5.99445000
H        -2.83908000        +2.84771000        +4.92799000
$end

$rem
JOBTYPE                   SP
METHOD                    B3LYP
DFT_D                     d3_op
BASIS                     6-311++G(d,p)
SYMMETRY                  False
THRESH                    12
SCF_CONVERGENCE           8
MAX_SUB_FILE_NUM          128
MEM_STATIC                400
MEM_TOTAL                 4000
$end
--------------------------------------------------------------

             Standard Nuclear Orientation (Angstroms)
    I     Atom           X                Y                Z
 ----------------------------------------------------------------
    1      C      -2.3472796392     0.4886095884     0.9016205104
    2      C      -2.4606363742     0.5528606430    -0.5001541997
    3      C      -2.2305805221    -0.8314536722     1.6001290410
    4      C      -2.5594703181    -0.7045407701    -1.3051200668
    5      O      -1.2500962171    -1.5847988601     1.0566937184
    6      O      -2.8815472813    -1.1742184611     2.5566024857
    7      O      -3.4722691207    -1.5472761149    -0.7737591558
    8      O      -1.9450728381    -0.9399008216    -2.3169159954
    9      C      -3.6113708320    -2.8222731307    -1.4229971109
   10      C      -1.0701196827    -2.8918047370     1.6295656377
   11      C      -2.2996783489     1.6595407416     1.6785471593
   12      C      -2.3634619043     2.8814319104     1.0066398286
   13      C      -2.4732449000     2.9459700269    -0.3760717920
   14      C      -2.5224564150     1.7925842203    -1.1612654470
   15      H      -3.9213424262    -2.6909679222    -2.4606129929
   16      H      -0.8023384740    -2.8126444228     2.6842612740
   17      H      -2.5257977904     3.9148204052    -0.8611035579
   18      H      -2.6651804232    -3.3661502397    -1.3988376689
   19      H      -4.3750119561    -3.3519314761    -0.8578026738
   20      H      -0.2621319369    -3.3473750119     1.0616434539
   21      H      -1.9868125201    -3.4770852339     1.5374399197
   22      H      -2.3227652884     3.8003385044     1.5820305137
   23      C      -2.6548710354     1.9156409561    -2.6601608498
   24      C      -2.1683571612     1.6421223040     3.1841071903
   25      H      -3.0619724319     1.2281864364     3.6550597309
   26      H      -2.0145115493     2.6555414354     3.5590132918
   27      H      -1.3247873893     1.0292945105     3.5125779251
   28      H      -3.4874505200     1.3208333882    -3.0441814949
   29      H      -1.7547049205     1.5623032547    -3.1664733006
   30      H      -2.8259553721     2.9571758609    -2.9379795765
   31      C       2.4373273007     0.5356449459     0.5203486007
   32      C       2.3239705657     0.5998960004    -0.8814261094
   33      C       2.5540264178    -0.7844183147     1.2188571312
   34      C       2.2251366218    -0.6575054127    -1.6863919765
   35      O       3.5345107228    -1.5377635027     0.6754218087
   36      O       1.9030596586    -1.1271831037     2.1753305760
   37      O       1.3123378192    -1.5002407575    -1.1550310656
   38      O       2.8395341018    -0.8928654641    -2.6981879051
   39      C       1.1732361079    -2.7752377733    -1.8042690206
   40      C       3.7144872572    -2.8447693796     1.2482937279
   41      C       2.4849285910     1.7065760991     1.2972752496
   42      C       2.4211450356     2.9284672679     0.6253679189
   43      C       2.3113620399     2.9930053844    -0.7573437017
   44      C       2.2621505249     1.8396195777    -1.5425373567
   45      H       0.8632645137    -2.6439325648    -2.8418849026
   46      H       3.9822684659    -2.7656090653     2.3029893643
   47      H       2.2588091495     3.9618557626    -1.2423754677
   48      H       2.1194265167    -3.3191148823    -1.7801095786
   49      H       0.4095949838    -3.3048961187    -1.2390745836
   50      H       4.5224750030    -3.3003396544     0.6803715442
   51      H       2.7977944198    -3.4300498765     1.1561680100
   52      H       2.4618416515     3.8473738618     1.2007586040
   53      C       2.1297359045     1.9626763135    -3.0414327595
   54      C       2.6162497787     1.6891576614     2.8028352806
   55      H       1.7226345081     1.2752217939     3.2737878212
   56      H       2.7700953907     2.7025767928     3.1777413821
   57      H       3.4598195506     1.0763298679     3.1313060154
   58      H       1.2971564200     1.3678687457    -3.4254534046
   59      H       3.0299020194     1.6093386121    -3.5477452103
   60      H       1.9586515678     3.0042112183    -3.3192514862
 ----------------------------------------------------------------

   14   -1533.7615813257      9.85E-09 Convergence criterion met
 Total energy in the final basis set = -1533.76158133

                    Orbital Energies (a.u.)
 --------------------------------------------------------------

 Alpha MOs
 -- Occupied --
-19.176 -19.175 -19.168 -19.167 -19.119 -19.118 -19.113 -19.112
-10.310 -10.310 -10.305 -10.304 -10.233 -10.232 -10.226 -10.224
-10.202 -10.202 -10.201 -10.201 -10.198 -10.198 -10.198 -10.197
-10.184 -10.183 -10.183 -10.183 -10.170 -10.169 -10.166 -10.166
 -1.119  -1.118  -1.109  -1.108  -1.030  -1.030  -1.024  -1.023
 -0.882  -0.881  -0.804  -0.804  -0.792  -0.792  -0.744  -0.743
 -0.731  -0.730  -0.722  -0.721  -0.672  -0.672  -0.646  -0.646
 -0.617  -0.617  -0.574  -0.574  -0.562  -0.560  -0.534  -0.533
 -0.515  -0.514  -0.511  -0.511  -0.489  -0.489  -0.484  -0.483
 -0.479  -0.475  -0.474  -0.471  -0.467  -0.465  -0.442  -0.438
 -0.433  -0.430  -0.428  -0.424  -0.419  -0.416  -0.413  -0.413
 -0.409  -0.408  -0.403  -0.402  -0.393  -0.392  -0.385  -0.384
 -0.378  -0.377  -0.370  -0.368  -0.359  -0.358  -0.356  -0.355
 -0.353  -0.352  -0.319  -0.318  -0.308  -0.307  -0.292  -0.292
 -0.288  -0.286  -0.264  -0.261  -0.251  -0.248

          Ground-State Mulliken Net Atomic Charges

     Atom                 Charge (a.u.)
  ----------------------------------------
      1 C                     0.247583
      2 C                     0.355250
      3 C                    -0.542861
      4 C                    -0.839699
      5 O                     0.142646
      6 O                    -0.142569
      7 O                     0.102505
      8 O                    -0.095494
      9 C                    -0.156493
     10 C                    -0.320080
     11 C                     0.470681
     12 C                    -0.340472
     13 C                    -0.327067
     14 C                     0.328447
     15 H                     0.165403
     16 H                     0.203083
     17 H                     0.162885
     18 H                     0.178647
     19 H                     0.171991
     20 H                     0.087785
     21 H                     0.191314
     22 H                     0.160391
     23 C                    -0.623140
     24 C                    -0.627698
     25 H                     0.214230
     26 H                     0.127808
     27 H                     0.204804
     28 H                     0.174289
     29 H                     0.189481
     30 H                     0.139061
     31 C                     0.330508
     32 C                     0.271262
     33 C                    -0.875812
     34 C                    -0.533747
     35 O                     0.117670
     36 O                    -0.085040
     37 O                     0.114051
     38 O                    -0.142391
     39 C                    -0.322532
     40 C                    -0.146690
     41 C                     0.327651
     42 C                    -0.320643
     43 C                    -0.334572
     44 C                     0.476453
     45 H                     0.205788
     46 H                     0.164249
     47 H                     0.160364
     48 H                     0.195366
     49 H                     0.086337
     50 H                     0.171582
     51 H                     0.177661
     52 H                     0.163542
     53 C                    -0.623468
     54 C                    -0.629281
     55 H                     0.190291
     56 H                     0.139927
     57 H                     0.174455
     58 H                     0.204431
     59 H                     0.213318
     60 H                     0.126556
  ----------------------------------------
  Sum of atomic charges =     0.000000

                    Cartesian Multipole Moments
 -----------------------------------------------------------------
    Charge (ESU x 10^10)
                 0.0000
    Dipole Moment (Debye)
         X       0.1970      Y      -0.0609      Z       0.1786
       Tot       0.2728
    Quadrupole Moments (Debye-Ang)
        XX    -194.5354     XY      -1.4756     YY    -155.0324
        XZ      17.7774     YZ       1.7531     ZZ    -197.2220

 Total job time:  2389.90s(wall), 4757.26s(cpu)
        *  Thank you very much for using Q-Chem.  Have a nice day.  *
