 Q-Chem 5.0, Q-Chem, Inc., Pleasanton, CA (2017)
 Q-Chem 5.0.1 for Intel X86 EM64T Linux

User input:
--------------------------------------------------------------
$molecule
0  1
C        -0.51141000        -1.10222000        +4.71472000
C        -0.52406000        +0.30026000        +4.83654000
C        +0.78272000        -1.85628000        +4.68787000
C        +0.76146000        +1.06584000        +4.84759000
O        +1.56948000        -1.51028000        +5.72974000
O        +1.08005000        -2.70257000        +3.88073000
O        +1.57087000        +0.66449000        +3.84284000
O        +1.04338000        +1.95245000        +5.61639000
C        +2.86752000        +1.28269000        +3.78803000
C        +2.85619000        -2.15060000        +5.78636000
C        -1.71017000        -1.83468000        +4.65609000
C        -2.90649000        -1.11908000        +4.72876000
C        -2.92010000        +0.26403000        +4.85095000
C        -1.73858000        +1.00552000        +4.90971000
H        +2.77138000        +2.36137000        +3.65697000
H        +2.74081000        -3.23171000        +5.87716000
H        -3.87051000        +0.78473000        +4.89871000
H        +3.42301000        +1.08241000        +4.70617000
H        +3.36487000        +0.83417000        +2.93094000
H        +3.34398000        -1.74133000        +6.66811000
H        +3.43192000        -1.92786000        +4.88620000
H        -3.84589000        -1.66063000        +4.69173000
C        -1.80657000        +2.50894000        +5.03000000
C        -1.74800000        -3.34078000        +4.53571000
H        -1.36449000        -3.67075000        +3.56838000
H        -2.77269000        -3.70027000        +4.64534000
H        -1.13655000        -3.82629000        +5.30087000
H        -1.20911000        +3.00500000        +4.26096000
H        -1.42200000        +2.84575000        +5.99445000
H        -2.83908000        +2.84771000        +4.92799000
@C        -0.54444000        -0.68370000        -0.06689000
@C        -0.55709000        +0.71878000        +0.05493000
@C        +0.74969000        -1.43776000        -0.09374000
@C        +0.72843000        +1.48436000        +0.06598000
@O        +1.53645000        -1.09176000        +0.94813000
@O        +1.04702000        -2.28405000        -0.90088000
@O        +1.53784000        +1.08301000        -0.93877000
@O        +1.01035000        +2.37097000        +0.83478000
@C        +2.83449000        +1.70121000        -0.99358000
@C        +2.82316000        -1.73208000        +1.00475000
@C        -1.74320000        -1.41616000        -0.12552000
@C        -2.93952000        -0.70056000        -0.05285000
@C        -2.95313000        +0.68255000        +0.06934000
@C        -1.77161000        +1.42404000        +0.12810000
@H        +2.73835000        +2.77989000        -1.12464000
@H        +2.70778000        -2.81319000        +1.09555000
@H        -3.90354000        +1.20325000        +0.11710000
@H        +3.38998000        +1.50093000        -0.07544000
@H        +3.33184000        +1.25269000        -1.85067000
@H        +3.31095000        -1.32281000        +1.88650000
@H        +3.39889000        -1.50934000        +0.10459000
@H        -3.87892000        -1.24211000        -0.08988000
@C        -1.83960000        +2.92746000        +0.24839000
@C        -1.78103000        -2.92226000        -0.24590000
@H        -1.39752000        -3.25223000        -1.21323000
@H        -2.80572000        -3.28175000        -0.13627000
@H        -1.16958000        -3.40777000        +0.51926000
@H        -1.24214000        +3.42352000        -0.52065000
@H        -1.45503000        +3.26427000        +1.21284000
@H        -2.87211000        +3.26623000        +0.14638000
$end

$rem
JOBTYPE                   SP
METHOD                    B3LYP
DFT_D                     d3_op
BASIS                     6-311++G(d,p)
SYMMETRY                  False
THRESH                    12
SCF_CONVERGENCE           8
MAX_SUB_FILE_NUM          128
MEM_STATIC                400
MEM_TOTAL                 4000
$end
--------------------------------------------------------------

             Standard Nuclear Orientation (Angstroms)
    I     Atom           X                Y                Z
 ----------------------------------------------------------------
    1      C      -0.5114100000    -1.1022200000     4.7147200000
    2      C      -0.5240600000     0.3002600000     4.8365400000
    3      C       0.7827200000    -1.8562800000     4.6878700000
    4      C       0.7614600000     1.0658400000     4.8475900000
    5      O       1.5694800000    -1.5102800000     5.7297400000
    6      O       1.0800500000    -2.7025700000     3.8807300000
    7      O       1.5708700000     0.6644900000     3.8428400000
    8      O       1.0433800000     1.9524500000     5.6163900000
    9      C       2.8675200000     1.2826900000     3.7880300000
   10      C       2.8561900000    -2.1506000000     5.7863600000
   11      C      -1.7101700000    -1.8346800000     4.6560900000
   12      C      -2.9064900000    -1.1190800000     4.7287600000
   13      C      -2.9201000000     0.2640300000     4.8509500000
   14      C      -1.7385800000     1.0055200000     4.9097100000
   15      H       2.7713800000     2.3613700000     3.6569700000
   16      H       2.7408100000    -3.2317100000     5.8771600000
   17      H      -3.8705100000     0.7847300000     4.8987100000
   18      H       3.4230100000     1.0824100000     4.7061700000
   19      H       3.3648700000     0.8341700000     2.9309400000
   20      H       3.3439800000    -1.7413300000     6.6681100000
   21      H       3.4319200000    -1.9278600000     4.8862000000
   22      H      -3.8458900000    -1.6606300000     4.6917300000
   23      C      -1.8065700000     2.5089400000     5.0300000000
   24      C      -1.7480000000    -3.3407800000     4.5357100000
   25      H      -1.3644900000    -3.6707500000     3.5683800000
   26      H      -2.7726900000    -3.7002700000     4.6453400000
   27      H      -1.1365500000    -3.8262900000     5.3008700000
   28      H      -1.2091100000     3.0050000000     4.2609600000
   29      H      -1.4220000000     2.8457500000     5.9944500000
   30      H      -2.8390800000     2.8477100000     4.9279900000
   31      GH     -0.5444400000    -0.6837000000    -0.0668900000
   32      GH     -0.5570900000     0.7187800000     0.0549300000
   33      GH      0.7496900000    -1.4377600000    -0.0937400000
   34      GH      0.7284300000     1.4843600000     0.0659800000
   35      GH      1.5364500000    -1.0917600000     0.9481300000
   36      GH      1.0470200000    -2.2840500000    -0.9008800000
   37      GH      1.5378400000     1.0830100000    -0.9387700000
   38      GH      1.0103500000     2.3709700000     0.8347800000
   39      GH      2.8344900000     1.7012100000    -0.9935800000
   40      GH      2.8231600000    -1.7320800000     1.0047500000
   41      GH     -1.7432000000    -1.4161600000    -0.1255200000
   42      GH     -2.9395200000    -0.7005600000    -0.0528500000
   43      GH     -2.9531300000     0.6825500000     0.0693400000
   44      GH     -1.7716100000     1.4240400000     0.1281000000
   45      GH      2.7383500000     2.7798900000    -1.1246400000
   46      GH      2.7077800000    -2.8131900000     1.0955500000
   47      GH     -3.9035400000     1.2032500000     0.1171000000
   48      GH      3.3899800000     1.5009300000    -0.0754400000
   49      GH      3.3318400000     1.2526900000    -1.8506700000
   50      GH      3.3109500000    -1.3228100000     1.8865000000
   51      GH      3.3988900000    -1.5093400000     0.1045900000
   52      GH     -3.8789200000    -1.2421100000    -0.0898800000
   53      GH     -1.8396000000     2.9274600000     0.2483900000
   54      GH     -1.7810300000    -2.9222600000    -0.2459000000
   55      GH     -1.3975200000    -3.2522300000    -1.2132300000
   56      GH     -2.8057200000    -3.2817500000    -0.1362700000
   57      GH     -1.1695800000    -3.4077700000     0.5192600000
   58      GH     -1.2421400000     3.4235200000    -0.5206500000
   59      GH     -1.4550300000     3.2642700000     1.2128400000
   60      GH     -2.8721100000     3.2662300000     0.1463800000
 ----------------------------------------------------------------

   14    -766.8773738282      5.96E-09 Convergence criterion met
 Total energy in the final basis set = -766.87737383

                    Orbital Energies (a.u.)
 --------------------------------------------------------------

 Alpha MOs
 -- Occupied --
-19.176 -19.176 -19.119 -19.119 -10.311 -10.311 -10.232 -10.232
-10.205 -10.205 -10.201 -10.201 -10.187 -10.186 -10.171 -10.170
 -1.121  -1.114  -1.031  -1.030  -0.885  -0.807  -0.795  -0.747
 -0.734  -0.725  -0.675  -0.649  -0.620  -0.577  -0.565  -0.537
 -0.517  -0.515  -0.491  -0.489  -0.480  -0.477  -0.469  -0.442
 -0.434  -0.429  -0.420  -0.416  -0.411  -0.406  -0.396  -0.387
 -0.380  -0.373  -0.362  -0.359  -0.357  -0.321  -0.313  -0.293
 -0.292  -0.266  -0.253

          Ground-State Mulliken Net Atomic Charges

     Atom                 Charge (a.u.)
  ----------------------------------------
      1 C                     0.445397
      2 C                     0.173512
      3 C                    -0.926801
      4 C                    -0.460203
      5 O                     0.112457
      6 O                    -0.067075
      7 O                     0.115873
      8 O                    -0.136554
      9 C                    -0.354264
     10 C                    -0.149495
     11 C                     0.307770
     12 C                    -0.355053
     13 C                    -0.304705
     14 C                     0.479399
     15 H                     0.197532
     16 H                     0.163839
     17 H                     0.165215
     18 H                     0.198398
     19 H                     0.105169
     20 H                     0.170693
     21 H                     0.180205
     22 H                     0.166774
     23 C                    -0.618148
     24 C                    -0.648360
     25 H                     0.207768
     26 H                     0.139900
     27 H                     0.174758
     28 H                     0.205809
     29 H                     0.214769
     30 H                     0.128846
     31 GH                    0.113456
     32 GH                   -0.134352
     33 GH                   -0.096622
     34 GH                    0.062372
     35 GH                   -0.017617
     36 GH                    0.000689
     37 GH                    0.000696
     38 GH                   -0.008459
     39 GH                   -0.007223
     40 GH                    0.007845
     41 GH                   -0.007066
     42 GH                   -0.028602
     43 GH                    0.041483
     44 GH                    0.028204
     45 GH                    0.000762
     46 GH                   -0.001389
     47 GH                    0.000194
     48 GH                    0.003383
     49 GH                   -0.000738
     50 GH                    0.011771
     51 GH                    0.002203
     52 GH                   -0.001652
     53 GH                    0.010891
     54 GH                    0.000479
     55 GH                   -0.000511
     56 GH                    0.002035
     57 GH                   -0.005623
     58 GH                    0.000073
     59 GH                   -0.010274
     60 GH                    0.000165
  ----------------------------------------
  Sum of atomic charges =     0.000000

                    Cartesian Multipole Moments
 -----------------------------------------------------------------
    Charge (ESU x 10^10)
                 0.0000
    Dipole Moment (Debye)
         X       0.0651      Y      -0.1071      Z       0.0458
       Tot       0.1334
    Quadrupole Moments (Debye-Ang)
        XX     -76.1975     XY      -0.1204     YY     -95.3581
        XZ       0.4766     YZ      -9.4716     ZZ     -99.0364

 Total job time:  2332.63s(wall), 4642.92s(cpu)
        *  Thank you very much for using Q-Chem.  Have a nice day.  *
