 Q-Chem 5.0, Q-Chem, Inc., Pleasanton, CA (2017)
 Q-Chem 5.0.1 for Intel X86 EM64T Linux

User input:
--------------------------------------------------------------
$molecule
0 1
C -0.08480095 -0.97199102 -0.14542644
C -0.87812942 0.18651316 -0.00002713
C 1.41243389 -0.97660291 -0.30574180
C -0.26756407 1.55023934 -0.01470104
O 2.02220537 -1.02532699 0.89285826
O 1.98560649 -1.05185480 -1.36314611
O 1.07699986 1.50696462 -0.11062002
O -0.87542417 2.59580108 0.03707606
C 1.75628252 2.76965656 -0.19314348
C 3.46005137 -1.06930939 0.86154858
C -0.67178388 -2.23570811 -0.17261039
C -2.04827167 -2.36737596 -0.04150914
C -2.83513413 -1.23385439 0.11146442
C -2.28464176 0.05192315 0.13008489
H 1.38324574 3.34727694 -1.03956583
H 3.80567784 -1.95169314 0.32091109
H -3.90908579 -1.33981763 0.21590558
H 1.61140657 3.34035487 0.72556980
H 2.80638180 2.52232788 -0.33154401
H 3.77140967 -1.10949282 1.90285855
H 3.85393403 -0.17460500 0.37636426
H -2.50530292 -3.35047461 -0.05868709
H -0.04715008 -3.11231760 -0.29729583
C -3.23665528 1.21375815 0.28700737
H -3.19280914 1.88721385 -0.57021624
H -2.99644874 1.82062318 1.16171086
H -4.25710224 0.83921619 0.38931871
$end

$rem
sym_ignore      true
jobtype         ts
method          b3lyp
basis           6-311++G(d,p)
dft_d           d3_op
mem_total       62000
MEM_STATIC      4000
ao2mo_disk      350000
max_scf_cycles  200
geom_opt_max_cycles 1000
geom_opt_tol_displacement 1
GEOM_OPT_TOL_GRADIENT       1
GEOM_OPT_TOL_ENERGY         1
$end

--------------------------------------------------------------

   15    -727.5412896868      6.97E-09 Convergence criterion met
 Total energy in the final basis set = -727.54128969
   11    -727.5411011542      6.90E-09 Convergence criterion met
 Total energy in the final basis set = -727.54110115
   12    -727.5408037497      6.05E-09 Convergence criterion met
 Total energy in the final basis set = -727.54080375
   12    -727.5402131304      9.54E-09 Convergence criterion met
 Total energy in the final basis set = -727.54021313
   12    -727.5411043459      6.75E-09 Convergence criterion met
 Total energy in the final basis set = -727.54110435
   13    -727.5415162241      2.88E-09 Convergence criterion met
 Total energy in the final basis set = -727.54151622
   13    -727.5418394777      3.07E-09 Convergence criterion met
 Total energy in the final basis set = -727.54183948
   13    -727.5419116289      2.52E-09 Convergence criterion met
    7    -727.5412964000      4.73E-09 Convergence criterion met
 Total energy in the final basis set = -727.54129640
    6    -727.5412963893      5.13E-09 Convergence criterion met
 Total energy in the final basis set = -727.54129639
    6    -727.5412963757      5.21E-09 Convergence criterion met
 Total energy in the final basis set = -727.54129638
    5    -727.5412963669      9.20E-09 Convergence criterion met
 Total energy in the final basis set = -727.54129637
    5    -727.5412963603      5.63E-09 Convergence criterion met
 Total energy in the final basis set = -727.54129636
    4    -727.5412963565      6.04E-09 Convergence criterion met
 Total energy in the final basis set = -727.54129636
 Final energy is   -727.541296356517
 **  OPTIMIZATION CONVERGED  **
 Total job time:  2125.88s(wall), 33549.11s(cpu)
        *  Thank you very much for using Q-Chem.  Have a nice day.  *

User input: 2 of 2

r0172.ten.osc.edu 10.25.155
Q-Chem Developer Version! Running on 10.25.155.*
                  Welcome to Q-Chem
     A Quantum Leap Into The Future Of Chemistry

 Q-Chem 5.0, Q-Chem, Inc., Pleasanton, CA (2017)

 Yihan Shao,  Zhengting Gan,  E. Epifanovsky,  A. T. B. Gilbert,  M. Wormit,
 J. Kussmann,  A. W. Lange,  A. Behn,  Jia Deng,  Xintian Feng,  D. Ghosh,
 M. Goldey,  P. R. Horn,  L. D. Jacobson,  I. Kaliman,  T. Kus,  A. Landau,
 Jie Liu,  E. I. Proynov,  R. M. Richard,  R. P. Steele,  E. J. Sundstrom,
 H. L. Woodcock III,  P. M. Zimmerman,  D. Zuev,  B. Albrecht,  E. Alguire,
 S. A. Baeppler,  Z. Benda,  Y. A. Bernard,  E. J. Berquist,  K. B. Bravaya,
 D. Casanova,  Chun-Min Chang,  Yunqing Chen,  A. Chien,  K. D. Closser,
 M. P. Coons,  S. Dasgupta,  M. Diedenhofen,  Hainam Do,  R. G. Edgar,
 Po-Tung Fang,  S. Fatehi,  Qingguo Feng,  Qinghui Ge,  A. Ghysels,
 J. Gomes,  J. Gonthier,  A. Gunina,  M. W. D. Hanson-Heine,
 P. H. P. Harbach,  A. W. Hauser,  J. E. Herr,  E. G. Hohenstein,
 Z. C. Holden,  Kerwin Hui,  T.-C. Jagau,  Hyunjun Ji,  B. Kaduk,
 K. Khistyaev,  Jaehoon Kim,  P. Klunzinger,  K. Koh,  D. Kosenkov,
 T. Kowalczyk,  C. M. Krauter,  A. Kunitsa,  Ka Un Lao,  A. Laurent,
 K. V. Lawler,  Joonho Lee,  D. Lefrancois,  S. Lehtola,  D. S. Levine,
 Yi-Pei Li,  You-Sheng Lin,  Fenglai Liu,  E. Livshits,  A. Luenser,
 P. Manohar,  E. Mansoor,  S. F. Manzer,  Shan-Ping Mao,  Yuezhi Mao,
 N. Mardirossian,  A. V. Marenich,  L. A. Martinez-Martinez,  S. A. Maurer,
 N. J. Mayhall,  S. C. McKenzie,  J.-M. Mewes,  A. F. Morrison,  K. Nanda,
 T. S. Nguyen-Beck,  R. Olivares-Amaya,  J. A. Parkhill,  T. M. Perrine,
 F. Plasser,  S. Prager,  A. Prociuk,  D. R. Rehn,  F. Rob,  M. Schneider,
 N. Sergueev,  S. M. Sharada,  S. Sharma,  D. W. Small,  T. Stauch,
 T. Stein,  Yu-Chuan Su,  A. J. W. Thom,  T. Tsuchimochi,  L. Vogt,
 O. Vydrov,  M. A. Watson,  J. Wenzel,  M. de Wergifosse,  T. A. Wesolowski,
 A. White,  J. Witte,  A. Yamada,  Jun Yang,  K. Yao,  S. Yeganeh,
 S. R. Yost,  Zhi-Qiang You,  A. Zech,  Igor Ying Zhang,  Xing Zhang,
 Yan Zhao,  Ying Zhu,  B. R. Brooks,  G. K. L. Chan,  C. J. Cramer,
 M. S. Gordon,  W. J. Hehre,  A. Klamt,  M. W. Schmidt,  C. D. Sherrill,
 D. G. Truhlar,  A. Aspuru-Guzik,  R. Baer,  A. T. Bell,  N. A. Besley,
 Jeng-Da Chai,  A. Dreuw,  B. D. Dunietz,  T. R. Furlani,  Chao-Ping Hsu,
 Yousung Jung,  Jing Kong,  D. S. Lambrecht,  WanZhen Liang,  C. Ochsenfeld,
 V. A. Rassolov,  L. V. Slipchenko,  J. E. Subotnik,  T. Van Voorhis,
 J. M. Herbert,  A. I. Krylov,  P. M. W. Gill,  M. Head-Gordon

 Contributors to earlier versions of Q-Chem not listed above:
 R. D. Adamson,  B. Austin,  J. Baker,  G. J. O. Beran,  K. Brandhorst,
 S. T. Brown,  E. F. C. Byrd,  A. K. Chakraborty,  C.-L. Cheng,
 Siu Hung Chien,  D. M. Chipman,  D. L. Crittenden,  H. Dachsel,
 R. A. DiStasio Jr.,  R. J. Doerksen,  A. D. Dutoi,  L. Fusti-Molnar,
 W. A. Goddard III,  A. Golubeva-Zadorozhnaya,  S. R. Gwaltney,  G. Hawkins,
 A. Heyden,  S. Hirata,  G. Kedziora,  F. J. Keil,  C. Kelley,  Jihan Kim,
 R. A. King,  R. Z. Khaliullin,  P. P. Korambath,  W. Kurlancheek,
 A. M. Lee,  M. S. Lee,  S. V. Levchenko,  Ching Yeh Lin,  D. Liotard,
 R. C. Lochan,  I. Lotan,  P. E. Maslen,  N. Nair,  D. P. O'Neill,
 D. Neuhauser,  E. Neuscamman,  C. M. Oana,  R. Olson,  B. Peters,
 R. Peverati,  P. A. Pieniazek,  Y. M. Rhee,  J. Ritchie,  M. A. Rohrdanz,
 E. Rosta,  N. J. Russ,  H. F. Schaefer III,  N. E. Schultz,  N. Shenvi,
 A. C. Simmonett,  A. Sodt,  D. Stuck,  K. S. Thanthiriwatte,  V. Vanovschi,
 Tao Wang,  A. Warshel,  C. F. Williams,  Q. Wu,  X. Xu,  W. Zhang

 Please cite Q-Chem as follows:
 Y. Shao et al., Mol. Phys. 113, 184-215 (2015)
 DOI: 10.1080/00268976.2014.952696

 Q-Chem 5.0.1 for Intel X86 EM64T Linux

 Parts of Q-Chem use Armadillo 5.200.1 (Boston Tea Smuggler).
 http://arma.sourceforge.net/

 Q-Chem begins on Sun Oct 15 23:47:41 2017

Host: r0172.ten.osc.edu
0

     Scratch files written to /tmp/pbstmp.1310588/01//
Processing $rem in /users/PAS0291/osu6415/.qchemrc.
molden_format             true
The previous job contains 0 fragments, simply inherited here

Checking the input file for inconsistencies... 	...done.

--------------------------------------------------------------
User input:
--------------------------------------------------------------

$molecule
read
$end

$rem
sym_ignore      true
scf_guess       read
jobtype         freq
method          b3lyp
basis           6-311++G(d,p)
dft_d           d3_op
mem_total       62000
MEM_STATIC      4000
ao2mo_disk      350000
max_scf_cycles  200
$end
--------------------------------------------------------------

             Standard Nuclear Orientation (Angstroms)
    I     Atom           X                Y                Z
 ----------------------------------------------------------------
    1      C      -0.0847223132    -0.9699617260    -0.1368531680
    2      C      -0.8799388762     0.1886824561    -0.0032280603
    3      C       1.4115820737    -0.9730761467    -0.3064981293
    4      C      -0.2697676834     1.5525803974    -0.0136758412
    5      O       2.0290215147    -1.0343467664     0.8875737529
    6      O       1.9779748118    -1.0352888683    -1.3683218108
    7      O       1.0746188693     1.5098160055    -0.1113483748
    8      O      -0.8773758307     2.5977752037     0.0480257209
    9      C       1.7543131519     2.7729095690    -0.1832101029
   10      C       3.4667457701    -1.0799528113     0.8464754984
   11      C      -0.6697270313    -2.2348060755    -0.1514269783
   12      C      -2.0463090516    -2.3672431872    -0.0221965672
   13      C      -2.8353564680    -1.2333413900     0.1159023109
   14      C      -2.2866468375     0.0533003121     0.1243205288
   15      H       1.3800645939     3.3586931988    -1.0234476625
   16      H       3.8074707436    -1.9578183418     0.2954774308
   17      H      -3.9094928692    -1.3397798890     0.2178782725
   18      H       1.6114204838     3.3349929621     0.7411318779
   19      H       2.8040406513     2.5263884606    -0.3258440039
   20      H       3.7846782508    -1.1302432270     1.8853460192
   21      H       3.8587236350    -0.1813608425     0.3670362043
   22      H      -2.5018035411    -3.3511775103    -0.0302016401
   23      H      -0.0436800140    -3.1117930741    -0.2660147274
   24      C      -3.2407357258     1.2151263809     0.2680040067
   25      H      -3.1893081539     1.8855021019    -0.5912350674
   26      H      -3.0085942248     1.8254723859     1.1424560078
   27      H      -4.2618650194     0.8403950221     0.3623183827
 ----------------------------------------------------------------

    2    -727.5412963570      5.03E-09 Convergence criterion met
 Total energy in the final basis set = -727.54129636

                    Orbital Energies (a.u.)
 --------------------------------------------------------------

 Alpha MOs
 -- Occupied --
-19.176 -19.175 -19.117 -19.117 -10.312 -10.312 -10.232 -10.231
-10.212 -10.210 -10.208 -10.195 -10.192 -10.188 -10.167  -1.122
 -1.115  -1.030  -1.029  -0.885  -0.800  -0.793  -0.748  -0.731
 -0.699  -0.654  -0.623  -0.581  -0.576  -0.547  -0.518  -0.509
 -0.496  -0.487  -0.482  -0.479  -0.470  -0.444  -0.433  -0.429
 -0.425  -0.408  -0.404  -0.392  -0.384  -0.374  -0.373  -0.362
 -0.359  -0.323  -0.311  -0.296  -0.287  -0.273  -0.262

          Ground-State Mulliken Net Atomic Charges

     Atom                 Charge (a.u.)
  ----------------------------------------
      1 C                     0.065164
      2 C                     0.961990
      3 C                    -0.938291
      4 C                    -0.383289
      5 O                     0.094398
      6 O                    -0.114310
      7 O                    -0.124149
      8 O                    -0.237422
      9 C                    -0.200408
     10 C                    -0.200615
     11 C                    -0.108513
     12 C                    -0.025754
     13 C                    -0.587131
     14 C                     0.310006
     15 H                     0.186363
     16 H                     0.171463
     17 H                     0.112187
     18 H                     0.191585
     19 H                     0.148037
     20 H                     0.156894
     21 H                     0.166608
     22 H                     0.182523
     23 H                     0.165751
     24 C                    -0.490699
     25 H                     0.177655
     26 H                     0.176405
     27 H                     0.143551
  ----------------------------------------
  Sum of atomic charges =     0.000000

                    Cartesian Multipole Moments
 -----------------------------------------------------------------
    Charge (ESU x 10^10)
                 0.0000
    Dipole Moment (Debye)
         X       0.5986      Y      -0.8635      Z       1.6672
       Tot       1.9706
    Quadrupole Moments (Debye-Ang)
        XX     -73.9978     XY       7.8691     YY     -83.5107
        XZ       5.0698     YZ      -2.4042     ZZ     -93.8153

 Frequency:       -46.04                  51.41                  68.82
 Force Cnst:      0.0094                 0.0058                 0.0105
 Red. Mass:       7.4865                 3.6984                 3.7677
 IR Intens:        1.650                  0.367                  2.195
 Frequency:       101.12                 108.57                 137.68
 Force Cnst:      0.0158                 0.0186                 0.0138
 Red. Mass:       2.6256                 2.6822                 1.2325
 IR Intens:        2.170                  3.256                  0.390
 Frequency:       139.03                 161.13                 168.49
 Force Cnst:      0.0168                 0.0445                 0.0596
 Red. Mass:       1.4768                 2.9075                 3.5653
 IR Intens:        0.267                  2.032                  0.821
 Frequency:       215.76                 237.93                 248.85
 Force Cnst:      0.0512                 0.0492                 0.1940
 Red. Mass:       1.8663                 1.4743                 5.3168
 IR Intens:        1.219                  0.106                  1.606
 Frequency:       277.60                 300.49                 352.31
 Force Cnst:      0.2969                 0.2178                 0.3401
 Red. Mass:       6.5387                 4.0939                 4.6505
 IR Intens:        1.337                  8.345                 13.436
 Frequency:       356.13                 378.00                 411.10
 Force Cnst:      0.2717                 0.4610                 0.7893
 Red. Mass:       3.6353                 5.4763                 7.9273
 IR Intens:        0.695                  9.016                  4.463
 Frequency:       484.15                 509.94                 562.38
 Force Cnst:      0.5076                 0.6556                 1.0788
 Red. Mass:       3.6757                 4.2790                 5.7894
 IR Intens:        3.275                  6.591                  1.414
 Frequency:       603.65                 713.82                 721.78
 Force Cnst:      0.8977                 1.2538                 1.5432
 Red. Mass:       4.1811                 4.1762                 5.0277
 IR Intens:        1.263                 16.250                 14.400
 Frequency:       766.44                 796.48                 808.72
 Force Cnst:      2.5548                 0.5444                 2.0859
 Red. Mass:       7.3816                 1.4566                 5.4130
 IR Intens:       14.527                 37.509                  8.532
 Frequency:       817.77                 846.06                 898.73
 Force Cnst:      3.0043                 2.1489                 1.7933
 Red. Mass:       7.6249                 5.0952                 3.7683
 IR Intens:        6.693                 12.272                  6.932
 Frequency:       917.64                 979.86                 993.27
 Force Cnst:      0.7473                 3.9384                 0.7772
 Red. Mass:       1.5063                 6.9621                 1.3371
 IR Intens:        0.239                 12.576                  0.226
 Frequency:      1001.56                1046.75                1058.60
 Force Cnst:      1.8334                 1.4135                 1.0317
 Red. Mass:       3.1021                 2.1896                 1.5626
 IR Intens:       12.500                 14.889                  3.622
 Frequency:      1103.18                1136.02                1167.45
 Force Cnst:      2.5204                 2.5082                 1.0363
 Red. Mass:       3.5150                 3.2987                 1.2905
 IR Intens:       60.884                 60.117                  2.606
 Frequency:      1170.74                1174.72                1200.84
 Force Cnst:      1.0321                 1.5195                 1.1383
 Red. Mass:       1.2781                 1.8689                 1.3398
 IR Intens:        0.599                111.335                 12.286
 Frequency:      1210.71                1216.88                1262.28
 Force Cnst:      1.3911                 1.5874                 2.3353
 Red. Mass:       1.6107                 1.8194                 2.4876
 IR Intens:       24.257                127.029                 78.704
 Frequency:      1277.76                1302.84                1321.18
 Force Cnst:      3.9264                 4.5788                 5.2198
 Red. Mass:       4.0817                 4.5785                 5.0754
 IR Intens:      293.961                341.161                 17.795
 Frequency:      1419.22                1452.07                1466.04
 Force Cnst:      1.4375                 2.7378                 1.5444
 Red. Mass:       1.2113                 2.2038                 1.2196
 IR Intens:        7.339                 21.235                 15.914
 Frequency:      1472.05                1480.00                1481.13
 Force Cnst:      1.5798                 1.4146                 1.3556
 Red. Mass:       1.2374                 1.0961                 1.0488
 IR Intens:       45.175                  6.878                  7.525
 Frequency:      1483.19                1485.18                1494.26
 Force Cnst:      1.4149                 2.0491                 1.3775
 Red. Mass:       1.0916                 1.5767                 1.0471
 IR Intens:        8.633                  1.576                 11.295
 Frequency:      1497.74                1501.17                1614.09
 Force Cnst:      1.3887                 1.9149                10.1932
 Red. Mass:       1.0507                 1.4422                 6.6406
 IR Intens:        7.619                  6.087                  5.547
 Frequency:      1625.59                1761.17                1787.81
 Force Cnst:      8.0566                20.6033                22.6060
 Red. Mass:       5.1746                11.2741                12.0041
 IR Intens:       22.207                315.832                264.716
 Frequency:      3043.52                3048.12                3051.15
 Force Cnst:      5.6555                 5.6373                 5.6474
 Red. Mass:       1.0363                 1.0298                 1.0296
 IR Intens:       23.674                 30.860                 40.346
 Frequency:      3108.52                3111.97                3120.15
 Force Cnst:      6.2612                 6.2901                 6.3486
 Red. Mass:       1.0998                 1.1024                 1.1068
 IR Intens:        8.263                 16.588                 20.104
 Frequency:      3124.91                3157.71                3157.99
 Force Cnst:      6.3691                 6.4976                 6.4996
 Red. Mass:       1.1070                 1.1060                 1.1062
 IR Intens:       16.077                 15.976                 10.085
 Frequency:      3168.49                3181.36                3193.15
 Force Cnst:      6.4261                 6.5063                 6.5900
 Red. Mass:       1.0864                 1.0911                 1.0970
 IR Intens:        2.311                 13.038                 12.282

 STANDARD THERMODYNAMIC QUANTITIES AT   298.15 K  AND     1.00 ATM

   This Molecule has  1 Imaginary Frequencies
   Zero point vibrational energy:      133.342 kcal/mol

   Atom    1 Element C  Has Mass   12.00000
   Atom    2 Element C  Has Mass   12.00000
   Atom    3 Element C  Has Mass   12.00000
   Atom    4 Element C  Has Mass   12.00000
   Atom    5 Element O  Has Mass   15.99491
   Atom    6 Element O  Has Mass   15.99491
   Atom    7 Element O  Has Mass   15.99491
   Atom    8 Element O  Has Mass   15.99491
   Atom    9 Element C  Has Mass   12.00000
   Atom   10 Element C  Has Mass   12.00000
   Atom   11 Element C  Has Mass   12.00000
   Atom   12 Element C  Has Mass   12.00000
   Atom   13 Element C  Has Mass   12.00000
   Atom   14 Element C  Has Mass   12.00000
   Atom   15 Element H  Has Mass    1.00783
   Atom   16 Element H  Has Mass    1.00783
   Atom   17 Element H  Has Mass    1.00783
   Atom   18 Element H  Has Mass    1.00783
   Atom   19 Element H  Has Mass    1.00783
   Atom   20 Element H  Has Mass    1.00783
   Atom   21 Element H  Has Mass    1.00783
   Atom   22 Element H  Has Mass    1.00783
   Atom   23 Element H  Has Mass    1.00783
   Atom   24 Element C  Has Mass   12.00000
   Atom   25 Element H  Has Mass    1.00783
   Atom   26 Element H  Has Mass    1.00783
   Atom   27 Element H  Has Mass    1.00783
   Molecular Mass:   208.073600 amu
   Principal axes and moments of inertia in amu*Bohr^2:
                             1           2           3
    Eigenvalues --     2236.36409  3192.62612  4985.72536
          X               0.99878     0.04936     0.00260
          Y              -0.04937     0.99878     0.00122
          Z              -0.00253    -0.00135     1.00000
   Rotational Symmetry Number is   1
   The Molecule is an Asymmetric Top
   Translational Enthalpy:        0.889 kcal/mol
   Rotational Enthalpy:           0.889 kcal/mol
   Vibrational Enthalpy:        140.443 kcal/mol
   gas constant (RT):             0.592 kcal/mol
   Translational Entropy:        41.902  cal/mol.K
   Rotational Entropy:           31.943  cal/mol.K
   Vibrational Entropy:          44.342  cal/mol.K

   Total Enthalpy:              142.813 kcal/mol
   Total Entropy:               118.187  cal/mol.K

 Total job time:  4661.64s(wall), 15921.00s(cpu)
        *  Thank you very much for using Q-Chem.  Have a nice day.  *
