 Q-Chem 5.0, Q-Chem, Inc., Pleasanton, CA (2017)
 Q-Chem 5.0.1 for Intel X86 EM64T Linux

User input:
--------------------------------------------------------------
$molecule
0  1
C        +0.26444000        +3.40880000        +8.22860000
C        +0.66800000        +1.95039000        +8.64136000
C        -1.14026000        +3.59615000        +7.68642000
C        -0.33283000        +0.84749000        +8.36598000
O        -2.04998000        +3.15224000        +8.58231000
O        -1.43162000        +4.12331000        +6.64383000
O        -0.87190000        +0.93600000        +7.13645000
O        -0.58034000        -0.04485000        +9.14176000
C        -1.81960000        -0.08349000        +6.77705000
C        -3.42894000        +3.23884000        +8.18185000
C        +1.37182000        +3.76366000        +7.20774000
C        +2.67244000        +4.08092000        +7.97120000
C        +3.08510000        +2.65743000        +8.44565000
C        +1.98597000        +1.77093000        +7.79527000
O        +1.67014000        +2.50055000        +6.59889000
H        +0.31985000        +4.05178000        +9.11165000
H        +0.88097000        +1.88350000        +9.70673000
H        -2.64575000        -0.10285000        +7.48969000
H        -3.71902000        +4.27914000        +8.02671000
H        +3.41408000        +4.50174000        +7.29070000
H        +2.52410000        +4.78880000        +8.78916000
H        +4.06356000        +2.37386000        +8.05426000
H        +3.11533000        +2.55130000        +9.53193000
H        -2.16974000        +0.18627000        +5.78328000
H        -1.33888000        -1.06305000        +6.76169000
H        -3.99681000        +2.80015000        +8.99936000
H        -3.58946000        +2.68092000        +7.25770000
H        +1.07444000        +4.56335000        +6.56201000
H        +2.28513000        +0.74896000        +7.69051000
@C        +0.22270000        +1.04488000        +0.58595000
@C        +0.62626000        -0.41353000        +0.99871000
@C        -1.18200000        +1.23223000        +0.04377000
@C        -0.37457000        -1.51643000        +0.72333000
@O        -2.09172000        +0.78832000        +0.93966000
@O        -1.47336000        +1.75939000        -0.99882000
@O        -0.91364000        -1.42792000        -0.50620000
@O        -0.62208000        -2.40877000        +1.49911000
@C        -1.86134000        -2.44741000        -0.86560000
@C        -3.47068000        +0.87492000        +0.53920000
@C        +1.33008000        +1.39974000        -0.43491000
@C        +2.63070000        +1.71700000        +0.32855000
@C        +3.04336000        +0.29351000        +0.80300000
@C        +1.94423000        -0.59299000        +0.15262000
@O        +1.62840000        +0.13663000        -1.04376000
@H        +0.27811000        +1.68786000        +1.46900000
@H        +0.83923000        -0.48042000        +2.06408000
@H        -2.68749000        -2.46677000        -0.15296000
@H        -3.76076000        +1.91522000        +0.38406000
@H        +3.37234000        +2.13782000        -0.35195000
@H        +2.48236000        +2.42488000        +1.14651000
@H        +4.02182000        +0.00994000        +0.41161000
@H        +3.07359000        +0.18738000        +1.88928000
@H        -2.21148000        -2.17765000        -1.85937000
@H        -1.38062000        -3.42697000        -0.88096000
@H        -4.03855000        +0.43623000        +1.35671000
@H        -3.63120000        +0.31700000        -0.38495000
@H        +1.03270000        +2.19943000        -1.08064000
@H        +2.24339000        -1.61496000        +0.04786000
$end

$rem
JOBTYPE                   SP
METHOD                    B3LYP
DFT_D                     d3_op
BASIS                     6-311++G(d,p)
SYMMETRY                  False
THRESH                    12
SCF_CONVERGENCE           8
MAX_SUB_FILE_NUM          128
MEM_STATIC                400
MEM_TOTAL                 4000
$end
--------------------------------------------------------------

             Standard Nuclear Orientation (Angstroms)
    I     Atom           X                Y                Z
 ----------------------------------------------------------------
    1      C       0.2644400000     3.4088000000     8.2286000000
    2      C       0.6680000000     1.9503900000     8.6413600000
    3      C      -1.1402600000     3.5961500000     7.6864200000
    4      C      -0.3328300000     0.8474900000     8.3659800000
    5      O      -2.0499800000     3.1522400000     8.5823100000
    6      O      -1.4316200000     4.1233100000     6.6438300000
    7      O      -0.8719000000     0.9360000000     7.1364500000
    8      O      -0.5803400000    -0.0448500000     9.1417600000
    9      C      -1.8196000000    -0.0834900000     6.7770500000
   10      C      -3.4289400000     3.2388400000     8.1818500000
   11      C       1.3718200000     3.7636600000     7.2077400000
   12      C       2.6724400000     4.0809200000     7.9712000000
   13      C       3.0851000000     2.6574300000     8.4456500000
   14      C       1.9859700000     1.7709300000     7.7952700000
   15      O       1.6701400000     2.5005500000     6.5988900000
   16      H       0.3198500000     4.0517800000     9.1116500000
   17      H       0.8809700000     1.8835000000     9.7067300000
   18      H      -2.6457500000    -0.1028500000     7.4896900000
   19      H      -3.7190200000     4.2791400000     8.0267100000
   20      H       3.4140800000     4.5017400000     7.2907000000
   21      H       2.5241000000     4.7888000000     8.7891600000
   22      H       4.0635600000     2.3738600000     8.0542600000
   23      H       3.1153300000     2.5513000000     9.5319300000
   24      H      -2.1697400000     0.1862700000     5.7832800000
   25      H      -1.3388800000    -1.0630500000     6.7616900000
   26      H      -3.9968100000     2.8001500000     8.9993600000
   27      H      -3.5894600000     2.6809200000     7.2577000000
   28      H       1.0744400000     4.5633500000     6.5620100000
   29      H       2.2851300000     0.7489600000     7.6905100000
   30      GH      0.2227000000     1.0448800000     0.5859500000
   31      GH      0.6262600000    -0.4135300000     0.9987100000
   32      GH     -1.1820000000     1.2322300000     0.0437700000
   33      GH     -0.3745700000    -1.5164300000     0.7233300000
   34      GH     -2.0917200000     0.7883200000     0.9396600000
   35      GH     -1.4733600000     1.7593900000    -0.9988200000
   36      GH     -0.9136400000    -1.4279200000    -0.5062000000
   37      GH     -0.6220800000    -2.4087700000     1.4991100000
   38      GH     -1.8613400000    -2.4474100000    -0.8656000000
   39      GH     -3.4706800000     0.8749200000     0.5392000000
   40      GH      1.3300800000     1.3997400000    -0.4349100000
   41      GH      2.6307000000     1.7170000000     0.3285500000
   42      GH      3.0433600000     0.2935100000     0.8030000000
   43      GH      1.9442300000    -0.5929900000     0.1526200000
   44      GH      1.6284000000     0.1366300000    -1.0437600000
   45      GH      0.2781100000     1.6878600000     1.4690000000
   46      GH      0.8392300000    -0.4804200000     2.0640800000
   47      GH     -2.6874900000    -2.4667700000    -0.1529600000
   48      GH     -3.7607600000     1.9152200000     0.3840600000
   49      GH      3.3723400000     2.1378200000    -0.3519500000
   50      GH      2.4823600000     2.4248800000     1.1465100000
   51      GH      4.0218200000     0.0099400000     0.4116100000
   52      GH      3.0735900000     0.1873800000     1.8892800000
   53      GH     -2.2114800000    -2.1776500000    -1.8593700000
   54      GH     -1.3806200000    -3.4269700000    -0.8809600000
   55      GH     -4.0385500000     0.4362300000     1.3567100000
   56      GH     -3.6312000000     0.3170000000    -0.3849500000
   57      GH      1.0327000000     2.1994300000    -1.0806400000
   58      GH      2.2433900000    -1.6149600000     0.0478600000
 ----------------------------------------------------------------

   14    -765.8581849319      7.00E-09 Convergence criterion met
 Total energy in the final basis set = -765.85818493

                    Orbital Energies (a.u.)
 --------------------------------------------------------------

 Alpha MOs
 -- Occupied --
-19.176 -19.174 -19.136 -19.120 -19.116 -10.310 -10.306 -10.242
-10.232 -10.232 -10.230 -10.207 -10.206 -10.182 -10.180  -1.120
 -1.113  -1.065  -1.031  -1.028  -0.833  -0.785  -0.778  -0.740
 -0.729  -0.659  -0.610  -0.596  -0.580  -0.567  -0.551  -0.520
 -0.506  -0.496  -0.489  -0.484  -0.475  -0.473  -0.462  -0.439
 -0.427  -0.425  -0.418  -0.399  -0.385  -0.376  -0.371  -0.369
 -0.362  -0.356  -0.337  -0.334  -0.320  -0.313  -0.290  -0.282
 -0.276

          Ground-State Mulliken Net Atomic Charges

     Atom                 Charge (a.u.)
  ----------------------------------------
      1 C                     0.299323
      2 C                     0.530789
      3 C                    -0.646664
      4 C                    -0.751318
      5 O                    -0.015076
      6 O                    -0.173046
      7 O                    -0.017557
      8 O                    -0.171277
      9 C                    -0.246781
     10 C                    -0.200770
     11 C                    -0.332160
     12 C                    -0.461603
     13 C                    -0.447349
     14 C                    -0.017365
     15 O                    -0.059644
     16 H                     0.241786
     17 H                     0.282907
     18 H                     0.190072
     19 H                     0.173938
     20 H                     0.188866
     21 H                     0.125344
     22 H                     0.183311
     23 H                     0.124670
     24 H                     0.157874
     25 H                     0.178847
     26 H                     0.163856
     27 H                     0.182051
     28 H                     0.258746
     29 H                     0.253715
     30 GH                    0.000587
     31 GH                   -0.000328
     32 GH                   -0.001289
     33 GH                   -0.002257
     34 GH                   -0.000000
     35 GH                    0.000003
     36 GH                   -0.000000
     37 GH                    0.000083
     38 GH                   -0.000029
     39 GH                    0.000124
     40 GH                    0.000519
     41 GH                   -0.000215
     42 GH                    0.000095
     43 GH                   -0.000821
     44 GH                   -0.000001
     45 GH                    0.003509
     46 GH                    0.004165
     47 GH                   -0.000001
     48 GH                   -0.000037
     49 GH                    0.000014
     50 GH                   -0.000135
     51 GH                   -0.000022
     52 GH                    0.000242
     53 GH                   -0.000001
     54 GH                   -0.000001
     55 GH                    0.000316
     56 GH                    0.000007
     57 GH                    0.000001
     58 GH                   -0.000014
  ----------------------------------------
  Sum of atomic charges =     0.000000

                    Cartesian Multipole Moments
 -----------------------------------------------------------------
    Charge (ESU x 10^10)
                 0.0000
    Dipole Moment (Debye)
         X      -0.0145      Y       0.7257      Z       1.2127
       Tot       1.4133
    Quadrupole Moments (Debye-Ang)
        XX     -75.1655     XY       2.9621     YY     -86.2463
        XZ       3.3030     YZ      19.1117     ZZ     -77.3265

 Total job time:  4515.24s(wall), 4504.66s(cpu)
        *  Thank you very much for using Q-Chem.  Have a nice day.  *
