 Q-Chem 5.0, Q-Chem, Inc., Pleasanton, CA (2017)
 Q-Chem 5.0.1 for Intel X86 EM64T Linux

User input:
--------------------------------------------------------------
$molecule
0  1
--
0  1
C        +0.22270000        +1.04488000        +0.58595000
C        +0.62626000        -0.41353000        +0.99871000
C        -1.18200000        +1.23223000        +0.04377000
C        -0.37457000        -1.51643000        +0.72333000
O        -2.09172000        +0.78832000        +0.93966000
O        -1.47336000        +1.75939000        -0.99882000
O        -0.91364000        -1.42792000        -0.50620000
O        -0.62208000        -2.40877000        +1.49911000
C        -1.86134000        -2.44741000        -0.86560000
C        -3.47068000        +0.87492000        +0.53920000
C        +1.33008000        +1.39974000        -0.43491000
C        +2.63070000        +1.71700000        +0.32855000
C        +3.04336000        +0.29351000        +0.80300000
C        +1.94423000        -0.59299000        +0.15262000
O        +1.62840000        +0.13663000        -1.04376000
H        +0.27811000        +1.68786000        +1.46900000
H        +0.83923000        -0.48042000        +2.06408000
H        -2.68749000        -2.46677000        -0.15296000
H        -3.76076000        +1.91522000        +0.38406000
H        +3.37234000        +2.13782000        -0.35195000
H        +2.48236000        +2.42488000        +1.14651000
H        +4.02182000        +0.00994000        +0.41161000
H        +3.07359000        +0.18738000        +1.88928000
H        -2.21148000        -2.17765000        -1.85937000
H        -1.38062000        -3.42697000        -0.88096000
H        -4.03855000        +0.43623000        +1.35671000
H        -3.63120000        +0.31700000        -0.38495000
H        +1.03270000        +2.19943000        -1.08064000
H        +2.24339000        -1.61496000        +0.04786000
--
0  1
C        +0.26444000        +3.40880000        +8.22860000
C        +0.66800000        +1.95039000        +8.64136000
C        -1.14026000        +3.59615000        +7.68642000
C        -0.33283000        +0.84749000        +8.36598000
O        -2.04998000        +3.15224000        +8.58231000
O        -1.43162000        +4.12331000        +6.64383000
O        -0.87190000        +0.93600000        +7.13645000
O        -0.58034000        -0.04485000        +9.14176000
C        -1.81960000        -0.08349000        +6.77705000
C        -3.42894000        +3.23884000        +8.18185000
C        +1.37182000        +3.76366000        +7.20774000
C        +2.67244000        +4.08092000        +7.97120000
C        +3.08510000        +2.65743000        +8.44565000
C        +1.98597000        +1.77093000        +7.79527000
O        +1.67014000        +2.50055000        +6.59889000
H        +0.31985000        +4.05178000        +9.11165000
H        +0.88097000        +1.88350000        +9.70673000
H        -2.64575000        -0.10285000        +7.48969000
H        -3.71902000        +4.27914000        +8.02671000
H        +3.41408000        +4.50174000        +7.29070000
H        +2.52410000        +4.78880000        +8.78916000
H        +4.06356000        +2.37386000        +8.05426000
H        +3.11533000        +2.55130000        +9.53193000
H        -2.16974000        +0.18627000        +5.78328000
H        -1.33888000        -1.06305000        +6.76169000
H        -3.99681000        +2.80015000        +8.99936000
H        -3.58946000        +2.68092000        +7.25770000
H        +1.07444000        +4.56335000        +6.56201000
H        +2.28513000        +0.74896000        +7.69051000
$end

$rem
JOBTYPE                   SP
METHOD                    B3LYP
DFT_D                     d3_op
BASIS                     6-311++G(d,p)
SYMMETRY                  False
THRESH                    12
SCF_CONVERGENCE           8
MAX_SUB_FILE_NUM          128
MEM_STATIC                400
MEM_TOTAL                 4000
$end
--------------------------------------------------------------

             Standard Nuclear Orientation (Angstroms)
    I     Atom           X                Y                Z
 ----------------------------------------------------------------
    1      C      -3.2787855341     0.5636087199     0.8372463792
    2      C      -3.3392274424     0.6370922603    -0.7283647361
    3      C      -3.7665755312    -0.7237598756     1.4751995775
    4      C      -3.9726818620    -0.5307507153    -1.4555246399
    5      O      -3.0786547442    -1.7785929854     0.9839180291
    6      O      -4.5953926518    -0.8128823399     2.3440503070
    7      O      -5.1233382168    -0.9306010945    -0.8843117783
    8      O      -3.5250225142    -1.0153471296    -2.4675196536
    9      C      -5.8088461199    -2.0228238481    -1.5197579848
   10      C      -3.4633102459    -3.0730549426     1.4797071369
   11      C      -4.1087665806     1.8053077436     1.2418279167
   12      C      -3.2539377924     3.0695569679     1.0271674745
   13      C      -3.2446162248     3.1532353858    -0.5267391794
   14      C      -4.1675540465     1.9648990990    -0.9178987349
   15      O      -5.0787492747     1.9049890414     0.1909534099
   16      H      -2.2366470544     0.6642941970     1.1536016774
   17      H      -2.3450461331     0.7372320593    -1.1601277206
   18      H      -5.1584614353    -2.8970439862    -1.5788622486
   19      H      -3.2881543714    -3.1400393372     2.5545431368
   20      H      -3.7488278925     3.9365321315     1.4672100480
   21      H      -2.2577665406     2.9896497752     1.4669572984
   22      H      -3.6825997199     4.0886446124    -0.8791055873
   23      H      -2.2472934189     3.0653704591    -0.9624095177
   24      H      -6.6741616841    -2.2238282350    -0.8922442392
   25      H      -6.1220231568    -1.7426112186    -2.5268659569
   26      H      -2.8400714856    -3.7859693710     0.9443807706
   27      H      -4.5199794278    -3.2561913814     1.2772079907
   28      H      -4.4751495029     1.7280294572     2.2441740715
   29      H      -4.5831785669     2.0674651548    -1.8985263433
   30      C       4.7179588147     0.3841012984     0.6964773415
   31      C       4.6575169064     0.4575848389    -0.8691337738
   32      C       4.2301688176    -0.9032672970     1.3344305398
   33      C       4.0240624868    -0.7102581368    -1.5962936777
   34      O       4.9180896047    -1.9581004069     0.8431489914
   35      O       3.4013516970    -0.9923897613     2.2032812693
   36      O       2.8734061320    -1.1101085159    -1.0250808160
   37      O       4.4717218346    -1.1948545510    -2.6082886913
   38      C       2.1878982289    -2.2023312696    -1.6605270225
   39      C       4.5334341029    -3.2525623641     1.3389380992
   40      C       3.8879777682     1.6258003222     1.1010588790
   41      C       4.7428065564     2.8900495464     0.8863984368
   42      C       4.7521281240     2.9737279644    -0.6675082171
   43      C       3.8291903023     1.7853916775    -1.0586677726
   44      O       2.9179950741     1.7254816200     0.0501843721
   45      H       5.7600972944     0.4847867755     1.0128326396
   46      H       5.6516982157     0.5577246378    -1.3008967584
   47      H       2.8382829135    -3.0765514077    -1.7196312863
   48      H       4.7085899774    -3.3195467587     2.4137740990
   49      H       4.2479164563     3.7570247100     1.3264410103
   50      H       5.7389778082     2.8101423537     1.3261882607
   51      H       4.3141446289     3.9091371910    -1.0198746251
   52      H       5.7494509299     2.8858630376    -1.1031785555
   53      H       1.3225826647    -2.4033356564    -1.0330132769
   54      H       1.8747211920    -1.9221186401    -2.6676349946
   55      H       5.1566728632    -3.9654767924     0.8036117328
   56      H       3.4767649210    -3.4356988028     1.1364389530
   57      H       3.5215948459     1.5485220357     2.1034050338
   58      H       3.4135657819     1.8879577333    -2.0392953810
 ----------------------------------------------------------------

   15   -1531.7179284496      4.32E-09 Convergence criterion met
 Total energy in the final basis set = -1531.71792845

                    Orbital Energies (a.u.)
 --------------------------------------------------------------

 Alpha MOs
 -- Occupied --
-19.177 -19.174 -19.173 -19.172 -19.139 -19.133 -19.122 -19.117
-19.116 -19.114 -10.312 -10.307 -10.306 -10.304 -10.245 -10.239
-10.234 -10.234 -10.230 -10.229 -10.228 -10.228 -10.209 -10.208
-10.203 -10.202 -10.184 -10.182 -10.178 -10.176  -1.122  -1.118
 -1.114  -1.111  -1.068  -1.062  -1.033  -1.028  -1.028  -1.026
 -0.835  -0.830  -0.787  -0.782  -0.780  -0.775  -0.741  -0.737
 -0.730  -0.727  -0.660  -0.655  -0.612  -0.607  -0.598  -0.592
 -0.582  -0.577  -0.569  -0.565  -0.553  -0.548  -0.522  -0.517
 -0.508  -0.503  -0.498  -0.493  -0.490  -0.486  -0.485  -0.481
 -0.476  -0.474  -0.473  -0.470  -0.463  -0.458  -0.441  -0.436
 -0.428  -0.426  -0.424  -0.422  -0.420  -0.416  -0.400  -0.397
 -0.387  -0.381  -0.377  -0.373  -0.373  -0.371  -0.368  -0.365
 -0.363  -0.359  -0.358  -0.352  -0.339  -0.337  -0.333  -0.331
 -0.322  -0.318  -0.314  -0.311  -0.292  -0.287  -0.284  -0.280
 -0.278  -0.273

          Ground-State Mulliken Net Atomic Charges

     Atom                 Charge (a.u.)
  ----------------------------------------
      1 C                    -0.001140
      2 C                     0.748845
      3 C                    -0.607323
      4 C                    -0.803350
      5 O                     0.002086
      6 O                    -0.207827
      7 O                    -0.019437
      8 O                    -0.160072
      9 C                    -0.221149
     10 C                    -0.227967
     11 C                    -0.149198
     12 C                    -0.399579
     13 C                    -0.472678
     14 C                    -0.112666
     15 O                    -0.105727
     16 H                     0.223405
     17 H                     0.318454
     18 H                     0.187737
     19 H                     0.178617
     20 H                     0.191809
     21 H                     0.122030
     22 H                     0.186617
     23 H                     0.107240
     24 H                     0.170290
     25 H                     0.176155
     26 H                     0.148211
     27 H                     0.182068
     28 H                     0.283815
     29 H                     0.263371
     30 C                     0.312918
     31 C                     0.527956
     32 C                    -0.649191
     33 C                    -0.754476
     34 O                    -0.014327
     35 O                    -0.175633
     36 O                    -0.020414
     37 O                    -0.169959
     38 C                    -0.240105
     39 C                    -0.201745
     40 C                    -0.337607
     41 C                    -0.461118
     42 C                    -0.448311
     43 C                    -0.015629
     44 O                    -0.065478
     45 H                     0.242603
     46 H                     0.283518
     47 H                     0.190013
     48 H                     0.173867
     49 H                     0.187882
     50 H                     0.126117
     51 H                     0.182704
     52 H                     0.125772
     53 H                     0.158812
     54 H                     0.180188
     55 H                     0.164596
     56 H                     0.181963
     57 H                     0.257912
     58 H                     0.254534
  ----------------------------------------
  Sum of atomic charges =     0.000000

                    Cartesian Multipole Moments
 -----------------------------------------------------------------
    Charge (ESU x 10^10)
                 0.0000
    Dipole Moment (Debye)
         X       2.9225      Y       0.0487      Z       0.6156
       Tot       2.9870
    Quadrupole Moments (Debye-Ang)
        XX    -178.7550     XY      13.2063     YY    -151.7021
        XZ      18.0796     YZ      -6.0168     ZZ    -192.6659

 Total job time:  5286.56s(wall), 5274.14s(cpu)
        *  Thank you very much for using Q-Chem.  Have a nice day.  *
