 Q-Chem 5.0, Q-Chem, Inc., Pleasanton, CA (2017)
 Q-Chem 5.0.1 for Intel X86 EM64T Linux

User input:
--------------------------------------------------------------
$molecule
0  1
--
0  1
C        -0.54444000        -0.68370000        -0.06689000
C        -0.55709000        +0.71878000        +0.05493000
C        +0.74969000        -1.43776000        -0.09374000
C        +0.72843000        +1.48436000        +0.06598000
O        +1.53645000        -1.09176000        +0.94813000
O        +1.04702000        -2.28405000        -0.90088000
O        +1.53784000        +1.08301000        -0.93877000
O        +1.01035000        +2.37097000        +0.83478000
C        +2.83449000        +1.70121000        -0.99358000
C        +2.82316000        -1.73208000        +1.00475000
C        -1.74320000        -1.41616000        -0.12552000
C        -2.93952000        -0.70056000        -0.05285000
C        -2.95313000        +0.68255000        +0.06934000
C        -1.77161000        +1.42404000        +0.12810000
H        +2.73835000        +2.77989000        -1.12464000
H        +2.70778000        -2.81319000        +1.09555000
H        -3.90354000        +1.20325000        +0.11710000
H        +3.38998000        +1.50093000        -0.07544000
H        +3.33184000        +1.25269000        -1.85067000
H        +3.31095000        -1.32281000        +1.88650000
H        +3.39889000        -1.50934000        +0.10459000
H        -3.87892000        -1.24211000        -0.08988000
H        -1.78886000        +2.45164000        +0.22176000
H        -1.73878000        -2.44393000        -0.21875000
--
0  1
C        -0.48939000        -1.38123000        +7.90245000
C        -0.50204000        +0.02125000        +8.02427000
C        +0.80474000        -2.13529000        +7.87560000
C        +0.78348000        +0.78683000        +8.03532000
O        +1.59150000        -1.78929000        +8.91747000
O        +1.10207000        -2.98158000        +7.06846000
O        +1.59289000        +0.38548000        +7.03057000
O        +1.06540000        +1.67344000        +8.80412000
C        +2.88954000        +1.00368000        +6.97576000
C        +2.87821000        -2.42961000        +8.97409000
C        -1.68815000        -2.11369000        +7.84382000
C        -2.88447000        -1.39809000        +7.91649000
C        -2.89808000        -0.01498000        +8.03868000
C        -1.71656000        +0.72651000        +8.09744000
H        +2.79340000        +2.08236000        +6.84470000
H        +2.76283000        -3.51072000        +9.06489000
H        -3.84849000        +0.50572000        +8.08644000
H        +3.44503000        +0.80340000        +7.89390000
H        +3.38689000        +0.55516000        +6.11867000
H        +3.36600000        -2.02034000        +9.85584000
H        +3.45394000        -2.20687000        +8.07393000
H        -3.82387000        -1.93964000        +7.87946000
H        -1.73381000        +1.75411000        +8.19110000
H        -1.68373000        -3.14146000        +7.75059000
$end

$rem
JOBTYPE                   SP
METHOD                    B3LYP
DFT_D                     d3_op
BASIS                     6-311++G(d,p)
SYMMETRY                  False
THRESH                    12
SCF_CONVERGENCE           8
MAX_SUB_FILE_NUM          128
MEM_STATIC                400
MEM_TOTAL                 4000
$end
--------------------------------------------------------------

             Standard Nuclear Orientation (Angstroms)
    I     Atom           X                Y                Z
 ----------------------------------------------------------------
    1      C      -3.9951974239     0.8128846019     0.7728637189
    2      C      -4.0221955621     0.8348467181    -0.6345235950
    3      C      -3.9318931768    -0.4858441692     1.5167696366
    4      C      -4.0816716884    -0.4460018193    -1.4056825435
    5      O      -2.9260672300    -1.2614448903     1.0574679048
    6      O      -4.6427799641    -0.7951711013     2.4414553655
    7      O      -5.0319015727    -1.2664849789    -0.9060632036
    8      O      -3.4085047500    -0.7159897945    -2.3703391585
    9      C      -5.1412221371    -2.5599039603    -1.5237953068
   10      C      -2.7918269326    -2.5513574484     1.6795155604
   11      C      -3.9858317342     2.0067581160     1.5155204245
   12      C      -3.9987270097     3.2078553592     0.8043629486
   13      C      -4.0233204453     3.2306666887    -0.5837954381
   14      C      -4.0336486920     2.0540864801    -1.3353285433
   15      H      -5.3861740721    -2.4585653703    -2.5819537096
   16      H      -2.5883541499    -2.4415529057     2.7457696603
   17      H      -4.0384355110     4.1845037870    -1.1001819215
   18      H      -4.2026318427    -3.1085397024    -1.4252592221
   19      H      -5.9421536248    -3.0673349873    -0.9907352861
   20      H      -1.9543049419    -3.0290279556     1.1762145758
   21      H      -3.7058073619    -3.1335903279     1.5490900451
   22      H      -3.9859464985     4.1436946306     1.3531447813
   23      H      -4.0491170001     2.0781974123    -2.3669345303
   24      H      -3.9700211258     1.9954792218     2.5473369554
   25      C       4.0034336168     0.8231888944     0.6253715662
   26      C       3.9764354786     0.8451510106    -0.7820157477
   27      C       4.0667378639    -0.4755398767     1.3692774839
   28      C       3.9169593523    -0.4356975268    -1.5531746962
   29      O       5.0725638107    -1.2511405978     0.9099757521
   30      O       3.3558510766    -0.7848668088     2.2939632128
   31      O       2.9667294680    -1.2561806864    -1.0535553563
   32      O       4.5901262907    -0.7056855020    -2.5178313112
   33      C       2.8574089037    -2.5495996678    -1.6712874596
   34      C       5.2068041081    -2.5410531559     1.5320234077
   35      C       4.0127993065     2.0170624085     1.3680282718
   36      C       3.9999040310     3.2181596517     0.6568707959
   37      C       3.9753105954     3.2409709812    -0.7312875908
   38      C       3.9649823488     2.0643907726    -1.4828206960
   39      H       2.6124569686    -2.4482610778    -2.7294458623
   40      H       5.4102768908    -2.4312486132     2.5982775076
   41      H       3.9601955297     4.1948080795    -1.2476740742
   42      H       3.7959991980    -3.0982354099    -1.5727513748
   43      H       2.0564774159    -3.0570306948    -1.1382274388
   44      H       6.0443260988    -3.0187236631     1.0287224231
   45      H       4.2928236788    -3.1232860354     1.4015978924
   46      H       4.0126845422     4.1539989232     1.2056526286
   47      H       3.9495140406     2.0885017048    -2.5144266830
   48      H       4.0286099149     2.0057835143     2.3998448027
 ----------------------------------------------------------------

   14   -1376.4211243583      8.28E-09 Convergence criterion met
 Total energy in the final basis set = -1376.42112436

                    Orbital Energies (a.u.)
 --------------------------------------------------------------

 Alpha MOs
 -- Occupied --
-19.178 -19.177 -19.176 -19.176 -19.121 -19.121 -19.120 -19.119
-10.313 -10.313 -10.312 -10.312 -10.233 -10.233 -10.231 -10.231
-10.213 -10.213 -10.213 -10.212 -10.197 -10.197 -10.196 -10.196
-10.196 -10.196 -10.196 -10.195  -1.122  -1.122  -1.115  -1.115
 -1.032  -1.032  -1.031  -1.030  -0.886  -0.886  -0.798  -0.798
 -0.786  -0.786  -0.742  -0.742  -0.732  -0.731  -0.655  -0.655
 -0.644  -0.644  -0.594  -0.594  -0.578  -0.577  -0.554  -0.554
 -0.522  -0.522  -0.514  -0.514  -0.492  -0.491  -0.490  -0.490
 -0.484  -0.484  -0.478  -0.477  -0.470  -0.470  -0.467  -0.467
 -0.439  -0.439  -0.430  -0.430  -0.414  -0.414  -0.407  -0.407
 -0.388  -0.387  -0.385  -0.385  -0.382  -0.382  -0.368  -0.367
 -0.365  -0.365  -0.322  -0.322  -0.314  -0.314  -0.300  -0.300
 -0.295  -0.295  -0.274  -0.274  -0.271  -0.270

          Ground-State Mulliken Net Atomic Charges

     Atom                 Charge (a.u.)
  ----------------------------------------
      1 C                     0.720993
      2 C                     0.967603
      3 C                    -0.776142
      4 C                    -0.730062
      5 O                     0.047810
      6 O                    -0.194249
      7 O                     0.020693
      8 O                    -0.180095
      9 C                    -0.235901
     10 C                    -0.252103
     11 C                    -0.420333
     12 C                    -0.151001
     13 C                    -0.136766
     14 C                    -0.386201
     15 H                     0.174565
     16 H                     0.181690
     17 H                     0.173809
     18 H                     0.175657
     19 H                     0.167816
     20 H                     0.144883
     21 H                     0.175151
     22 H                     0.174999
     23 H                     0.167534
     24 H                     0.169766
     25 C                     0.926771
     26 C                     0.781649
     27 C                    -0.822189
     28 C                    -0.715395
     29 O                     0.031753
     30 O                    -0.169213
     31 O                     0.036381
     32 O                    -0.200873
     33 C                    -0.248926
     34 C                    -0.238374
     35 C                    -0.374163
     36 C                    -0.133339
     37 C                    -0.150269
     38 C                    -0.428274
     39 H                     0.181944
     40 H                     0.174136
     41 H                     0.174468
     42 H                     0.176138
     43 H                     0.144903
     44 H                     0.166329
     45 H                     0.175122
     46 H                     0.174449
     47 H                     0.170750
     48 H                     0.166106
  ----------------------------------------
  Sum of atomic charges =     0.000000

                    Cartesian Multipole Moments
 -----------------------------------------------------------------
    Charge (ESU x 10^10)
                 0.0000
    Dipole Moment (Debye)
         X       0.1686      Y       0.1022      Z       0.2122
       Tot       0.2897
    Quadrupole Moments (Debye-Ang)
        XX    -170.7802     XY      -0.6687     YY    -123.0019
        XZ      19.1549     YZ       0.4679     ZZ    -172.7429

 Total job time:  913.73s(wall), 1808.95s(cpu)
        *  Thank you very much for using Q-Chem.  Have a nice day.  *
