 Q-Chem 5.0, Q-Chem, Inc., Pleasanton, CA (2017)
 Q-Chem 5.0.1 for Intel X86 EM64T Linux

User input:
--------------------------------------------------------------
$molecule
0  1
C        -0.48939000        -1.38123000        +7.90245000
C        -0.50204000        +0.02125000        +8.02427000
C        +0.80474000        -2.13529000        +7.87560000
C        +0.78348000        +0.78683000        +8.03532000
O        +1.59150000        -1.78929000        +8.91747000
O        +1.10207000        -2.98158000        +7.06846000
O        +1.59289000        +0.38548000        +7.03057000
O        +1.06540000        +1.67344000        +8.80412000
C        +2.88954000        +1.00368000        +6.97576000
C        +2.87821000        -2.42961000        +8.97409000
C        -1.68815000        -2.11369000        +7.84382000
C        -2.88447000        -1.39809000        +7.91649000
C        -2.89808000        -0.01498000        +8.03868000
C        -1.71656000        +0.72651000        +8.09744000
H        +2.79340000        +2.08236000        +6.84470000
H        +2.76283000        -3.51072000        +9.06489000
H        -3.84849000        +0.50572000        +8.08644000
H        +3.44503000        +0.80340000        +7.89390000
H        +3.38689000        +0.55516000        +6.11867000
H        +3.36600000        -2.02034000        +9.85584000
H        +3.45394000        -2.20687000        +8.07393000
H        -3.82387000        -1.93964000        +7.87946000
H        -1.73381000        +1.75411000        +8.19110000
H        -1.68373000        -3.14146000        +7.75059000
@C        -0.54444000        -0.68370000        -0.06689000
@C        -0.55709000        +0.71878000        +0.05493000
@C        +0.74969000        -1.43776000        -0.09374000
@C        +0.72843000        +1.48436000        +0.06598000
@O        +1.53645000        -1.09176000        +0.94813000
@O        +1.04702000        -2.28405000        -0.90088000
@O        +1.53784000        +1.08301000        -0.93877000
@O        +1.01035000        +2.37097000        +0.83478000
@C        +2.83449000        +1.70121000        -0.99358000
@C        +2.82316000        -1.73208000        +1.00475000
@C        -1.74320000        -1.41616000        -0.12552000
@C        -2.93952000        -0.70056000        -0.05285000
@C        -2.95313000        +0.68255000        +0.06934000
@C        -1.77161000        +1.42404000        +0.12810000
@H        +2.73835000        +2.77989000        -1.12464000
@H        +2.70778000        -2.81319000        +1.09555000
@H        -3.90354000        +1.20325000        +0.11710000
@H        +3.38998000        +1.50093000        -0.07544000
@H        +3.33184000        +1.25269000        -1.85067000
@H        +3.31095000        -1.32281000        +1.88650000
@H        +3.39889000        -1.50934000        +0.10459000
@H        -3.87892000        -1.24211000        -0.08988000
@H        -1.78886000        +2.45164000        +0.22176000
@H        -1.73878000        -2.44393000        -0.21875000
$end

$rem
JOBTYPE                   SP
METHOD                    B3LYP
DFT_D                     d3_op
BASIS                     6-311++G(d,p)
SYMMETRY                  False
THRESH                    12
SCF_CONVERGENCE           8
MAX_SUB_FILE_NUM          128
MEM_STATIC                400
MEM_TOTAL                 4000
$end
--------------------------------------------------------------

             Standard Nuclear Orientation (Angstroms)
    I     Atom           X                Y                Z
 ----------------------------------------------------------------
    1      C      -0.4893900000    -1.3812300000     7.9024500000
    2      C      -0.5020400000     0.0212500000     8.0242700000
    3      C       0.8047400000    -2.1352900000     7.8756000000
    4      C       0.7834800000     0.7868300000     8.0353200000
    5      O       1.5915000000    -1.7892900000     8.9174700000
    6      O       1.1020700000    -2.9815800000     7.0684600000
    7      O       1.5928900000     0.3854800000     7.0305700000
    8      O       1.0654000000     1.6734400000     8.8041200000
    9      C       2.8895400000     1.0036800000     6.9757600000
   10      C       2.8782100000    -2.4296100000     8.9740900000
   11      C      -1.6881500000    -2.1136900000     7.8438200000
   12      C      -2.8844700000    -1.3980900000     7.9164900000
   13      C      -2.8980800000    -0.0149800000     8.0386800000
   14      C      -1.7165600000     0.7265100000     8.0974400000
   15      H       2.7934000000     2.0823600000     6.8447000000
   16      H       2.7628300000    -3.5107200000     9.0648900000
   17      H      -3.8484900000     0.5057200000     8.0864400000
   18      H       3.4450300000     0.8034000000     7.8939000000
   19      H       3.3868900000     0.5551600000     6.1186700000
   20      H       3.3660000000    -2.0203400000     9.8558400000
   21      H       3.4539400000    -2.2068700000     8.0739300000
   22      H      -3.8238700000    -1.9396400000     7.8794600000
   23      H      -1.7338100000     1.7541100000     8.1911000000
   24      H      -1.6837300000    -3.1414600000     7.7505900000
   25      GH     -0.5444400000    -0.6837000000    -0.0668900000
   26      GH     -0.5570900000     0.7187800000     0.0549300000
   27      GH      0.7496900000    -1.4377600000    -0.0937400000
   28      GH      0.7284300000     1.4843600000     0.0659800000
   29      GH      1.5364500000    -1.0917600000     0.9481300000
   30      GH      1.0470200000    -2.2840500000    -0.9008800000
   31      GH      1.5378400000     1.0830100000    -0.9387700000
   32      GH      1.0103500000     2.3709700000     0.8347800000
   33      GH      2.8344900000     1.7012100000    -0.9935800000
   34      GH      2.8231600000    -1.7320800000     1.0047500000
   35      GH     -1.7432000000    -1.4161600000    -0.1255200000
   36      GH     -2.9395200000    -0.7005600000    -0.0528500000
   37      GH     -2.9531300000     0.6825500000     0.0693400000
   38      GH     -1.7716100000     1.4240400000     0.1281000000
   39      GH      2.7383500000     2.7798900000    -1.1246400000
   40      GH      2.7077800000    -2.8131900000     1.0955500000
   41      GH     -3.9035400000     1.2032500000     0.1171000000
   42      GH      3.3899800000     1.5009300000    -0.0754400000
   43      GH      3.3318400000     1.2526900000    -1.8506700000
   44      GH      3.3109500000    -1.3228100000     1.8865000000
   45      GH      3.3988900000    -1.5093400000     0.1045900000
   46      GH     -3.8789200000    -1.2421100000    -0.0898800000
   47      GH     -1.7888600000     2.4516400000     0.2217600000
   48      GH     -1.7387800000    -2.4439300000    -0.2187500000
 ----------------------------------------------------------------

   14    -688.2104745511      5.67E-09 Convergence criterion met
 Total energy in the final basis set = -688.21047455

                    Orbital Energies (a.u.)
 --------------------------------------------------------------

 Alpha MOs
 -- Occupied --
-19.178 -19.178 -19.122 -19.122 -10.314 -10.314 -10.233 -10.233
-10.215 -10.214 -10.198 -10.198 -10.197 -10.197  -1.123  -1.117
 -1.033  -1.032  -0.887  -0.800  -0.787  -0.744  -0.733  -0.656
 -0.646  -0.596  -0.579  -0.555  -0.524  -0.516  -0.493  -0.492
 -0.485  -0.479  -0.472  -0.468  -0.440  -0.431  -0.416  -0.408
 -0.389  -0.387  -0.384  -0.369  -0.366  -0.324  -0.316  -0.302
 -0.297  -0.276  -0.272

          Ground-State Mulliken Net Atomic Charges

     Atom                 Charge (a.u.)
  ----------------------------------------
      1 C                     0.925026
      2 C                     0.778493
      3 C                    -0.820316
      4 C                    -0.718719
      5 O                     0.031959
      6 O                    -0.167082
      7 O                     0.035726
      8 O                    -0.199509
      9 C                    -0.252154
     10 C                    -0.238421
     11 C                    -0.370869
     12 C                    -0.134370
     13 C                    -0.151567
     14 C                    -0.429615
     15 H                     0.179956
     16 H                     0.174388
     17 H                     0.175258
     18 H                     0.177323
     19 H                     0.147356
     20 H                     0.166272
     21 H                     0.176274
     22 H                     0.175597
     23 H                     0.170495
     24 H                     0.166887
     25 GH                    0.000785
     26 GH                   -0.001476
     27 GH                    0.000265
     28 GH                    0.000429
     29 GH                   -0.000068
     30 GH                   -0.000000
     31 GH                    0.000001
     32 GH                   -0.000021
     33 GH                    0.000034
     34 GH                    0.000060
     35 GH                    0.000177
     36 GH                    0.000134
     37 GH                   -0.000209
     38 GH                   -0.000017
     39 GH                    0.000001
     40 GH                   -0.000239
     41 GH                   -0.000010
     42 GH                   -0.000015
     43 GH                    0.000000
     44 GH                    0.001719
     45 GH                    0.000013
     46 GH                   -0.000008
     47 GH                    0.000030
     48 GH                    0.000023
  ----------------------------------------
  Sum of atomic charges =     0.000000

                    Cartesian Multipole Moments
 -----------------------------------------------------------------
    Charge (ESU x 10^10)
                 0.0000
    Dipole Moment (Debye)
         X      -0.0442      Y      -0.1156      Z       0.0674
       Tot       0.1409
    Quadrupole Moments (Debye-Ang)
        XX     -61.2852     XY      -0.0295     YY     -84.1521
        XZ      -0.2431     YZ     -10.6928     ZZ     -85.9946

 Total job time:  826.10s(wall), 1637.31s(cpu)
        *  Thank you very much for using Q-Chem.  Have a nice day.  *
