 Q-Chem 5.0, Q-Chem, Inc., Pleasanton, CA (2017)
 Q-Chem 5.0.1 for Intel X86 EM64T Linux

User input:
--------------------------------------------------------------
$molecule
0  1
--
0  1
C        +0.22270000        +1.04488000        +0.58595000
C        +0.62626000        -0.41353000        +0.99871000
C        -1.18200000        +1.23223000        +0.04377000
C        -0.37457000        -1.51643000        +0.72333000
O        -2.09172000        +0.78832000        +0.93966000
O        -1.47336000        +1.75939000        -0.99882000
O        -0.91364000        -1.42792000        -0.50620000
O        -0.62208000        -2.40877000        +1.49911000
C        -1.86134000        -2.44741000        -0.86560000
C        -3.47068000        +0.87492000        +0.53920000
C        +1.33008000        +1.39974000        -0.43491000
C        +2.63070000        +1.71700000        +0.32855000
C        +3.04336000        +0.29351000        +0.80300000
C        +1.94423000        -0.59299000        +0.15262000
O        +1.62840000        +0.13663000        -1.04376000
H        +0.27811000        +1.68786000        +1.46900000
H        +0.83923000        -0.48042000        +2.06408000
H        -2.68749000        -2.46677000        -0.15296000
H        -3.76076000        +1.91522000        +0.38406000
H        +3.37234000        +2.13782000        -0.35195000
H        +2.48236000        +2.42488000        +1.14651000
H        +4.02182000        +0.00994000        +0.41161000
H        +3.07359000        +0.18738000        +1.88928000
H        -2.21148000        -2.17765000        -1.85937000
H        -1.38062000        -3.42697000        -0.88096000
H        -4.03855000        +0.43623000        +1.35671000
H        -3.63120000        +0.31700000        -0.38495000
C        +2.35450000        -2.01267000        -0.16812000
H        +3.26311000        -2.00678000        -0.77366000
H        +2.54990000        -2.57059000        +0.75079000
H        +1.57335000        -2.52896000        -0.72872000
H        +1.03270000        +2.19943000        -1.08064000
--
0  1
C        +0.26444000        +3.40880000        +8.22860000
C        +0.66800000        +1.95039000        +8.64136000
C        -1.14026000        +3.59615000        +7.68642000
C        -0.33283000        +0.84749000        +8.36598000
O        -2.04998000        +3.15224000        +8.58231000
O        -1.43162000        +4.12331000        +6.64383000
O        -0.87190000        +0.93600000        +7.13645000
O        -0.58034000        -0.04485000        +9.14176000
C        -1.81960000        -0.08349000        +6.77705000
C        -3.42894000        +3.23884000        +8.18185000
C        +1.37182000        +3.76366000        +7.20774000
C        +2.67244000        +4.08092000        +7.97120000
C        +3.08510000        +2.65743000        +8.44565000
C        +1.98597000        +1.77093000        +7.79527000
O        +1.67014000        +2.50055000        +6.59889000
H        +0.31985000        +4.05178000        +9.11165000
H        +0.88097000        +1.88350000        +9.70673000
H        -2.64575000        -0.10285000        +7.48969000
H        -3.71902000        +4.27914000        +8.02671000
H        +3.41408000        +4.50174000        +7.29070000
H        +2.52410000        +4.78880000        +8.78916000
H        +4.06356000        +2.37386000        +8.05426000
H        +3.11533000        +2.55130000        +9.53193000
H        -2.16974000        +0.18627000        +5.78328000
H        -1.33888000        -1.06305000        +6.76169000
H        -3.99681000        +2.80015000        +8.99936000
H        -3.58946000        +2.68092000        +7.25770000
C        +2.39624000        +0.35125000        +7.47453000
H        +3.30485000        +0.35714000        +6.86899000
H        +2.59164000        -0.20667000        +8.39344000
H        +1.61509000        -0.16504000        +6.91393000
H        +1.07444000        +4.56335000        +6.56201000
$end

$rem
JOBTYPE                   SP
METHOD                    B3LYP
DFT_D                     d3_op
BASIS                     6-311++G(d,p)
SYMMETRY                  False
THRESH                    12
SCF_CONVERGENCE           8
MAX_SUB_FILE_NUM          128
MEM_STATIC                400
MEM_TOTAL                 4000
$end
--------------------------------------------------------------

             Standard Nuclear Orientation (Angstroms)
    I     Atom           X                Y                Z
 ----------------------------------------------------------------
    1      C      -3.2072081485     0.1985104668     1.0817310304
    2      C      -3.2828339819     0.5533032799    -0.4442421058
    3      C      -3.6738316897    -1.1894381772     1.4793518261
    4      C      -3.9090089806    -0.4719955134    -1.3664950531
    5      O      -2.9779635935    -2.1286817620     0.8004891450
    6      O      -4.4935518816    -1.4453655982     2.3233554905
    7      O      -5.0495670092    -0.9839163482    -0.8692637706
    8      O      -3.4649046443    -0.7594360100    -2.4525502006
    9      C      -5.7278482404    -1.9521418770    -1.6872719655
   10      C      -3.3426802355    -3.4965035808     1.0563088007
   11      C      -4.0481310252     1.3353148067     1.7101384078
   12      C      -3.2103642046     2.6288143427     1.7221037068
   13      C      -3.2162483286     2.9924442799     0.2090096899
   14      C      -4.1285580701     1.8823272960    -0.3845342166
   15      O      -5.0287987935     1.6105954743     0.7013513642
   16      H      -2.1634881641     0.2541604054     1.4039460663
   17      H      -2.2939014102     0.7431673830    -0.8575310130
   18      H      -5.0677027758    -2.7924841370    -1.9081503331
   19      H      -3.1569189417    -3.7545589156     2.1000228908
   20      H      -3.7114625963     3.3951642284     2.3152376432
   21      H      -2.2093343024     2.4839188685     2.1333236577
   22      H      -3.6685057788     3.9702557779     0.0348548113
   23      H      -2.2219793047     2.9981739806    -0.2421864390
   24      H      -6.5849422884    -2.2749044150    -1.1006192344
   25      H      -6.0535261519    -1.4984947618    -2.6248239025
   26      H      -2.7159472630    -4.0923961805     0.3964863670
   27      H      -4.3989095496    -3.6540342345     0.8312347050
   28      C      -4.8859069641     2.2594468998    -1.6378858752
   29      H      -5.4482099101     3.1797043636    -1.4669264849
   30      H      -4.1941186888     2.4210722142    -2.4680411103
   31      H      -5.5907205886     1.4755864558    -1.9204165914
   32      H      -4.4043885618     1.0730383969     2.6844062590
   33      C       4.7894814067     0.1540280272     0.8560398994
   34      C       4.7138555733     0.5088208403    -0.6699332368
   35      C       4.3228578655    -1.2339206169     1.2536606951
   36      C       4.0876805746    -0.5164779530    -1.5921861841
   37      O       5.0187259617    -2.1731642017     0.5747980139
   38      O       3.5031376736    -1.4898480378     2.0976643594
   39      O       2.9471225460    -1.0283987878    -1.0949549017
   40      O       4.5317849109    -0.8039184496    -2.6782413316
   41      C       2.2688413148    -1.9966243166    -1.9129630966
   42      C       4.6540093197    -3.5409860205     0.8306176696
   43      C       3.9485585300     1.2908323671     1.4844472768
   44      C       4.7863253506     2.5843319030     1.4964125758
   45      C       4.7804412266     2.9479618403    -0.0166814411
   46      C       3.8681314851     1.8378448563    -0.6102253476
   47      O       2.9678907617     1.5661130347     0.4756602332
   48      H       5.8332013912     0.2096779658     1.1782549353
   49      H       5.7027881450     0.6986849433    -1.0832221441
   50      H       2.9289867794    -2.8369665767    -2.1338414642
   51      H       4.8397706136    -3.7990413552     1.8743317597
   52      H       4.2852269589     3.3506817888     2.0895465121
   53      H       5.7873552529     2.4394364289     1.9076325267
   54      H       4.3281837764     3.9257733383    -0.1908363197
   55      H       5.7747102506     2.9536915410    -0.4678775700
   56      H       1.4117472668    -2.3193868547    -1.3263103654
   57      H       1.9431634033    -1.5429772015    -2.8505150335
   58      H       5.2807422922    -4.1368786202     0.1707952360
   59      H       3.5977800056    -3.6985166742     0.6055435740
   60      C       3.1107825912     2.2149644602    -1.8635770062
   61      H       2.5484796451     3.1352219239    -1.6926176159
   62      H       3.8025708664     2.3765897746    -2.6937322413
   63      H       2.4059689666     1.4311040162    -2.1461077225
   64      H       3.5923009934     1.0285559573     2.4587151279
 ----------------------------------------------------------------

   15   -1610.3941475875      4.12E-09 Convergence criterion met
 Total energy in the final basis set = -1610.39414759

                    Orbital Energies (a.u.)
 --------------------------------------------------------------

 Alpha MOs
 -- Occupied --
-19.176 -19.174 -19.172 -19.172 -19.133 -19.128 -19.120 -19.117
-19.116 -19.114 -10.310 -10.307 -10.306 -10.304 -10.248 -10.243
-10.233 -10.231 -10.230 -10.229 -10.229 -10.225 -10.207 -10.206
-10.201 -10.201 -10.181 -10.180 -10.176 -10.174 -10.172 -10.168
 -1.121  -1.118  -1.114  -1.111  -1.066  -1.060  -1.032  -1.028
 -1.027  -1.026  -0.834  -0.829  -0.798  -0.793  -0.786  -0.781
 -0.747  -0.744  -0.730  -0.727  -0.699  -0.694  -0.657  -0.652
 -0.608  -0.603  -0.592  -0.587  -0.570  -0.567  -0.563  -0.559
 -0.535  -0.531  -0.519  -0.515  -0.512  -0.508  -0.493  -0.492
 -0.489  -0.488  -0.484  -0.481  -0.476  -0.474  -0.473  -0.470
 -0.463  -0.458  -0.445  -0.441  -0.435  -0.431  -0.426  -0.422
 -0.418  -0.414  -0.406  -0.402  -0.398  -0.395  -0.391  -0.387
 -0.383  -0.378  -0.374  -0.371  -0.371  -0.367  -0.362  -0.358
 -0.357  -0.353  -0.352  -0.348  -0.335  -0.334  -0.330  -0.328
 -0.321  -0.318  -0.313  -0.311  -0.291  -0.287  -0.283  -0.279
 -0.276  -0.271

          Ground-State Mulliken Net Atomic Charges

     Atom                 Charge (a.u.)
  ----------------------------------------
      1 C                    -0.046397
      2 C                     0.362254
      3 C                    -0.567268
      4 C                    -0.758552
      5 O                     0.003621
      6 O                    -0.201990
      7 O                     0.003642
      8 O                    -0.120891
      9 C                    -0.193989
     10 C                    -0.214927
     11 C                    -0.139727
     12 C                    -0.408047
     13 C                    -0.498460
     14 C                     0.022509
     15 O                    -0.060111
     16 H                     0.241071
     17 H                     0.336187
     18 H                     0.193411
     19 H                     0.177818
     20 H                     0.191006
     21 H                     0.118894
     22 H                     0.170009
     23 H                     0.110237
     24 H                     0.175672
     25 H                     0.175275
     26 H                     0.149260
     27 H                     0.179139
     28 C                    -0.209617
     29 H                     0.180926
     30 H                     0.159805
     31 H                     0.179609
     32 H                     0.291046
     33 C                    -0.018923
     34 C                     0.499829
     35 C                    -0.486537
     36 C                    -0.786608
     37 O                    -0.013107
     38 O                    -0.175672
     39 O                     0.007019
     40 O                    -0.124725
     41 C                    -0.212135
     42 C                    -0.193198
     43 C                    -0.200004
     44 C                    -0.514354
     45 C                    -0.368812
     46 C                    -0.186468
     47 O                    -0.003815
     48 H                     0.245256
     49 H                     0.284694
     50 H                     0.193747
     51 H                     0.173026
     52 H                     0.183222
     53 H                     0.124178
     54 H                     0.167297
     55 H                     0.142420
     56 H                     0.168957
     57 H                     0.178352
     58 H                     0.163759
     59 H                     0.179059
     60 C                    -0.229228
     61 H                     0.175511
     62 H                     0.170347
     63 H                     0.181280
     64 H                     0.274217
  ----------------------------------------
  Sum of atomic charges =     0.000000

                    Cartesian Multipole Moments
 -----------------------------------------------------------------
    Charge (ESU x 10^10)
                 0.0000
    Dipole Moment (Debye)
         X       2.5786      Y       0.0692      Z       0.2157
       Tot       2.5885
    Quadrupole Moments (Debye-Ang)
        XX    -190.9044     XY       8.1520     YY    -163.7850
        XZ      20.5384     YZ       1.2735     ZZ    -206.8986

 Total job time:  5690.19s(wall), 5677.09s(cpu)
        *  Thank you very much for using Q-Chem.  Have a nice day.  *
