 Q-Chem 5.0, Q-Chem, Inc., Pleasanton, CA (2017)
 Q-Chem 5.0.1 for Intel X86 EM64T Linux

User input:
--------------------------------------------------------------
$molecule
0  1
--
0  1
C        +0.22270000        +1.04488000        +0.58595000
C        +0.62626000        -0.41353000        +0.99871000
C        -1.18200000        +1.23223000        +0.04377000
C        -0.37457000        -1.51643000        +0.72333000
O        -2.09172000        +0.78832000        +0.93966000
O        -1.47336000        +1.75939000        -0.99882000
O        -0.91364000        -1.42792000        -0.50620000
O        -0.62208000        -2.40877000        +1.49911000
C        -1.86134000        -2.44741000        -0.86560000
C        -3.47068000        +0.87492000        +0.53920000
C        +1.33008000        +1.39974000        -0.43491000
C        +2.63070000        +1.71700000        +0.32855000
C        +3.04336000        +0.29351000        +0.80300000
C        +1.94423000        -0.59299000        +0.15262000
O        +1.62840000        +0.13663000        -1.04376000
H        +0.27811000        +1.68786000        +1.46900000
H        +0.83923000        -0.48042000        +2.06408000
H        -2.68749000        -2.46677000        -0.15296000
H        -3.76076000        +1.91522000        +0.38406000
H        +3.37234000        +2.13782000        -0.35195000
H        +2.48236000        +2.42488000        +1.14651000
H        +4.02182000        +0.00994000        +0.41161000
H        +3.07359000        +0.18738000        +1.88928000
H        -2.21148000        -2.17765000        -1.85937000
H        -1.38062000        -3.42697000        -0.88096000
H        -4.03855000        +0.43623000        +1.35671000
H        -3.63120000        +0.31700000        -0.38495000
C        +0.90028000        +2.39077000        -1.49430000
C        +2.35450000        -2.01267000        -0.16812000
H        +3.26311000        -2.00678000        -0.77366000
H        +2.54990000        -2.57059000        +0.75079000
H        +1.57335000        -2.52896000        -0.72872000
H        +1.71845000        +2.58186000        -2.15686000
H        +0.59919000        +3.30478000        -1.02650000
H        +0.07925000        +1.98653000        -2.04874000
--
0  1
C        +0.26444000        +3.40880000        +8.22860000
C        +0.66800000        +1.95039000        +8.64136000
C        -1.14026000        +3.59615000        +7.68642000
C        -0.33283000        +0.84749000        +8.36598000
O        -2.04998000        +3.15224000        +8.58231000
O        -1.43162000        +4.12331000        +6.64383000
O        -0.87190000        +0.93600000        +7.13645000
O        -0.58034000        -0.04485000        +9.14176000
C        -1.81960000        -0.08349000        +6.77705000
C        -3.42894000        +3.23884000        +8.18185000
C        +1.37182000        +3.76366000        +7.20774000
C        +2.67244000        +4.08092000        +7.97120000
C        +3.08510000        +2.65743000        +8.44565000
C        +1.98597000        +1.77093000        +7.79527000
O        +1.67014000        +2.50055000        +6.59889000
H        +0.31985000        +4.05178000        +9.11165000
H        +0.88097000        +1.88350000        +9.70673000
H        -2.64575000        -0.10285000        +7.48969000
H        -3.71902000        +4.27914000        +8.02671000
H        +3.41408000        +4.50174000        +7.29070000
H        +2.52410000        +4.78880000        +8.78916000
H        +4.06356000        +2.37386000        +8.05426000
H        +3.11533000        +2.55130000        +9.53193000
H        -2.16974000        +0.18627000        +5.78328000
H        -1.33888000        -1.06305000        +6.76169000
H        -3.99681000        +2.80015000        +8.99936000
H        -3.58946000        +2.68092000        +7.25770000
C        +0.94202000        +4.75469000        +6.14835000
C        +2.39624000        +0.35125000        +7.47453000
H        +3.30485000        +0.35714000        +6.86899000
H        +2.59164000        -0.20667000        +8.39344000
H        +1.61509000        -0.16504000        +6.91393000
H        +1.76019000        +4.94578000        +5.48579000
H        +0.64093000        +5.66870000        +6.61615000
H        +0.12099000        +4.35045000        +5.59391000
$end

$rem
JOBTYPE                   SP
METHOD                    B3LYP
DFT_D                     d3_op
BASIS                     6-311++G(d,p)
SYMMETRY                  False
THRESH                    12
SCF_CONVERGENCE           8
MAX_SUB_FILE_NUM          128
MEM_STATIC                400
MEM_TOTAL                 4000
$end
--------------------------------------------------------------

             Standard Nuclear Orientation (Angstroms)
    I     Atom           X                Y                Z
 ----------------------------------------------------------------
    1      C      -3.1665866071     0.2463861298     0.8308283136
    2      C      -3.2253290898     0.3910113302    -0.7298843735
    3      C      -3.6324580595    -1.0775549578     1.4073567614
    4      C      -3.8363615629    -0.7530966136    -1.5118943306
    5      O      -2.9248074220    -2.0961544970     0.8698151235
    6      O      -4.4612122035    -1.2214558820     2.2688910417
    7      O      -4.9807642457    -1.1993294168    -0.9629013517
    8      O      -3.3781498057    -1.1823878140    -2.5439396469
    9      C      -5.6453726510    -2.2730726282    -1.6499491620
   10      C      -3.2871610696    -3.4187777430     1.3042872590
   11      C      -4.0194558281     1.4530969504     1.2899952884
   12      C      -3.1870037336     2.7409333976     1.1362479006
   13      C      -3.1761991898     2.8964427590    -0.4121108945
   14      C      -4.0769460688     1.7111932297    -0.8602199936
   15      O      -4.9890491385     1.5839173873     0.2421809715
   16      H      -2.1270286127     0.3508957360     1.1543522995
   17      H      -2.2322742409     0.5286739095    -1.1538357990
   18      H      -4.9793176794    -3.1319092500    -1.7475444161
   19      H      -3.1128973435    -3.5322023711     2.3753642513
   20      H      -3.6981910050     3.5777092676     1.6144668139
   21      H      -2.1904070422     2.6585522747     1.5746150946
   22      H      -3.6301936427     3.8391797834    -0.7221399066
   23      H      -2.1766275893     2.8465674848    -0.8486320746
   24      H      -6.5081514632    -2.5182220897    -1.0347567101
   25      H      -5.9615853400    -1.9522670784    -2.6439103163
   26      H      -2.6502231476    -4.0949953863     0.7383476548
   27      H      -4.3399888442    -3.6111544735     1.0906532503
   28      C      -4.7207846237     1.2466180094     2.6146386519
   29      C      -4.8207108687     1.9110574077    -2.1615866428
   30      H      -5.3886485768     2.8428596445    -2.1231566163
   31      H      -4.1196721763     1.9626911769    -2.9980854057
   32      H      -5.5189908984     1.0922900667    -2.3433779741
   33      H      -5.2858860178     2.1216829810     2.8592301492
   34      H      -3.9938319838     1.0663601551     3.3788070060
   35      H      -5.3786138727     0.4057940087     2.5426689970
   36      C       4.8323458255     0.2160069346     0.7038792664
   37      C       4.7736033428     0.3606321350    -0.8568334207
   38      C       4.3664743730    -1.1079341530     1.2804077142
   39      C       4.1625708696    -0.7834758088    -1.6388433778
   40      O       5.0741250105    -2.1265336922     0.7428660762
   41      O       3.5377202290    -1.2518350772     2.1419419945
   42      O       3.0181681869    -1.2297086120    -1.0898503989
   43      O       4.6207826269    -1.2127670092    -2.6708886941
   44      C       2.3535597815    -2.3034518233    -1.7768982093
   45      C       4.7117713630    -3.4491569382     1.1773382118
   46      C       3.9794766044     1.4227177552     1.1630462412
   47      C       4.8119286989     2.7105542024     1.0092988534
   48      C       4.8227332427     2.8660635639    -0.5390599417
   49      C       3.9219863638     1.6808140345    -0.9871690408
   50      O       3.0098832941     1.5535381921     0.1152319243
   51      H       5.8719038199     0.3205165408     1.0274032523
   52      H       5.7666581917     0.4982947143    -1.2807848462
   53      H       3.0196147531    -3.1622884451    -1.8744934633
   54      H       4.8860350891    -3.5625815663     2.2484152041
   55      H       4.3007414276     3.5473300724     1.4875177667
   56      H       5.8085253904     2.6281730795     1.4476660474
   57      H       4.3687387898     3.8088005882    -0.8490889539
   58      H       5.8223048432     2.8161882896    -0.9755811218
   59      H       1.4907809694    -2.5486012849    -1.1617057574
   60      H       2.0373470926    -1.9826462736    -2.7708593635
   61      H       5.3487092850    -4.1253745815     0.6113986076
   62      H       3.6589435883    -3.6415336687     0.9637042030
   63      C       3.2781478088     1.2162388142     2.4876896047
   64      C       3.1782215639     1.8806782125    -2.2885356901
   65      H       2.6102838557     2.8124804493    -2.2501056636
   66      H       3.8792602562     1.9323119817    -3.1250344529
   67      H       2.4799415341     1.0619108716    -2.4703270213
   68      H       2.7130464148     2.0913037858     2.7322811020
   69      H       4.0051004487     1.0359809599     3.2518579588
   70      H       2.6203185598     0.3754148135     2.4157199498
 ----------------------------------------------------------------

   14   -1689.0352298416      9.11E-09 Convergence criterion met
 Total energy in the final basis set = -1689.03522984

                    Orbital Energies (a.u.)
 --------------------------------------------------------------

 Alpha MOs
 -- Occupied --
-19.177 -19.174 -19.174 -19.172 -19.127 -19.122 -19.119 -19.116
-19.115 -19.114 -10.313 -10.308 -10.306 -10.304 -10.244 -10.240
-10.234 -10.233 -10.231 -10.230 -10.230 -10.228 -10.205 -10.205
-10.201 -10.200 -10.179 -10.177 -10.174 -10.171 -10.170 -10.167
-10.139 -10.133  -1.122  -1.119  -1.114  -1.112  -1.063  -1.058
 -1.035  -1.032  -1.028  -1.026  -0.834  -0.829  -0.806  -0.801
 -0.785  -0.781  -0.748  -0.746  -0.731  -0.728  -0.722  -0.718
 -0.676  -0.672  -0.646  -0.641  -0.604  -0.601  -0.581  -0.577
 -0.570  -0.568  -0.562  -0.559  -0.526  -0.522  -0.515  -0.512
 -0.509  -0.505  -0.495  -0.491  -0.490  -0.487  -0.481  -0.478
 -0.476  -0.474  -0.472  -0.469  -0.460  -0.456  -0.444  -0.440
 -0.436  -0.434  -0.432  -0.431  -0.416  -0.412  -0.411  -0.409
 -0.405  -0.401  -0.400  -0.397  -0.396  -0.393  -0.375  -0.373
 -0.372  -0.370  -0.366  -0.362  -0.359  -0.356  -0.355  -0.352
 -0.351  -0.348  -0.346  -0.343  -0.335  -0.331  -0.330  -0.326
 -0.322  -0.319  -0.314  -0.312  -0.285  -0.283  -0.274  -0.272
 -0.269  -0.268

          Ground-State Mulliken Net Atomic Charges

     Atom                 Charge (a.u.)
  ----------------------------------------
      1 C                     0.349108
      2 C                     0.800036
      3 C                    -0.898594
      4 C                    -1.129367
      5 O                     0.024046
      6 O                    -0.135970
      7 O                    -0.001268
      8 O                    -0.112346
      9 C                    -0.195669
     10 C                    -0.211422
     11 C                    -0.599067
     12 C                    -0.308285
     13 C                    -0.559607
     14 C                    -0.388530
     15 O                     0.057020
     16 H                     0.280713
     17 H                     0.365104
     18 H                     0.192767
     19 H                     0.176243
     20 H                     0.185138
     21 H                     0.126218
     22 H                     0.179745
     23 H                     0.109377
     24 H                     0.171843
     25 H                     0.176617
     26 H                     0.152195
     27 H                     0.182087
     28 C                    -0.076655
     29 C                     0.079031
     30 H                     0.174765
     31 H                     0.164024
     32 H                     0.177791
     33 H                     0.137415
     34 H                     0.160099
     35 H                     0.196429
     36 C                     0.349282
     37 C                     0.826026
     38 C                    -0.771184
     39 C                    -1.113756
     40 O                     0.004392
     41 O                    -0.114093
     42 O                     0.006602
     43 O                    -0.118366
     44 C                    -0.218184
     45 C                    -0.191835
     46 C                    -0.477465
     47 C                    -0.441820
     48 C                    -0.401710
     49 C                    -0.567980
     50 O                     0.106742
     51 H                     0.272092
     52 H                     0.283747
     53 H                     0.193591
     54 H                     0.171277
     55 H                     0.176908
     56 H                     0.139111
     57 H                     0.171438
     58 H                     0.141118
     59 H                     0.164045
     60 H                     0.178763
     61 H                     0.164923
     62 H                     0.179067
     63 C                    -0.124257
     64 C                     0.007123
     65 H                     0.174502
     66 H                     0.173062
     67 H                     0.194875
     68 H                     0.127818
     69 H                     0.162252
     70 H                     0.170862
  ----------------------------------------
  Sum of atomic charges =     0.000000

                    Cartesian Multipole Moments
 -----------------------------------------------------------------
    Charge (ESU x 10^10)
                 0.0000
    Dipole Moment (Debye)
         X       2.2053      Y      -0.5902      Z       0.4972
       Tot       2.3365
    Quadrupole Moments (Debye-Ang)
        XX    -203.5953     XY      10.8421     YY    -179.0696
        XZ      18.2574     YZ      -5.9808     ZZ    -219.8982

 Total job time:  2765.03s(wall), 5500.43s(cpu)
        *  Thank you very much for using Q-Chem.  Have a nice day.  *
