 Q-Chem 5.0, Q-Chem, Inc., Pleasanton, CA (2017)
 Q-Chem 5.0.1 for Intel X86 EM64T Linux

User input:
--------------------------------------------------------------
$molecule
0  1
--
0  1
C        -0.54444000        -0.68370000        -0.06689000
C        -0.55709000        +0.71878000        +0.05493000
C        +0.74969000        -1.43776000        -0.09374000
C        +0.72843000        +1.48436000        +0.06598000
O        +1.53645000        -1.09176000        +0.94813000
O        +1.04702000        -2.28405000        -0.90088000
O        +1.53784000        +1.08301000        -0.93877000
O        +1.01035000        +2.37097000        +0.83478000
C        +2.83449000        +1.70121000        -0.99358000
C        +2.82316000        -1.73208000        +1.00475000
C        -1.74320000        -1.41616000        -0.12552000
C        -2.93952000        -0.70056000        -0.05285000
C        -2.95313000        +0.68255000        +0.06934000
C        -1.77161000        +1.42404000        +0.12810000
H        +2.73835000        +2.77989000        -1.12464000
H        +2.70778000        -2.81319000        +1.09555000
H        -3.90354000        +1.20325000        +0.11710000
H        +3.38998000        +1.50093000        -0.07544000
H        +3.33184000        +1.25269000        -1.85067000
H        +3.31095000        -1.32281000        +1.88650000
H        +3.39889000        -1.50934000        +0.10459000
H        -3.87892000        -1.24211000        -0.08988000
C        -1.83960000        +2.92746000        +0.24839000
H        -1.24214000        +3.42352000        -0.52065000
H        -1.45503000        +3.26427000        +1.21284000
H        -2.87211000        +3.26623000        +0.14638000
H        -1.73878000        -2.44393000        -0.21875000
--
0  1
C        -0.48939000        -1.38123000        +7.90245000
C        -0.50204000        +0.02125000        +8.02427000
C        +0.80474000        -2.13529000        +7.87560000
C        +0.78348000        +0.78683000        +8.03532000
O        +1.59150000        -1.78929000        +8.91747000
O        +1.10207000        -2.98158000        +7.06846000
O        +1.59289000        +0.38548000        +7.03057000
O        +1.06540000        +1.67344000        +8.80412000
C        +2.88954000        +1.00368000        +6.97576000
C        +2.87821000        -2.42961000        +8.97409000
C        -1.68815000        -2.11369000        +7.84382000
C        -2.88447000        -1.39809000        +7.91649000
C        -2.89808000        -0.01498000        +8.03868000
C        -1.71656000        +0.72651000        +8.09744000
H        +2.79340000        +2.08236000        +6.84470000
H        +2.76283000        -3.51072000        +9.06489000
H        -3.84849000        +0.50572000        +8.08644000
H        +3.44503000        +0.80340000        +7.89390000
H        +3.38689000        +0.55516000        +6.11867000
H        +3.36600000        -2.02034000        +9.85584000
H        +3.45394000        -2.20687000        +8.07393000
H        -3.82387000        -1.93964000        +7.87946000
C        -1.78455000        +2.22993000        +8.21773000
H        -1.18709000        +2.72599000        +7.44869000
H        -1.39998000        +2.56674000        +9.18218000
H        -2.81706000        +2.56870000        +8.11572000
H        -1.68373000        -3.14146000        +7.75059000
$end

$rem
JOBTYPE                   SP
METHOD                    B3LYP
DFT_D                     d3_op
BASIS                     6-311++G(d,p)
SYMMETRY                  False
THRESH                    12
SCF_CONVERGENCE           8
MAX_SUB_FILE_NUM          128
MEM_STATIC                400
MEM_TOTAL                 4000
$end
--------------------------------------------------------------

             Standard Nuclear Orientation (Angstroms)
    I     Atom           X                Y                Z
 ----------------------------------------------------------------
    1      C      -3.9901695356     0.2691262361     1.1625805354
    2      C      -4.0167252942     0.7746616074    -0.1510705086
    3      C      -3.9260633457    -1.2063543764     1.4134733840
    4      C      -4.0749185796    -0.1620752759    -1.3163747876
    5      O      -2.9194634897    -1.7755536496     0.7156415190
    6      O      -4.6370031975    -1.8158096196     2.1745356064
    7      O      -5.0246511481    -1.1050759300    -1.1306148678
    8      O      -3.4012193018    -0.0827108334    -2.3145932941
    9      C      -5.1327288886    -2.1065109390    -2.1562481957
   10      C      -2.7843885382    -3.2007243180     0.8552175707
   11      C      -3.9820073594     1.1340028761     2.2711302377
   12      C      -3.9956367339     2.5065791319     2.0173695366
   13      C      -4.0197947596     3.0062876554     0.7220639041
   14      C      -4.0289305076     2.1607031939    -0.3888605419
   15      H      -5.3774163938    -1.6469318568    -3.1148332246
   16      H      -2.5813527303    -3.4649063029     1.8941306354
   17      H      -4.0355086109     4.0796327953     0.5659486864
   18      H      -4.1937296510    -2.6548982603    -2.2522380688
   19      H      -5.9334259719    -2.7670564924    -1.8311416998
   20      H      -1.9463179474    -3.4751855016     0.2186385709
   21      H      -3.6978574462    -3.7029502421     0.5316285699
   22      H      -3.9837887148     3.1960274751     2.8550094293
   23      C      -4.0681195092     2.7531243942    -1.7769763023
   24      H      -4.8797705970     2.3316135625    -2.3753136881
   25      H      -3.1411001583     2.5538287522    -2.3177306213
   26      H      -4.2143482827     3.8332526458    -1.7205125176
   27      H      -3.9665249580     0.7678976294     3.2358839814
   28      C       4.0084984074     0.3347617805     1.0323432489
   29      C       3.9819426489     0.8402971518    -0.2813077951
   30      C       4.0726045974    -1.1407188320     1.2832360976
   31      C       3.9237493635    -0.0964397315    -1.4466120740
   32      O       5.0792044533    -1.7099181052     0.5854042326
   33      O       3.3616647456    -1.7501740751     2.0442983199
   34      O       2.9740167950    -1.0394403856    -1.2608521543
   35      O       4.5974486413    -0.0170752890    -2.4448305806
   36      C       2.8659390545    -2.0408753946    -2.2864854822
   37      C       5.2142794049    -3.1350887736     0.7249802842
   38      C       4.0166605837     1.1996384205     2.1408929513
   39      C       4.0030312092     2.5722146763     1.8871322501
   40      C       3.9788731834     3.0719231998     0.5918266176
   41      C       3.9697374355     2.2263387383    -0.5190978284
   42      H       2.6212515493    -1.5812963124    -3.2450705110
   43      H       5.4173152128    -3.3992707585     1.7638933489
   44      H       3.9631593322     4.1452683397     0.4357114000
   45      H       3.8049382921    -2.5892627159    -2.3824753553
   46      H       2.0652419712    -2.7014209479    -1.9613789862
   47      H       6.0523499957    -3.4095499572     0.0884012844
   48      H       4.3008104969    -3.6373146977     0.4013912834
   49      H       4.0148792283     3.2616630195     2.7247721429
   50      C       3.9305484338     2.8187599386    -1.9072135888
   51      H       3.1188973460     2.3972491069    -2.5055509745
   52      H       4.8575677848     2.6194642966    -2.4479679078
   53      H       3.7843196604     3.8988881902    -1.8507498040
   54      H       4.0321429851     0.8335331739     3.1056466949
 ----------------------------------------------------------------

   14   -1455.0873453958      8.15E-09 Convergence criterion met
 Total energy in the final basis set = -1455.08734540

                    Orbital Energies (a.u.)
 --------------------------------------------------------------

 Alpha MOs
 -- Occupied --
-19.177 -19.176 -19.176 -19.174 -19.120 -19.120 -19.119 -19.117
-10.312 -10.311 -10.311 -10.309 -10.232 -10.232 -10.231 -10.229
-10.210 -10.209 -10.206 -10.206 -10.206 -10.206 -10.192 -10.192
-10.190 -10.189 -10.188 -10.188 -10.173 -10.172  -1.121  -1.121
 -1.114  -1.113  -1.032  -1.031  -1.030  -1.028  -0.885  -0.885
 -0.800  -0.800  -0.794  -0.794  -0.746  -0.746  -0.730  -0.730
 -0.703  -0.703  -0.654  -0.653  -0.625  -0.625  -0.580  -0.580
 -0.574  -0.573  -0.548  -0.548  -0.520  -0.520  -0.513  -0.512
 -0.490  -0.490  -0.489  -0.488  -0.481  -0.481  -0.477  -0.476
 -0.471  -0.471  -0.446  -0.445  -0.434  -0.433  -0.430  -0.430
 -0.428  -0.427  -0.411  -0.411  -0.405  -0.405  -0.394  -0.394
 -0.383  -0.382  -0.377  -0.376  -0.369  -0.369  -0.364  -0.363
 -0.362  -0.362  -0.321  -0.321  -0.313  -0.312  -0.295  -0.295
 -0.293  -0.293  -0.268  -0.268  -0.263  -0.262

          Ground-State Mulliken Net Atomic Charges

     Atom                 Charge (a.u.)
  ----------------------------------------
      1 C                     0.476969
      2 C                     1.505492
      3 C                    -0.638360
      4 C                    -0.810372
      5 O                     0.053655
      6 O                    -0.191868
      7 O                     0.039905
      8 O                    -0.155786
      9 C                    -0.231088
     10 C                    -0.247336
     11 C                    -0.734522
     12 C                    -0.049512
     13 C                    -0.614105
     14 C                     0.194097
     15 H                     0.170363
     16 H                     0.181661
     17 H                     0.122830
     18 H                     0.178223
     19 H                     0.168471
     20 H                     0.145864
     21 H                     0.173951
     22 H                     0.184586
     23 C                    -0.600224
     24 H                     0.174312
     25 H                     0.192503
     26 H                     0.146381
     27 H                     0.163795
     28 C                     0.550832
     29 C                     1.291928
     30 C                    -0.701757
     31 C                    -0.691296
     32 O                     0.035677
     33 O                    -0.165744
     34 O                     0.055805
     35 O                    -0.176842
     36 C                    -0.247165
     37 C                    -0.232859
     38 C                    -0.670684
     39 C                    -0.052649
     40 C                    -0.587710
     41 C                     0.217492
     42 H                     0.178097
     43 H                     0.173766
     44 H                     0.125200
     45 H                     0.179294
     46 H                     0.147717
     47 H                     0.166775
     48 H                     0.173824
     49 H                     0.183440
     50 C                    -0.634772
     51 H                     0.175488
     52 H                     0.203209
     53 H                     0.142398
     54 H                     0.160651
  ----------------------------------------
  Sum of atomic charges =     0.000000

                    Cartesian Multipole Moments
 -----------------------------------------------------------------
    Charge (ESU x 10^10)
                 0.0000
    Dipole Moment (Debye)
         X       0.2892      Y       0.3317      Z      -0.8902
       Tot       0.9931
    Quadrupole Moments (Debye-Ang)
        XX    -183.4527     XY      -6.9268     YY    -142.7434
        XZ      17.2868     YZ      14.1143     ZZ    -179.0207

 Total job time:  1202.20s(wall), 2391.26s(cpu)
        *  Thank you very much for using Q-Chem.  Have a nice day.  *
