 Q-Chem 5.0, Q-Chem, Inc., Pleasanton, CA (2017)
 Q-Chem 5.0.1 for Intel X86 EM64T Linux

User input:
--------------------------------------------------------------
$molecule
0  1
--
0  1
C        -0.54444000        -0.68370000        -0.06689000
C        -0.55709000        +0.71878000        +0.05493000
C        +0.74969000        -1.43776000        -0.09374000
C        +0.72843000        +1.48436000        +0.06598000
O        +1.53645000        -1.09176000        +0.94813000
O        +1.04702000        -2.28405000        -0.90088000
O        +1.53784000        +1.08301000        -0.93877000
O        +1.01035000        +2.37097000        +0.83478000
C        +2.83449000        +1.70121000        -0.99358000
C        +2.82316000        -1.73208000        +1.00475000
C        -1.74320000        -1.41616000        -0.12552000
C        -2.93952000        -0.70056000        -0.05285000
C        -2.95313000        +0.68255000        +0.06934000
C        -1.77161000        +1.42404000        +0.12810000
H        +2.73835000        +2.77989000        -1.12464000
H        +2.70778000        -2.81319000        +1.09555000
H        -3.90354000        +1.20325000        +0.11710000
H        +3.38998000        +1.50093000        -0.07544000
H        +3.33184000        +1.25269000        -1.85067000
H        +3.31095000        -1.32281000        +1.88650000
H        +3.39889000        -1.50934000        +0.10459000
H        -3.87892000        -1.24211000        -0.08988000
C        -1.83960000        +2.92746000        +0.24839000
C        -1.78103000        -2.92226000        -0.24590000
H        -1.39752000        -3.25223000        -1.21323000
H        -2.80572000        -3.28175000        -0.13627000
H        -1.16958000        -3.40777000        +0.51926000
H        -1.24214000        +3.42352000        -0.52065000
H        -1.45503000        +3.26427000        +1.21284000
H        -2.87211000        +3.26623000        +0.14638000
--
0  1
C        -0.48939000        -1.38123000        +7.90245000
C        -0.50204000        +0.02125000        +8.02427000
C        +0.80474000        -2.13529000        +7.87560000
C        +0.78348000        +0.78683000        +8.03532000
O        +1.59150000        -1.78929000        +8.91747000
O        +1.10207000        -2.98158000        +7.06846000
O        +1.59289000        +0.38548000        +7.03057000
O        +1.06540000        +1.67344000        +8.80412000
C        +2.88954000        +1.00368000        +6.97576000
C        +2.87821000        -2.42961000        +8.97409000
C        -1.68815000        -2.11369000        +7.84382000
C        -2.88447000        -1.39809000        +7.91649000
C        -2.89808000        -0.01498000        +8.03868000
C        -1.71656000        +0.72651000        +8.09744000
H        +2.79340000        +2.08236000        +6.84470000
H        +2.76283000        -3.51072000        +9.06489000
H        -3.84849000        +0.50572000        +8.08644000
H        +3.44503000        +0.80340000        +7.89390000
H        +3.38689000        +0.55516000        +6.11867000
H        +3.36600000        -2.02034000        +9.85584000
H        +3.45394000        -2.20687000        +8.07393000
H        -3.82387000        -1.93964000        +7.87946000
C        -1.78455000        +2.22993000        +8.21773000
C        -1.72598000        -3.61979000        +7.72344000
H        -1.34247000        -3.94976000        +6.75611000
H        -2.75067000        -3.97928000        +7.83307000
H        -1.11453000        -4.10530000        +8.48860000
H        -1.18709000        +2.72599000        +7.44869000
H        -1.39998000        +2.56674000        +9.18218000
H        -2.81706000        +2.56870000        +8.11572000
$end

$rem
JOBTYPE                   SP
METHOD                    B3LYP
DFT_D                     d3_op
BASIS                     6-311++G(d,p)
SYMMETRY                  False
THRESH                    12
SCF_CONVERGENCE           8
MAX_SUB_FILE_NUM          128
MEM_STATIC                400
MEM_TOTAL                 4000
$end
--------------------------------------------------------------

             Standard Nuclear Orientation (Angstroms)
    I     Atom           X                Y                Z
 ----------------------------------------------------------------
    1      C      -3.9943887488     0.5020126495     0.7843779064
    2      C      -4.0202164427     0.5713372992    -0.6214945303
    3      C      -3.9316700660    -0.8210213291     1.4841973983
    4      C      -4.0790179588    -0.6828267801    -1.4353811030
    5      O      -2.9254423551    -1.5807239795     0.9998854416
    6      O      -4.6433180220    -1.1612977389     2.3973545722
    7      O      -5.0296421055    -1.5196607727    -0.9644548523
    8      O      -3.4050416757    -0.9201914019    -2.4080185610
    9      C      -5.1384153759    -2.7915526520    -1.6254662152
   10      C      -2.7916864825    -2.8908449592     1.5782715894
   11      C      -3.9856716992     1.6702105414     1.5668089670
   12      C      -3.9980061639     2.8945658405     0.8964748756
   13      C      -4.0214451770     2.9640919400    -0.4901489503
   14      C      -4.0311178427     1.8134763493    -1.2808700579
   15      H      -5.3824894052    -2.6546516186    -2.6798172672
   16      H      -2.5891037598    -2.8169949363     2.6477866342
   17      H      -4.0361551261     3.9347709202    -0.9741475149
   18      H      -4.1998932763    -3.3431965100    -1.5446726478
   19      H      -5.9397770564    -3.3166379318    -1.1104561310
   20      H      -1.9537337260    -3.3513047650     1.0598740350
   21      H      -3.7055430954    -3.4683554523     1.4275603174
   22      H      -3.9857063435     3.8114018528     1.4764579997
   23      C      -4.0694847857     1.9420475171    -2.7846524402
   24      C      -3.9479683235     1.6472628738     3.0775410820
   25      H      -4.8722946212     1.2392347019     3.4908464852
   26      H      -3.8095744706     2.6582789761     3.4647554613
   27      H      -3.1312579453     1.0266064592     3.4554705214
   28      H      -4.8813940003     1.3551889217    -3.2215241753
   29      H      -3.1425349769     1.5828823030    -3.2354997143
   30      H      -4.2147472102     2.9857611423    -3.0689212384
   31      C       4.0043619746     0.5172575874     0.6439745726
   32      C       3.9785342807     0.5865822371    -0.7618978642
   33      C       4.0670806574    -0.8057763912     1.3437940644
   34      C       3.9197327646    -0.6675818422    -1.5757844369
   35      O       5.0733083683    -1.5654790415     0.8594821077
   36      O       3.3554327014    -1.1460528010     2.2569512383
   37      O       2.9691086179    -1.5044158348    -1.1048581862
   38      O       4.5937090477    -0.9049464639    -2.5484218949
   39      C       2.8603353475    -2.7763077140    -1.7658695491
   40      C       5.2070642408    -2.8756000212     1.4378682556
   41      C       4.0130790241     1.6854554794     1.4264056331
   42      C       4.0007445595     2.9098107784     0.7560715417
   43      C       3.9773055464     2.9793368779    -0.6305522842
   44      C       3.9676328807     1.8287212873    -1.4212733918
   45      H       2.6162613182    -2.6394066806    -2.8202206011
   46      H       5.4096469636    -2.8017499984     2.5073833004
   47      H       3.9625955973     3.9500158581    -1.1145508488
   48      H       3.7988574471    -3.3279515721    -1.6850759817
   49      H       2.0589736669    -3.3013929938    -1.2508594649
   50      H       6.0450169974    -3.3360598271     0.9194707011
   51      H       4.2932076279    -3.4531105143     1.2871569835
   52      H       4.0130443799     3.8266467908     1.3360546658
   53      C       3.9292659377     1.9572924550    -2.9250557740
   54      C       4.0507823998     1.6625078118     2.9371377481
   55      H       3.1264561022     1.2544796399     3.3504431513
   56      H       4.1891762528     2.6735239140     3.3243521275
   57      H       4.8674927781     1.0418513971     3.3150671875
   58      H       3.1173567231     1.3704338596    -3.3619275092
   59      H       4.8562157464     1.5981272410    -3.3759030481
   60      H       3.7840035132     3.0010060803    -3.2093245723
 ----------------------------------------------------------------

   14   -1533.7528847123      7.85E-09 Convergence criterion met
 Total energy in the final basis set = -1533.75288471

                    Orbital Energies (a.u.)
 --------------------------------------------------------------

 Alpha MOs
 -- Occupied --
-19.175 -19.175 -19.174 -19.174 -19.118 -19.118 -19.117 -19.117
-10.310 -10.310 -10.309 -10.309 -10.232 -10.231 -10.230 -10.230
-10.204 -10.204 -10.203 -10.203 -10.200 -10.200 -10.199 -10.199
-10.185 -10.185 -10.185 -10.184 -10.170 -10.169 -10.169 -10.168
 -1.120  -1.119  -1.113  -1.113  -1.030  -1.030  -1.029  -1.028
 -0.884  -0.884  -0.806  -0.806  -0.794  -0.794  -0.745  -0.745
 -0.733  -0.733  -0.723  -0.723  -0.674  -0.673  -0.648  -0.647
 -0.619  -0.619  -0.576  -0.576  -0.564  -0.564  -0.536  -0.535
 -0.516  -0.516  -0.513  -0.513  -0.490  -0.490  -0.487  -0.487
 -0.478  -0.478  -0.476  -0.476  -0.468  -0.468  -0.441  -0.441
 -0.433  -0.433  -0.428  -0.428  -0.419  -0.419  -0.414  -0.414
 -0.410  -0.410  -0.404  -0.404  -0.395  -0.394  -0.386  -0.386
 -0.379  -0.378  -0.372  -0.371  -0.361  -0.360  -0.357  -0.357
 -0.356  -0.356  -0.320  -0.319  -0.312  -0.311  -0.292  -0.292
 -0.291  -0.291  -0.265  -0.265  -0.251  -0.251

          Ground-State Mulliken Net Atomic Charges

     Atom                 Charge (a.u.)
  ----------------------------------------
      1 C                     0.490394
      2 C                     0.608872
      3 C                    -0.645579
      4 C                    -0.705591
      5 O                     0.074789
      6 O                    -0.167240
      7 O                     0.042726
      8 O                    -0.150582
      9 C                    -0.226084
     10 C                    -0.249232
     11 C                     0.536345
     12 C                    -0.611454
     13 C                    -0.638122
     14 C                     0.525752
     15 H                     0.169667
     16 H                     0.177276
     17 H                     0.129337
     18 H                     0.176919
     19 H                     0.169304
     20 H                     0.146809
     21 H                     0.177224
     22 H                     0.132224
     23 C                    -0.575945
     24 C                    -0.616052
     25 H                     0.203811
     26 H                     0.139428
     27 H                     0.175828
     28 H                     0.173914
     29 H                     0.192792
     30 H                     0.142609
     31 C                     0.633772
     32 C                     0.502427
     33 C                    -0.807194
     34 C                    -0.591618
     35 O                     0.058771
     36 O                    -0.139201
     37 O                     0.057727
     38 O                    -0.173418
     39 C                    -0.245722
     40 C                    -0.228538
     41 C                     0.549199
     42 C                    -0.646849
     43 C                    -0.603433
     44 C                     0.518256
     45 H                     0.177611
     46 H                     0.169079
     47 H                     0.133033
     48 H                     0.178181
     49 H                     0.147476
     50 H                     0.167215
     51 H                     0.176459
     52 H                     0.128789
     53 C                    -0.615932
     54 C                    -0.574157
     55 H                     0.193404
     56 H                     0.144602
     57 H                     0.173667
     58 H                     0.175651
     59 H                     0.202628
     60 H                     0.137973
  ----------------------------------------
  Sum of atomic charges =     0.000000

                    Cartesian Multipole Moments
 -----------------------------------------------------------------
    Charge (ESU x 10^10)
                 0.0000
    Dipole Moment (Debye)
         X       0.1656      Y      -0.1420      Z       0.1910
       Tot       0.2900
    Quadrupole Moments (Debye-Ang)
        XX    -196.1508     XY      -1.2983     YY    -152.7899
        XZ      17.8858     YZ       1.7236     ZZ    -194.6543

 Total job time:  1734.11s(wall), 3448.50s(cpu)
        *  Thank you very much for using Q-Chem.  Have a nice day.  *
