 Q-Chem 5.0, Q-Chem, Inc., Pleasanton, CA (2017)
 Q-Chem 5.0.1 for Intel X86 EM64T Linux

User input:
--------------------------------------------------------------
$molecule
0  1
C        -0.48939000        -1.38123000        +7.90245000
C        -0.50204000        +0.02125000        +8.02427000
C        +0.80474000        -2.13529000        +7.87560000
C        +0.78348000        +0.78683000        +8.03532000
O        +1.59150000        -1.78929000        +8.91747000
O        +1.10207000        -2.98158000        +7.06846000
O        +1.59289000        +0.38548000        +7.03057000
O        +1.06540000        +1.67344000        +8.80412000
C        +2.88954000        +1.00368000        +6.97576000
C        +2.87821000        -2.42961000        +8.97409000
C        -1.68815000        -2.11369000        +7.84382000
C        -2.88447000        -1.39809000        +7.91649000
C        -2.89808000        -0.01498000        +8.03868000
C        -1.71656000        +0.72651000        +8.09744000
H        +2.79340000        +2.08236000        +6.84470000
H        +2.76283000        -3.51072000        +9.06489000
H        -3.84849000        +0.50572000        +8.08644000
H        +3.44503000        +0.80340000        +7.89390000
H        +3.38689000        +0.55516000        +6.11867000
H        +3.36600000        -2.02034000        +9.85584000
H        +3.45394000        -2.20687000        +8.07393000
H        -3.82387000        -1.93964000        +7.87946000
C        -1.78455000        +2.22993000        +8.21773000
C        -1.72598000        -3.61979000        +7.72344000
H        -1.34247000        -3.94976000        +6.75611000
H        -2.75067000        -3.97928000        +7.83307000
H        -1.11453000        -4.10530000        +8.48860000
H        -1.18709000        +2.72599000        +7.44869000
H        -1.39998000        +2.56674000        +9.18218000
H        -2.81706000        +2.56870000        +8.11572000
@C        -0.54444000        -0.68370000        -0.06689000
@C        -0.55709000        +0.71878000        +0.05493000
@C        +0.74969000        -1.43776000        -0.09374000
@C        +0.72843000        +1.48436000        +0.06598000
@O        +1.53645000        -1.09176000        +0.94813000
@O        +1.04702000        -2.28405000        -0.90088000
@O        +1.53784000        +1.08301000        -0.93877000
@O        +1.01035000        +2.37097000        +0.83478000
@C        +2.83449000        +1.70121000        -0.99358000
@C        +2.82316000        -1.73208000        +1.00475000
@C        -1.74320000        -1.41616000        -0.12552000
@C        -2.93952000        -0.70056000        -0.05285000
@C        -2.95313000        +0.68255000        +0.06934000
@C        -1.77161000        +1.42404000        +0.12810000
@H        +2.73835000        +2.77989000        -1.12464000
@H        +2.70778000        -2.81319000        +1.09555000
@H        -3.90354000        +1.20325000        +0.11710000
@H        +3.38998000        +1.50093000        -0.07544000
@H        +3.33184000        +1.25269000        -1.85067000
@H        +3.31095000        -1.32281000        +1.88650000
@H        +3.39889000        -1.50934000        +0.10459000
@H        -3.87892000        -1.24211000        -0.08988000
@C        -1.83960000        +2.92746000        +0.24839000
@C        -1.78103000        -2.92226000        -0.24590000
@H        -1.39752000        -3.25223000        -1.21323000
@H        -2.80572000        -3.28175000        -0.13627000
@H        -1.16958000        -3.40777000        +0.51926000
@H        -1.24214000        +3.42352000        -0.52065000
@H        -1.45503000        +3.26427000        +1.21284000
@H        -2.87211000        +3.26623000        +0.14638000
$end

$rem
JOBTYPE                   SP
METHOD                    B3LYP
DFT_D                     d3_op
BASIS                     6-311++G(d,p)
SYMMETRY                  False
THRESH                    12
SCF_CONVERGENCE           8
MAX_SUB_FILE_NUM          128
MEM_STATIC                400
MEM_TOTAL                 4000
$end
--------------------------------------------------------------

             Standard Nuclear Orientation (Angstroms)
    I     Atom           X                Y                Z
 ----------------------------------------------------------------
    1      C      -0.4893900000    -1.3812300000     7.9024500000
    2      C      -0.5020400000     0.0212500000     8.0242700000
    3      C       0.8047400000    -2.1352900000     7.8756000000
    4      C       0.7834800000     0.7868300000     8.0353200000
    5      O       1.5915000000    -1.7892900000     8.9174700000
    6      O       1.1020700000    -2.9815800000     7.0684600000
    7      O       1.5928900000     0.3854800000     7.0305700000
    8      O       1.0654000000     1.6734400000     8.8041200000
    9      C       2.8895400000     1.0036800000     6.9757600000
   10      C       2.8782100000    -2.4296100000     8.9740900000
   11      C      -1.6881500000    -2.1136900000     7.8438200000
   12      C      -2.8844700000    -1.3980900000     7.9164900000
   13      C      -2.8980800000    -0.0149800000     8.0386800000
   14      C      -1.7165600000     0.7265100000     8.0974400000
   15      H       2.7934000000     2.0823600000     6.8447000000
   16      H       2.7628300000    -3.5107200000     9.0648900000
   17      H      -3.8484900000     0.5057200000     8.0864400000
   18      H       3.4450300000     0.8034000000     7.8939000000
   19      H       3.3868900000     0.5551600000     6.1186700000
   20      H       3.3660000000    -2.0203400000     9.8558400000
   21      H       3.4539400000    -2.2068700000     8.0739300000
   22      H      -3.8238700000    -1.9396400000     7.8794600000
   23      C      -1.7845500000     2.2299300000     8.2177300000
   24      C      -1.7259800000    -3.6197900000     7.7234400000
   25      H      -1.3424700000    -3.9497600000     6.7561100000
   26      H      -2.7506700000    -3.9792800000     7.8330700000
   27      H      -1.1145300000    -4.1053000000     8.4886000000
   28      H      -1.1870900000     2.7259900000     7.4486900000
   29      H      -1.3999800000     2.5667400000     9.1821800000
   30      H      -2.8170600000     2.5687000000     8.1157200000
   31      GH     -0.5444400000    -0.6837000000    -0.0668900000
   32      GH     -0.5570900000     0.7187800000     0.0549300000
   33      GH      0.7496900000    -1.4377600000    -0.0937400000
   34      GH      0.7284300000     1.4843600000     0.0659800000
   35      GH      1.5364500000    -1.0917600000     0.9481300000
   36      GH      1.0470200000    -2.2840500000    -0.9008800000
   37      GH      1.5378400000     1.0830100000    -0.9387700000
   38      GH      1.0103500000     2.3709700000     0.8347800000
   39      GH      2.8344900000     1.7012100000    -0.9935800000
   40      GH      2.8231600000    -1.7320800000     1.0047500000
   41      GH     -1.7432000000    -1.4161600000    -0.1255200000
   42      GH     -2.9395200000    -0.7005600000    -0.0528500000
   43      GH     -2.9531300000     0.6825500000     0.0693400000
   44      GH     -1.7716100000     1.4240400000     0.1281000000
   45      GH      2.7383500000     2.7798900000    -1.1246400000
   46      GH      2.7077800000    -2.8131900000     1.0955500000
   47      GH     -3.9035400000     1.2032500000     0.1171000000
   48      GH      3.3899800000     1.5009300000    -0.0754400000
   49      GH      3.3318400000     1.2526900000    -1.8506700000
   50      GH      3.3109500000    -1.3228100000     1.8865000000
   51      GH      3.3988900000    -1.5093400000     0.1045900000
   52      GH     -3.8789200000    -1.2421100000    -0.0898800000
   53      GH     -1.8396000000     2.9274600000     0.2483900000
   54      GH     -1.7810300000    -2.9222600000    -0.2459000000
   55      GH     -1.3975200000    -3.2522300000    -1.2132300000
   56      GH     -2.8057200000    -3.2817500000    -0.1362700000
   57      GH     -1.1695800000    -3.4077700000     0.5192600000
   58      GH     -1.2421400000     3.4235200000    -0.5206500000
   59      GH     -1.4550300000     3.2642700000     1.2128400000
   60      GH     -2.8721100000     3.2662300000     0.1463800000
 ----------------------------------------------------------------

   14    -766.8763411218      5.95E-09 Convergence criterion met
 Total energy in the final basis set = -766.87634112

                    Orbital Energies (a.u.)
 --------------------------------------------------------------

 Alpha MOs
 -- Occupied --
-19.176 -19.176 -19.119 -19.119 -10.311 -10.311 -10.232 -10.232
-10.205 -10.205 -10.201 -10.201 -10.187 -10.186 -10.171 -10.170
 -1.121  -1.114  -1.031  -1.030  -0.885  -0.807  -0.796  -0.747
 -0.734  -0.725  -0.675  -0.649  -0.620  -0.577  -0.565  -0.537
 -0.517  -0.515  -0.491  -0.489  -0.480  -0.477  -0.469  -0.442
 -0.434  -0.429  -0.420  -0.416  -0.411  -0.406  -0.396  -0.387
 -0.380  -0.373  -0.362  -0.359  -0.357  -0.321  -0.313  -0.293
 -0.292  -0.266  -0.253

          Ground-State Mulliken Net Atomic Charges

     Atom                 Charge (a.u.)
  ----------------------------------------
      1 C                     0.631964
      2 C                     0.493559
      3 C                    -0.808502
      4 C                    -0.593146
      5 O                     0.059344
      6 O                    -0.136654
      7 O                     0.056820
      8 O                    -0.171974
      9 C                    -0.248751
     10 C                    -0.228442
     11 C                     0.546005
     12 C                    -0.645021
     13 C                    -0.600552
     14 C                     0.517873
     15 H                     0.175875
     16 H                     0.169328
     17 H                     0.133800
     18 H                     0.179443
     19 H                     0.149368
     20 H                     0.167137
     21 H                     0.177553
     22 H                     0.129696
     23 C                    -0.613684
     24 C                    -0.570174
     25 H                     0.194211
     26 H                     0.144863
     27 H                     0.173842
     28 H                     0.172380
     29 H                     0.203323
     30 H                     0.138723
     31 GH                   -0.000033
     32 GH                   -0.001048
     33 GH                    0.000586
     34 GH                    0.001843
     35 GH                   -0.000063
     36 GH                   -0.000001
     37 GH                    0.000002
     38 GH                   -0.000033
     39 GH                    0.000052
     40 GH                    0.000144
     41 GH                   -0.000445
     42 GH                   -0.000220
     43 GH                    0.000190
     44 GH                   -0.000720
     45 GH                    0.000002
     46 GH                   -0.000244
     47 GH                   -0.000024
     48 GH                   -0.000015
     49 GH                    0.000001
     50 GH                    0.001912
     51 GH                    0.000008
     52 GH                   -0.000030
     53 GH                   -0.000264
     54 GH                    0.000185
     55 GH                    0.000005
     56 GH                    0.000005
     57 GH                    0.000057
     58 GH                    0.000005
     59 GH                   -0.000061
     60 GH                   -0.000000
  ----------------------------------------
  Sum of atomic charges =     0.000000

                    Cartesian Multipole Moments
 -----------------------------------------------------------------
    Charge (ESU x 10^10)
                 0.0000
    Dipole Moment (Debye)
         X       0.0712      Y      -0.1076      Z       0.0662
       Tot       0.1450
    Quadrupole Moments (Debye-Ang)
        XX     -76.1050     XY      -0.1277     YY     -95.2693
        XZ       0.6835     YZ      -9.8550     ZZ     -98.4777

 Total job time:  1576.43s(wall), 3133.47s(cpu)
        *  Thank you very much for using Q-Chem.  Have a nice day.  *
