 Q-Chem 5.0, Q-Chem, Inc., Pleasanton, CA (2017)
 Q-Chem 5.0.1 for Intel X86 EM64T Linux

User input:
--------------------------------------------------------------
$molecule
0 1
C 0.50776316 1.01312101 0.72070154
C 0.72490390 -0.51909345 1.00235957
C -0.78078236 1.42591725 0.04571854
C -0.30182905 -1.52688338 0.54032045
O -1.84298936 1.06777298 0.80220001
O -0.87520187 2.04498407 -0.98446388
O -0.84775465 -1.22182543 -0.65292165
O -0.56532091 -2.53666788 1.15033816
C -1.81380603 -2.15251054 -1.17023571
C -3.13859611 1.35777578 0.25103562
C 1.80631162 1.42772981 -0.04929176
C 1.78875430 0.71731363 -1.39172897
C 1.99342461 -0.58360810 -1.16231011
C 2.14696985 -0.76856101 0.33696455
C 2.84010380 0.56179990 0.70809768
H -1.35965559 -3.13335407 -1.31892397
H -3.25975056 0.85738696 -0.71141456
H 1.93076010 -1.39022649 -1.88045664
H -2.13846156 -1.73275620 -2.11998414
H -2.65521211 -2.24883728 -0.48204496
H -3.85497467 0.97476331 0.97472262
H -3.26753137 2.43257317 0.11483195
H 2.60767529 -1.69516187 0.67548585
H 1.96584352 2.50397150 -0.07663488
H 3.84239356 0.63943682 0.28404134
H 2.87726728 0.75352743 1.78490885
H 1.52423790 1.18671802 -2.32801249
H 0.49288369 1.51723991 1.69224171
H 0.81772661 -0.68783094 2.07465101
$end

$rem
sym_ignore      true
jobtype         opt
method          b3lyp
basis           6-311++G(d,p)
dft_d           d3_op
mem_total       62000
MEM_STATIC      4000
ao2mo_disk      350000
max_scf_cycles  200
geom_opt_max_cycles 1000
geom_opt_tol_displacement 1
GEOM_OPT_TOL_GRADIENT       1
GEOM_OPT_TOL_ENERGY         1
$end

--------------------------------------------------------------

   15    -728.7117227931      4.12E-09 Convergence criterion met
 Total energy in the final basis set = -728.71172279
   11    -728.7117326561      9.00E-09 Convergence criterion met
 Total energy in the final basis set = -728.71173266
   11    -728.7117269675      9.90E-09 Convergence criterion met
 Total energy in the final basis set = -728.71172697
   12    -728.7116859360      5.42E-09 Convergence criterion met
 Total energy in the final basis set = -728.71168594
   12    -728.7117574950      5.48E-09 Convergence criterion met
 Total energy in the final basis set = -728.71175750
   10    -728.7117492174      8.99E-09 Convergence criterion met
 Total energy in the final basis set = -728.71174922
   11    -728.7117460989      6.13E-09 Convergence criterion met
 Total energy in the final basis set = -728.71174610
   10    -728.7117540640      9.73E-09 Convergence criterion met
    9    -728.7117528664      6.44E-09 Convergence criterion met
 Total energy in the final basis set = -728.71175287
    8    -728.7117526990      7.11E-09 Convergence criterion met
 Total energy in the final basis set = -728.71175270
    7    -728.7117527994      8.79E-09 Convergence criterion met
 Total energy in the final basis set = -728.71175280
    7    -728.7117529344      6.15E-09 Convergence criterion met
 Total energy in the final basis set = -728.71175293
    6    -728.7117529600      5.78E-09 Convergence criterion met
 Total energy in the final basis set = -728.71175296
    4    -728.7117529547      8.27E-09 Convergence criterion met
 Total energy in the final basis set = -728.71175295
 Final energy is   -728.711752954664
 **  OPTIMIZATION CONVERGED  **
 Total job time:  775.80s(wall), 12105.61s(cpu)
        *  Thank you very much for using Q-Chem.  Have a nice day.  *

User input: 2 of 2

r0229.ten.osc.edu 10.25.157
Q-Chem Developer Version! Running on 10.25.157.*
                  Welcome to Q-Chem
     A Quantum Leap Into The Future Of Chemistry

 Q-Chem 5.0, Q-Chem, Inc., Pleasanton, CA (2017)

 Yihan Shao,  Zhengting Gan,  E. Epifanovsky,  A. T. B. Gilbert,  M. Wormit,
 J. Kussmann,  A. W. Lange,  A. Behn,  Jia Deng,  Xintian Feng,  D. Ghosh,
 M. Goldey,  P. R. Horn,  L. D. Jacobson,  I. Kaliman,  T. Kus,  A. Landau,
 Jie Liu,  E. I. Proynov,  R. M. Richard,  R. P. Steele,  E. J. Sundstrom,
 H. L. Woodcock III,  P. M. Zimmerman,  D. Zuev,  B. Albrecht,  E. Alguire,
 S. A. Baeppler,  Z. Benda,  Y. A. Bernard,  E. J. Berquist,  K. B. Bravaya,
 D. Casanova,  Chun-Min Chang,  Yunqing Chen,  A. Chien,  K. D. Closser,
 M. P. Coons,  S. Dasgupta,  M. Diedenhofen,  Hainam Do,  R. G. Edgar,
 Po-Tung Fang,  S. Fatehi,  Qingguo Feng,  Qinghui Ge,  A. Ghysels,
 J. Gomes,  J. Gonthier,  A. Gunina,  M. W. D. Hanson-Heine,
 P. H. P. Harbach,  A. W. Hauser,  J. E. Herr,  E. G. Hohenstein,
 Z. C. Holden,  Kerwin Hui,  T.-C. Jagau,  Hyunjun Ji,  B. Kaduk,
 K. Khistyaev,  Jaehoon Kim,  P. Klunzinger,  K. Koh,  D. Kosenkov,
 T. Kowalczyk,  C. M. Krauter,  A. Kunitsa,  Ka Un Lao,  A. Laurent,
 K. V. Lawler,  Joonho Lee,  D. Lefrancois,  S. Lehtola,  D. S. Levine,
 Yi-Pei Li,  You-Sheng Lin,  Fenglai Liu,  E. Livshits,  A. Luenser,
 P. Manohar,  E. Mansoor,  S. F. Manzer,  Shan-Ping Mao,  Yuezhi Mao,
 N. Mardirossian,  A. V. Marenich,  L. A. Martinez-Martinez,  S. A. Maurer,
 N. J. Mayhall,  S. C. McKenzie,  J.-M. Mewes,  A. F. Morrison,  K. Nanda,
 T. S. Nguyen-Beck,  R. Olivares-Amaya,  J. A. Parkhill,  T. M. Perrine,
 F. Plasser,  S. Prager,  A. Prociuk,  D. R. Rehn,  F. Rob,  M. Schneider,
 N. Sergueev,  S. M. Sharada,  S. Sharma,  D. W. Small,  T. Stauch,
 T. Stein,  Yu-Chuan Su,  A. J. W. Thom,  T. Tsuchimochi,  L. Vogt,
 O. Vydrov,  M. A. Watson,  J. Wenzel,  M. de Wergifosse,  T. A. Wesolowski,
 A. White,  J. Witte,  A. Yamada,  Jun Yang,  K. Yao,  S. Yeganeh,
 S. R. Yost,  Zhi-Qiang You,  A. Zech,  Igor Ying Zhang,  Xing Zhang,
 Yan Zhao,  Ying Zhu,  B. R. Brooks,  G. K. L. Chan,  C. J. Cramer,
 M. S. Gordon,  W. J. Hehre,  A. Klamt,  M. W. Schmidt,  C. D. Sherrill,
 D. G. Truhlar,  A. Aspuru-Guzik,  R. Baer,  A. T. Bell,  N. A. Besley,
 Jeng-Da Chai,  A. Dreuw,  B. D. Dunietz,  T. R. Furlani,  Chao-Ping Hsu,
 Yousung Jung,  Jing Kong,  D. S. Lambrecht,  WanZhen Liang,  C. Ochsenfeld,
 V. A. Rassolov,  L. V. Slipchenko,  J. E. Subotnik,  T. Van Voorhis,
 J. M. Herbert,  A. I. Krylov,  P. M. W. Gill,  M. Head-Gordon

 Contributors to earlier versions of Q-Chem not listed above:
 R. D. Adamson,  B. Austin,  J. Baker,  G. J. O. Beran,  K. Brandhorst,
 S. T. Brown,  E. F. C. Byrd,  A. K. Chakraborty,  C.-L. Cheng,
 Siu Hung Chien,  D. M. Chipman,  D. L. Crittenden,  H. Dachsel,
 R. A. DiStasio Jr.,  R. J. Doerksen,  A. D. Dutoi,  L. Fusti-Molnar,
 W. A. Goddard III,  A. Golubeva-Zadorozhnaya,  S. R. Gwaltney,  G. Hawkins,
 A. Heyden,  S. Hirata,  G. Kedziora,  F. J. Keil,  C. Kelley,  Jihan Kim,
 R. A. King,  R. Z. Khaliullin,  P. P. Korambath,  W. Kurlancheek,
 A. M. Lee,  M. S. Lee,  S. V. Levchenko,  Ching Yeh Lin,  D. Liotard,
 R. C. Lochan,  I. Lotan,  P. E. Maslen,  N. Nair,  D. P. O'Neill,
 D. Neuhauser,  E. Neuscamman,  C. M. Oana,  R. Olson,  B. Peters,
 R. Peverati,  P. A. Pieniazek,  Y. M. Rhee,  J. Ritchie,  M. A. Rohrdanz,
 E. Rosta,  N. J. Russ,  H. F. Schaefer III,  N. E. Schultz,  N. Shenvi,
 A. C. Simmonett,  A. Sodt,  D. Stuck,  K. S. Thanthiriwatte,  V. Vanovschi,
 Tao Wang,  A. Warshel,  C. F. Williams,  Q. Wu,  X. Xu,  W. Zhang

 Please cite Q-Chem as follows:
 Y. Shao et al., Mol. Phys. 113, 184-215 (2015)
 DOI: 10.1080/00268976.2014.952696

 Q-Chem 5.0.1 for Intel X86 EM64T Linux

 Parts of Q-Chem use Armadillo 5.200.1 (Boston Tea Smuggler).
 http://arma.sourceforge.net/

 Q-Chem begins on Mon Oct 23 23:32:42 2017

Host: r0229.ten.osc.edu
0

     Scratch files written to /tmp/pbstmp.1324328/02//
Processing $rem in /users/PAS0291/osu6415/.qchemrc.
molden_format             true
The previous job contains 0 fragments, simply inherited here

Checking the input file for inconsistencies... 	...done.

--------------------------------------------------------------
User input:
--------------------------------------------------------------

$molecule
read
$end

$rem
sym_ignore      true
scf_guess       read
jobtype         freq
method          b3lyp
basis           6-311++G(d,p)
dft_d           d3_op
mem_total       62000
MEM_STATIC      4000
ao2mo_disk      350000
max_scf_cycles  200
$end
--------------------------------------------------------------

             Standard Nuclear Orientation (Angstroms)
    I     Atom           X                Y                Z
 ----------------------------------------------------------------
    1      C       0.5130492784     1.0150991468     0.7315493502
    2      C       0.7320863173    -0.5211302880     0.9987718531
    3      C      -0.7728161677     1.4234641094     0.0474297012
    4      C      -0.3202664815    -1.5129551769     0.5595220989
    5      O      -1.8382330528     1.0563849678     0.7950170389
    6      O      -0.8644229426     2.0380047031    -0.9855866558
    7      O      -0.8193644560    -1.2480108036    -0.6639815489
    8      O      -0.6493605963    -2.4735013833     1.2150994050
    9      C      -1.8135229965    -2.1612366637    -1.1590196350
   10      C      -3.1321131734     1.3356616308     0.2337666145
   11      C       1.8138272109     1.4352764961    -0.0332992672
   12      C       1.7881649307     0.7489506924    -1.3884196939
   13      C       1.9822134636    -0.5571702398    -1.1815697918
   14      C       2.1421460787    -0.7690888865     0.3137834427
   15      C       2.8461571833     0.5505353709     0.7038847608
   16      H      -1.3927916472    -3.1621087325    -1.2683579788
   17      H      -3.2419829175     0.8327157909    -0.7287148416
   18      H       1.9136406991    -1.3511081707    -1.9129221384
   19      H      -2.1135760694    -1.7643259049    -2.1264705704
   20      H      -2.6641266983    -2.2048589706    -0.4768419635
   21      H      -3.8506901102     0.9486676787     0.9530015123
   22      H      -3.2676356372     2.4091947684     0.0940586641
   23      H       2.6012646785    -1.7039195599     0.6318334960
   24      H       1.9801070521     2.5108826697    -0.0415664723
   25      H       3.8465529814     0.6298380494     0.2757887548
   26      H       2.8896778825     0.7234229598     1.7836792949
   27      H       1.5265680860     1.2368905473    -2.3158783294
   28      H       0.4895729044     1.5116368896     1.7065262412
   29      H       0.8410271895    -0.6924967806     2.0691123886
 ----------------------------------------------------------------

    2    -728.7117529538      7.05E-09 Convergence criterion met
 Total energy in the final basis set = -728.71175295

                    Orbital Energies (a.u.)
 --------------------------------------------------------------

 Alpha MOs
 -- Occupied --
-19.173 -19.173 -19.117 -19.114 -10.306 -10.305 -10.231 -10.230
-10.205 -10.205 -10.197 -10.191 -10.180 -10.170 -10.169  -1.117
 -1.112  -1.028  -1.026  -0.901  -0.792  -0.763  -0.736  -0.725
 -0.706  -0.640  -0.590  -0.575  -0.565  -0.540  -0.534  -0.525
 -0.500  -0.495  -0.483  -0.476  -0.465  -0.459  -0.443  -0.427
 -0.412  -0.404  -0.398  -0.388  -0.381  -0.368  -0.365  -0.360
 -0.352  -0.346  -0.325  -0.319  -0.311  -0.285  -0.282  -0.250

          Ground-State Mulliken Net Atomic Charges

     Atom                 Charge (a.u.)
  ----------------------------------------
      1 C                     0.354221
      2 C                    -0.031567
      3 C                    -0.766990
      4 C                    -0.494104
      5 O                    -0.016163
      6 O                    -0.188838
      7 O                    -0.014019
      8 O                    -0.202734
      9 C                    -0.249832
     10 C                    -0.210086
     11 C                     0.286067
     12 C                    -0.355177
     13 C                    -0.476585
     14 C                     0.382652
     15 C                    -0.731889
     16 H                     0.182465
     17 H                     0.180463
     18 H                     0.135558
     19 H                     0.164833
     20 H                     0.195251
     21 H                     0.160167
     22 H                     0.172065
     23 H                     0.271181
     24 H                     0.261198
     25 H                     0.174752
     26 H                     0.128486
     27 H                     0.173002
     28 H                     0.252959
     29 H                     0.262661
  ----------------------------------------
  Sum of atomic charges =     0.000000

                    Cartesian Multipole Moments
 -----------------------------------------------------------------
    Charge (ESU x 10^10)
                 0.0000
    Dipole Moment (Debye)
         X      -0.4047      Y       0.4065      Z      -0.1753
       Tot       0.5998
    Quadrupole Moments (Debye-Ang)
        XX     -78.6250     XY      -0.0934     YY     -94.1563
        XZ       4.3023     YZ      11.1314     ZZ     -90.6132

 Frequency:        42.52                  74.25                  76.65
 Force Cnst:      0.0072                 0.0138                 0.0119
 Red. Mass:       6.7884                 4.2400                 3.4316
 IR Intens:        2.538                  0.933                  0.237
 Frequency:        92.37                 121.03                 146.02
 Force Cnst:      0.0314                 0.0275                 0.0528
 Red. Mass:       6.2394                 3.1855                 4.2060
 IR Intens:        1.219                  1.793                  2.445
 Frequency:       149.31                 163.05                 207.75
 Force Cnst:      0.0139                 0.0172                 0.1103
 Red. Mass:       1.0616                 1.1010                 4.3392
 IR Intens:        0.021                  0.037                  1.896
 Frequency:       245.92                 251.09                 291.01
 Force Cnst:      0.1745                 0.1845                 0.2460
 Red. Mass:       4.8973                 4.9669                 4.9294
 IR Intens:        8.533                  3.327                  4.813
 Frequency:       322.98                 374.15                 386.21
 Force Cnst:      0.2441                 0.4782                 0.4082
 Red. Mass:       3.9723                 5.7984                 4.6450
 IR Intens:        6.743                 12.107                  5.655
 Frequency:       412.39                 488.53                 532.23
 Force Cnst:      0.3751                 0.4060                 0.4383
 Red. Mass:       3.7432                 2.8876                 2.6262
 IR Intens:        1.341                  4.849                  6.946
 Frequency:       636.42                 675.55                 708.32
 Force Cnst:      0.9572                 1.2671                 1.1303
 Red. Mass:       4.0113                 4.7122                 3.8236
 IR Intens:        5.054                  3.355                  5.489
 Frequency:       735.55                 768.59                 787.52
 Force Cnst:      0.9381                 1.1196                 2.1927
 Red. Mass:       2.9429                 3.2169                 6.0007
 IR Intens:       30.320                 11.802                  4.231
 Frequency:       806.43                 818.37                 857.70
 Force Cnst:      1.5349                 1.6967                 1.1907
 Red. Mass:       4.0058                 4.2999                 2.7471
 IR Intens:       14.676                  7.597                  2.078
 Frequency:       873.54                 896.74                 922.28
 Force Cnst:      1.8093                 1.3479                 1.2174
 Red. Mass:       4.0244                 2.8449                 2.4291
 IR Intens:        8.160                 21.644                  1.901
 Frequency:       932.59                 950.82                 958.67
 Force Cnst:      1.8900                 1.2575                 0.9223
 Red. Mass:       3.6883                 2.3608                 1.7032
 IR Intens:        4.993                  6.231                  6.877
 Frequency:       961.29                 988.64                1004.07
 Force Cnst:      1.4896                 1.1226                 1.2129
 Red. Mass:       2.7360                 1.9495                 2.0419
 IR Intens:        0.265                  0.551                  4.372
 Frequency:      1049.70                1059.33                1083.35
 Force Cnst:      1.9424                 2.4879                 2.1830
 Red. Mass:       2.9920                 3.7628                 3.1569
 IR Intens:       35.489                 26.071                 58.814
 Frequency:      1121.49                1146.13                1166.56
 Force Cnst:      0.8741                 0.8404                 1.1023
 Red. Mass:       1.1796                 1.0858                 1.3748
 IR Intens:        1.134                  1.576                 64.186
 Frequency:      1170.40                1172.77                1188.80
 Force Cnst:      1.0353                 1.0376                 1.5719
 Red. Mass:       1.2827                 1.2804                 1.8878
 IR Intens:        0.265                  2.150                  5.380
 Frequency:      1200.82                1207.68                1212.23
 Force Cnst:      1.4927                 1.3278                 1.4486
 Red. Mass:       1.7570                 1.5452                 1.6732
 IR Intens:      120.295                 18.705                 85.520
 Frequency:      1239.66                1274.02                1280.90
 Force Cnst:      1.7302                 1.9825                 1.8501
 Red. Mass:       1.9109                 2.0731                 1.9139
 IR Intens:       59.443                171.829                 91.787
 Frequency:      1286.10                1296.92                1320.54
 Force Cnst:      1.5183                 1.2892                 1.7473
 Red. Mass:       1.5580                 1.3009                 1.7006
 IR Intens:       30.033                  6.232                 19.491
 Frequency:      1344.72                1364.11                1380.14
 Force Cnst:      1.4517                 1.8701                 1.8799
 Red. Mass:       1.3626                 1.7058                 1.6751
 IR Intens:       10.479                 14.687                 37.327
 Frequency:      1466.29                1469.85                1482.68
 Force Cnst:      1.5189                 1.5243                 1.3558
 Red. Mass:       1.1990                 1.1975                 1.0468
 IR Intens:       12.620                 15.094                  6.502
 Frequency:      1485.76                1498.10                1501.67
 Force Cnst:      1.3589                 1.3859                 1.3930
 Red. Mass:       1.0449                 1.0481                 1.0484
 IR Intens:        9.269                 14.785                  6.003
 Frequency:      1504.45                1634.46                1776.30
 Force Cnst:      1.4784                 8.9222                19.9470
 Red. Mass:       1.1086                 5.6685                10.7299
 IR Intens:        4.394                  2.244                323.461
 Frequency:      1791.18                3041.16                3046.31
 Force Cnst:     22.1246                 5.8116                 5.8724
 Red. Mass:      11.7043                 1.0665                 1.0740
 IR Intens:      212.551                 31.025                 24.593
 Frequency:      3047.53                3048.64                3101.00
 Force Cnst:      5.6480                 5.6509                 6.1593
 Red. Mass:       1.0322                 1.0319                 1.0871
 IR Intens:       13.818                 46.484                  3.572
 Frequency:      3107.68                3116.42                3118.93
 Force Cnst:      6.2712                 6.2263                 6.3438
 Red. Mass:       1.1021                 1.0881                 1.1068
 IR Intens:       29.681                 35.238                 33.637
 Frequency:      3120.69                3122.10                3154.82
 Force Cnst:      6.3502                 6.2597                 6.4867
 Red. Mass:       1.1067                 1.0900                 1.1062
 IR Intens:        6.598                 21.613                  8.548
 Frequency:      3155.70                3203.94                3234.47
 Force Cnst:      6.4904                 6.5866                 6.8035
 Red. Mass:       1.1062                 1.0890                 1.1038
 IR Intens:       13.868                  5.610                  5.151

 STANDARD THERMODYNAMIC QUANTITIES AT   298.15 K  AND     1.00 ATM

   This Molecule has  0 Imaginary Frequencies
   Zero point vibrational energy:      149.329 kcal/mol

   Atom    1 Element C  Has Mass   12.00000
   Atom    2 Element C  Has Mass   12.00000
   Atom    3 Element C  Has Mass   12.00000
   Atom    4 Element C  Has Mass   12.00000
   Atom    5 Element O  Has Mass   15.99491
   Atom    6 Element O  Has Mass   15.99491
   Atom    7 Element O  Has Mass   15.99491
   Atom    8 Element O  Has Mass   15.99491
   Atom    9 Element C  Has Mass   12.00000
   Atom   10 Element C  Has Mass   12.00000
   Atom   11 Element C  Has Mass   12.00000
   Atom   12 Element C  Has Mass   12.00000
   Atom   13 Element C  Has Mass   12.00000
   Atom   14 Element C  Has Mass   12.00000
   Atom   15 Element C  Has Mass   12.00000
   Atom   16 Element H  Has Mass    1.00783
   Atom   17 Element H  Has Mass    1.00783
   Atom   18 Element H  Has Mass    1.00783
   Atom   19 Element H  Has Mass    1.00783
   Atom   20 Element H  Has Mass    1.00783
   Atom   21 Element H  Has Mass    1.00783
   Atom   22 Element H  Has Mass    1.00783
   Atom   23 Element H  Has Mass    1.00783
   Atom   24 Element H  Has Mass    1.00783
   Atom   25 Element H  Has Mass    1.00783
   Atom   26 Element H  Has Mass    1.00783
   Atom   27 Element H  Has Mass    1.00783
   Atom   28 Element H  Has Mass    1.00783
   Atom   29 Element H  Has Mass    1.00783
   Molecular Mass:   210.089260 amu
   Principal axes and moments of inertia in amu*Bohr^2:
                             1           2           3
    Eigenvalues --     2175.45442  2844.09101  3814.11787
          X               0.99806    -0.06195     0.00683
          Y               0.06131     0.99562     0.07053
          Z              -0.01117    -0.06997     0.99749
   Rotational Symmetry Number is   1
   The Molecule is an Asymmetric Top
   Translational Enthalpy:        0.889 kcal/mol
   Rotational Enthalpy:           0.889 kcal/mol
   Vibrational Enthalpy:        156.345 kcal/mol
   gas constant (RT):             0.592 kcal/mol
   Translational Entropy:        41.931  cal/mol.K
   Rotational Entropy:           31.534  cal/mol.K
   Vibrational Entropy:          44.680  cal/mol.K

   Total Enthalpy:              158.715 kcal/mol
   Total Entropy:               118.145  cal/mol.K

 Total job time:  6361.57s(wall), 21574.02s(cpu)
        *  Thank you very much for using Q-Chem.  Have a nice day.  *
