 Q-Chem 5.0, Q-Chem, Inc., Pleasanton, CA (2017)
 Q-Chem 5.0.1 for Intel X86 EM64T Linux

User input:
--------------------------------------------------------------
$molecule
0 1
C -0.90738955 0.67464636 -0.87064249
C -0.46753047 -0.83732277 -0.95491079
C -0.00120742 1.74366610 -0.28858020
C 0.98680268 -1.19383115 -0.71289038
O 1.24083021 1.32304433 -0.00479102
O -0.37431761 2.87927785 -0.10831932
O 1.25210375 -1.52522058 0.56605665
O 1.81030852 -1.25424683 -1.59459198
C 2.62179140 -1.84589656 0.85542897
C 2.13599038 2.30165787 0.55489353
C -2.24718555 0.59321587 -0.03531621
C -1.83107991 0.24533807 1.38568070
C -1.39838764 -1.01974196 1.37540943
C -1.53845239 -1.54650592 -0.04668440
C -2.79663999 -0.77073768 -0.50505396
H 2.95051515 -2.70312005 0.26585329
H 1.76383989 2.64295015 1.52205914
H -0.92982158 -1.56104610 2.18403874
H 2.64932267 -2.07643234 1.91833389
H 3.26348263 -0.99242929 0.62973968
H 3.08903824 1.79007348 0.66757831
H 2.23393897 3.15575864 -0.11578273
H -1.54748888 -2.62976732 -0.16165892
H -2.87551802 1.47153827 -0.16115721
H -3.69487634 -1.06556956 0.03915713
H -2.98014608 -0.82817563 -1.58231575
H -1.78580207 0.95125921 2.20418323
H -1.14025429 1.02945042 -1.87870281
H -0.63544919 -1.15527918 -1.98553402
$end

$rem
sym_ignore      true
jobtype         ts
method          b3lyp
basis           6-311++G(d,p)
dft_d           d3_op
mem_total       62000
MEM_STATIC      4000
ao2mo_disk      350000
max_scf_cycles  200
geom_opt_max_cycles 1000
geom_opt_tol_displacement 1
GEOM_OPT_TOL_GRADIENT       1
GEOM_OPT_TOL_ENERGY         1
$end

--------------------------------------------------------------

   15    -728.7069852227      3.93E-09 Convergence criterion met
 Total energy in the final basis set = -728.70698522
   12    -728.7064952755      7.45E-09 Convergence criterion met
 Total energy in the final basis set = -728.70649528
   12    -728.7061635408      8.72E-09 Convergence criterion met
 Total energy in the final basis set = -728.70616354
   12    -728.7055716960      6.35E-09 Convergence criterion met
 Total energy in the final basis set = -728.70557170
   13    -728.7058193728      4.94E-09 Convergence criterion met
 Total energy in the final basis set = -728.70581937
   12    -728.7047871487      4.03E-09 Convergence criterion met
 Total energy in the final basis set = -728.70478715
   13    -728.7038131806      3.16E-09 Convergence criterion met
 Total energy in the final basis set = -728.70381318
   13    -728.7049217006      2.58E-09 Convergence criterion met
    8    -728.7070024355      3.90E-09 Convergence criterion met
 Total energy in the final basis set = -728.70700244
    8    -728.7070024610      3.63E-09 Convergence criterion met
 Total energy in the final basis set = -728.70700246
    7    -728.7070023628      6.14E-09 Convergence criterion met
 Total energy in the final basis set = -728.70700236
    8    -728.7070025571      7.69E-09 Convergence criterion met
 Total energy in the final basis set = -728.70700256
    8    -728.7070023942      6.77E-09 Convergence criterion met
 Total energy in the final basis set = -728.70700239
    5    -728.7070023908      6.75E-09 Convergence criterion met
 Total energy in the final basis set = -728.70700239
 Final energy is   -728.707002390802
 **  OPTIMIZATION CONVERGED  **
 Total job time:  1777.30s(wall), 28498.18s(cpu)
        *  Thank you very much for using Q-Chem.  Have a nice day.  *

User input: 2 of 2

r0230.ten.osc.edu 10.25.157
Q-Chem Developer Version! Running on 10.25.157.*
                  Welcome to Q-Chem
     A Quantum Leap Into The Future Of Chemistry

 Q-Chem 5.0, Q-Chem, Inc., Pleasanton, CA (2017)

 Yihan Shao,  Zhengting Gan,  E. Epifanovsky,  A. T. B. Gilbert,  M. Wormit,
 J. Kussmann,  A. W. Lange,  A. Behn,  Jia Deng,  Xintian Feng,  D. Ghosh,
 M. Goldey,  P. R. Horn,  L. D. Jacobson,  I. Kaliman,  T. Kus,  A. Landau,
 Jie Liu,  E. I. Proynov,  R. M. Richard,  R. P. Steele,  E. J. Sundstrom,
 H. L. Woodcock III,  P. M. Zimmerman,  D. Zuev,  B. Albrecht,  E. Alguire,
 S. A. Baeppler,  Z. Benda,  Y. A. Bernard,  E. J. Berquist,  K. B. Bravaya,
 D. Casanova,  Chun-Min Chang,  Yunqing Chen,  A. Chien,  K. D. Closser,
 M. P. Coons,  S. Dasgupta,  M. Diedenhofen,  Hainam Do,  R. G. Edgar,
 Po-Tung Fang,  S. Fatehi,  Qingguo Feng,  Qinghui Ge,  A. Ghysels,
 J. Gomes,  J. Gonthier,  A. Gunina,  M. W. D. Hanson-Heine,
 P. H. P. Harbach,  A. W. Hauser,  J. E. Herr,  E. G. Hohenstein,
 Z. C. Holden,  Kerwin Hui,  T.-C. Jagau,  Hyunjun Ji,  B. Kaduk,
 K. Khistyaev,  Jaehoon Kim,  P. Klunzinger,  K. Koh,  D. Kosenkov,
 T. Kowalczyk,  C. M. Krauter,  A. Kunitsa,  Ka Un Lao,  A. Laurent,
 K. V. Lawler,  Joonho Lee,  D. Lefrancois,  S. Lehtola,  D. S. Levine,
 Yi-Pei Li,  You-Sheng Lin,  Fenglai Liu,  E. Livshits,  A. Luenser,
 P. Manohar,  E. Mansoor,  S. F. Manzer,  Shan-Ping Mao,  Yuezhi Mao,
 N. Mardirossian,  A. V. Marenich,  L. A. Martinez-Martinez,  S. A. Maurer,
 N. J. Mayhall,  S. C. McKenzie,  J.-M. Mewes,  A. F. Morrison,  K. Nanda,
 T. S. Nguyen-Beck,  R. Olivares-Amaya,  J. A. Parkhill,  T. M. Perrine,
 F. Plasser,  S. Prager,  A. Prociuk,  D. R. Rehn,  F. Rob,  M. Schneider,
 N. Sergueev,  S. M. Sharada,  S. Sharma,  D. W. Small,  T. Stauch,
 T. Stein,  Yu-Chuan Su,  A. J. W. Thom,  T. Tsuchimochi,  L. Vogt,
 O. Vydrov,  M. A. Watson,  J. Wenzel,  M. de Wergifosse,  T. A. Wesolowski,
 A. White,  J. Witte,  A. Yamada,  Jun Yang,  K. Yao,  S. Yeganeh,
 S. R. Yost,  Zhi-Qiang You,  A. Zech,  Igor Ying Zhang,  Xing Zhang,
 Yan Zhao,  Ying Zhu,  B. R. Brooks,  G. K. L. Chan,  C. J. Cramer,
 M. S. Gordon,  W. J. Hehre,  A. Klamt,  M. W. Schmidt,  C. D. Sherrill,
 D. G. Truhlar,  A. Aspuru-Guzik,  R. Baer,  A. T. Bell,  N. A. Besley,
 Jeng-Da Chai,  A. Dreuw,  B. D. Dunietz,  T. R. Furlani,  Chao-Ping Hsu,
 Yousung Jung,  Jing Kong,  D. S. Lambrecht,  WanZhen Liang,  C. Ochsenfeld,
 V. A. Rassolov,  L. V. Slipchenko,  J. E. Subotnik,  T. Van Voorhis,
 J. M. Herbert,  A. I. Krylov,  P. M. W. Gill,  M. Head-Gordon

 Contributors to earlier versions of Q-Chem not listed above:
 R. D. Adamson,  B. Austin,  J. Baker,  G. J. O. Beran,  K. Brandhorst,
 S. T. Brown,  E. F. C. Byrd,  A. K. Chakraborty,  C.-L. Cheng,
 Siu Hung Chien,  D. M. Chipman,  D. L. Crittenden,  H. Dachsel,
 R. A. DiStasio Jr.,  R. J. Doerksen,  A. D. Dutoi,  L. Fusti-Molnar,
 W. A. Goddard III,  A. Golubeva-Zadorozhnaya,  S. R. Gwaltney,  G. Hawkins,
 A. Heyden,  S. Hirata,  G. Kedziora,  F. J. Keil,  C. Kelley,  Jihan Kim,
 R. A. King,  R. Z. Khaliullin,  P. P. Korambath,  W. Kurlancheek,
 A. M. Lee,  M. S. Lee,  S. V. Levchenko,  Ching Yeh Lin,  D. Liotard,
 R. C. Lochan,  I. Lotan,  P. E. Maslen,  N. Nair,  D. P. O'Neill,
 D. Neuhauser,  E. Neuscamman,  C. M. Oana,  R. Olson,  B. Peters,
 R. Peverati,  P. A. Pieniazek,  Y. M. Rhee,  J. Ritchie,  M. A. Rohrdanz,
 E. Rosta,  N. J. Russ,  H. F. Schaefer III,  N. E. Schultz,  N. Shenvi,
 A. C. Simmonett,  A. Sodt,  D. Stuck,  K. S. Thanthiriwatte,  V. Vanovschi,
 Tao Wang,  A. Warshel,  C. F. Williams,  Q. Wu,  X. Xu,  W. Zhang

 Please cite Q-Chem as follows:
 Y. Shao et al., Mol. Phys. 113, 184-215 (2015)
 DOI: 10.1080/00268976.2014.952696

 Q-Chem 5.0.1 for Intel X86 EM64T Linux

 Parts of Q-Chem use Armadillo 5.200.1 (Boston Tea Smuggler).
 http://arma.sourceforge.net/

 Q-Chem begins on Mon Oct 23 23:49:23 2017

Host: r0230.ten.osc.edu
0

     Scratch files written to /tmp/pbstmp.1324329/03//
Processing $rem in /users/PAS0291/osu6415/.qchemrc.
molden_format             true
The previous job contains 0 fragments, simply inherited here

Checking the input file for inconsistencies... 	...done.

--------------------------------------------------------------
User input:
--------------------------------------------------------------

$molecule
read
$end

$rem
sym_ignore      true
scf_guess       read
jobtype         freq
method          b3lyp
basis           6-311++G(d,p)
dft_d           d3_op
mem_total       62000
MEM_STATIC      4000
ao2mo_disk      350000
max_scf_cycles  200
$end
--------------------------------------------------------------

             Standard Nuclear Orientation (Angstroms)
    I     Atom           X                Y                Z
 ----------------------------------------------------------------
    1      C      -0.9040959300     0.6781983541    -0.8541045802
    2      C      -0.4654096843    -0.8343920709    -0.9443232676
    3      C      -0.0038535687     1.7346656362    -0.2385438022
    4      C       0.9884802738    -1.1899979797    -0.7018613641
    5      O       1.2663947015     1.3402875420    -0.0628210257
    6      O      -0.4003002554     2.8408517189     0.0450311057
    7      O       1.2468513333    -1.5352411048     0.5754572727
    8      O       1.8203889531    -1.2229181556    -1.5765882092
    9      C       2.6170585358    -1.8476232261     0.8723744449
   10      C       2.1658633771     2.3109104353     0.5040890385
   11      C      -2.2575383591     0.5891210772    -0.0434042185
   12      C      -1.8596003906     0.2380024647     1.3828151869
   13      C      -1.4220977336    -1.0255351120     1.3742873661
   14      C      -1.5432641909    -1.5486475685    -0.0508434766
   15      C      -2.7974441472    -0.7748137492    -0.5235246629
   16      H       2.9639743533    -2.6823556094     0.2615707070
   17      H       1.8498244991     2.5730611902     1.5149378040
   18      H      -0.9636435847    -1.5687461811     2.1875405007
   19      H       2.6346155678    -2.1098081235     1.9282005984
   20      H       3.2499984722    -0.9791928541     0.6816823998
   21      H       3.1400340104     1.8276184338     0.5175320748
   22      H       2.1908008746     3.2108659607    -0.1110181631
   23      H      -1.5467558423    -2.6316387799    -0.1691172117
   24      H      -2.8867096517     1.4661588745    -0.1732324968
   25      H      -3.7020650569    -1.0730373057     0.0080220734
   26      H      -2.9663672568    -0.8305366533    -1.6032701450
   27      H      -1.8286184761     0.9419739441     2.2033543849
   28      H      -1.1115502971     1.0437904120    -1.8643336019
   29      H      -0.6285530167    -1.1444678699    -1.9784282321
 ----------------------------------------------------------------

    2    -728.7070023904      2.90E-09 Convergence criterion met
 Total energy in the final basis set = -728.70700239

                    Orbital Energies (a.u.)
 --------------------------------------------------------------

 Alpha MOs
 -- Occupied --
-19.178 -19.170 -19.115 -19.109 -10.308 -10.302 -10.232 -10.229
-10.208 -10.202 -10.194 -10.193 -10.179 -10.174 -10.171  -1.120
 -1.111  -1.029  -1.022  -0.901  -0.788  -0.764  -0.738  -0.723
 -0.707  -0.640  -0.589  -0.576  -0.570  -0.541  -0.536  -0.523
 -0.501  -0.493  -0.482  -0.477  -0.468  -0.456  -0.442  -0.425
 -0.411  -0.402  -0.400  -0.391  -0.380  -0.368  -0.362  -0.359
 -0.350  -0.345  -0.324  -0.320  -0.308  -0.286  -0.279  -0.254

          Ground-State Mulliken Net Atomic Charges

     Atom                 Charge (a.u.)
  ----------------------------------------
      1 C                     0.225295
      2 C                     0.118897
      3 C                    -0.536067
      4 C                    -0.628494
      5 O                    -0.075311
      6 O                    -0.212171
      7 O                     0.014765
      8 O                    -0.202416
      9 C                    -0.188464
     10 C                    -0.212744
     11 C                     0.195599
     12 C                    -0.264498
     13 C                    -0.525594
     14 C                     0.370654
     15 C                    -0.743677
     16 H                     0.173070
     17 H                     0.190643
     18 H                     0.147134
     19 H                     0.151223
     20 H                     0.171258
     21 H                     0.139701
     22 H                     0.180029
     23 H                     0.264261
     24 H                     0.280488
     25 H                     0.179506
     26 H                     0.125321
     27 H                     0.164360
     28 H                     0.238730
     29 H                     0.258502
  ----------------------------------------
  Sum of atomic charges =    -0.000000

                    Cartesian Multipole Moments
 -----------------------------------------------------------------
    Charge (ESU x 10^10)
                -0.0000
    Dipole Moment (Debye)
         X       0.3736      Y      -1.2833      Z       1.5498
       Tot       2.0466
    Quadrupole Moments (Debye-Ang)
        XX     -83.0977     XY       5.2220     YY     -92.1595
        XZ      10.2049     YZ      -2.4979     ZZ     -89.3958

 Frequency:       -48.28                  66.89                  75.54
 Force Cnst:      0.0079                 0.0098                 0.0111
 Red. Mass:       5.7531                 3.7309                 3.3113
 IR Intens:        2.982                  2.213                  0.025
 Frequency:        94.66                 106.90                 128.56
 Force Cnst:      0.0096                 0.0104                 0.0158
 Red. Mass:       1.8264                 1.5442                 1.6220
 IR Intens:        0.045                  0.870                  1.560
 Frequency:       132.89                 150.39                 176.34
 Force Cnst:      0.0357                 0.0357                 0.0762
 Red. Mass:       3.4292                 2.6761                 4.1596
 IR Intens:        1.062                  0.921                  1.207
 Frequency:       237.10                 244.88                 306.82
 Force Cnst:      0.1714                 0.1721                 0.2314
 Red. Mass:       5.1764                 4.8710                 4.1726
 IR Intens:        1.664                  6.737                  6.525
 Frequency:       324.27                 362.61                 405.90
 Force Cnst:      0.2579                 0.3830                 0.3784
 Red. Mass:       4.1625                 4.9438                 3.8979
 IR Intens:       13.345                  4.729                  0.442
 Frequency:       425.10                 490.45                 541.51
 Force Cnst:      0.5428                 0.3524                 0.6385
 Red. Mass:       5.0985                 2.4865                 3.6959
 IR Intens:        7.415                  1.637                 12.663
 Frequency:       574.84                 675.15                 712.76
 Force Cnst:      0.7023                 0.9792                 1.0928
 Red. Mass:       3.6070                 3.6459                 3.6510
 IR Intens:        3.876                  9.604                  7.952
 Frequency:       737.99                 774.76                 782.01
 Force Cnst:      0.8865                 1.3450                 1.7493
 Red. Mass:       2.7626                 3.8031                 4.8549
 IR Intens:       32.396                  8.762                 10.762
 Frequency:       798.73                 820.84                 851.44
 Force Cnst:      2.0142                 1.6431                 1.1875
 Red. Mass:       5.3586                 4.1391                 2.7802
 IR Intens:        9.441                 11.490                  4.740
 Frequency:       876.01                 903.07                 910.56
 Force Cnst:      1.5876                 1.5752                 1.2852
 Red. Mass:       3.5114                 3.2783                 2.6309
 IR Intens:       12.805                  7.796                 13.435
 Frequency:       929.91                 950.84                 956.13
 Force Cnst:      1.3911                 1.0571                 1.1950
 Red. Mass:       2.7304                 1.9846                 2.2187
 IR Intens:        2.231                  1.993                  1.893
 Frequency:       966.52                 985.52                 998.17
 Force Cnst:      1.2203                 1.3224                 1.1975
 Red. Mass:       2.2172                 2.3110                 2.0399
 IR Intens:        2.984                  1.657                  2.909
 Frequency:      1041.85                1054.09                1085.73
 Force Cnst:      1.7626                 2.8306                 2.4487
 Red. Mass:       2.7561                 4.3238                 3.5257
 IR Intens:       28.326                 29.173                 80.780
 Frequency:      1117.05                1145.55                1167.53
 Force Cnst:      0.8743                 0.8494                 1.0166
 Red. Mass:       1.1892                 1.0986                 1.2658
 IR Intens:        2.766                  5.172                  5.903
 Frequency:      1170.16                1170.92                1187.73
 Force Cnst:      1.0355                 1.0281                 1.5369
 Red. Mass:       1.2836                 1.2728                 1.8492
 IR Intens:        0.950                  2.862                  8.553
 Frequency:      1207.97                1209.16                1244.15
 Force Cnst:      1.2819                 1.3089                 1.3513
 Red. Mass:       1.4911                 1.5195                 1.4816
 IR Intens:        5.966                  4.878                 19.410
 Frequency:      1256.35                1273.18                1280.92
 Force Cnst:      2.8759                 2.7353                 1.7557
 Red. Mass:       3.0924                 2.8640                 1.8162
 IR Intens:       69.646                322.046                 72.134
 Frequency:      1283.79                1296.01                1323.02
 Force Cnst:      1.5987                 1.2957                 1.6611
 Red. Mass:       1.6464                 1.3093                 1.6107
 IR Intens:       85.774                  0.748                 34.113
 Frequency:      1343.70                1362.71                1380.68
 Force Cnst:      1.5311                 1.8184                 1.5841
 Red. Mass:       1.4393                 1.6620                 1.4104
 IR Intens:        3.093                  9.465                 30.891
 Frequency:      1466.90                1470.03                1480.14
 Force Cnst:      1.5255                 1.5336                 1.3483
 Red. Mass:       1.2033                 1.2045                 1.0445
 IR Intens:        6.108                 23.441                  8.844
 Frequency:      1482.01                1496.56                1498.15
 Force Cnst:      1.3535                 1.3811                 1.3842
 Red. Mass:       1.0459                 1.0466                 1.0468
 IR Intens:        5.719                 10.598                  9.568
 Frequency:      1503.48                1633.59                1770.85
 Force Cnst:      1.4780                 8.9397                21.4053
 Red. Mass:       1.1098                 5.6857                11.5854
 IR Intens:        6.223                  1.146                262.018
 Frequency:      1776.96                3044.85                3048.25
 Force Cnst:     20.0564                 5.8054                 5.6362
 Red. Mass:      10.7807                 1.0628                 1.0295
 IR Intens:      298.641                 38.519                 31.261
 Frequency:      3051.24                3052.43                3077.86
 Force Cnst:      5.9399                 5.6539                 6.0490
 Red. Mass:       1.0829                 1.0299                 1.0838
 IR Intens:        9.364                 34.655                 12.807
 Frequency:      3108.41                3111.06                3119.72
 Force Cnst:      6.2605                 6.2287                 6.3451
 Red. Mass:       1.0997                 1.0923                 1.1065
 IR Intens:       27.653                 31.620                 22.869
 Frequency:      3126.84                3139.17                3152.56
 Force Cnst:      6.3769                 6.3267                 6.4778
 Red. Mass:       1.1070                 1.0897                 1.1062
 IR Intens:       15.335                 15.709                 14.119
 Frequency:      3158.55                3206.11                3233.18
 Force Cnst:      6.5033                 6.5905                 6.8052
 Red. Mass:       1.1064                 1.0882                 1.1049
 IR Intens:       12.035                  3.086                  7.866

 STANDARD THERMODYNAMIC QUANTITIES AT   298.15 K  AND     1.00 ATM

   This Molecule has  1 Imaginary Frequencies
   Zero point vibrational energy:      149.086 kcal/mol

   Atom    1 Element C  Has Mass   12.00000
   Atom    2 Element C  Has Mass   12.00000
   Atom    3 Element C  Has Mass   12.00000
   Atom    4 Element C  Has Mass   12.00000
   Atom    5 Element O  Has Mass   15.99491
   Atom    6 Element O  Has Mass   15.99491
   Atom    7 Element O  Has Mass   15.99491
   Atom    8 Element O  Has Mass   15.99491
   Atom    9 Element C  Has Mass   12.00000
   Atom   10 Element C  Has Mass   12.00000
   Atom   11 Element C  Has Mass   12.00000
   Atom   12 Element C  Has Mass   12.00000
   Atom   13 Element C  Has Mass   12.00000
   Atom   14 Element C  Has Mass   12.00000
   Atom   15 Element C  Has Mass   12.00000
   Atom   16 Element H  Has Mass    1.00783
   Atom   17 Element H  Has Mass    1.00783
   Atom   18 Element H  Has Mass    1.00783
   Atom   19 Element H  Has Mass    1.00783
   Atom   20 Element H  Has Mass    1.00783
   Atom   21 Element H  Has Mass    1.00783
   Atom   22 Element H  Has Mass    1.00783
   Atom   23 Element H  Has Mass    1.00783
   Atom   24 Element H  Has Mass    1.00783
   Atom   25 Element H  Has Mass    1.00783
   Atom   26 Element H  Has Mass    1.00783
   Atom   27 Element H  Has Mass    1.00783
   Atom   28 Element H  Has Mass    1.00783
   Atom   29 Element H  Has Mass    1.00783
   Molecular Mass:   210.089260 amu
   Principal axes and moments of inertia in amu*Bohr^2:
                             1           2           3
    Eigenvalues --     2326.87528  2724.19328  3919.73996
          X               0.99055     0.13582     0.01889
          Y              -0.13513     0.99025    -0.03388
          Z              -0.02331     0.03100     0.99925
   Rotational Symmetry Number is   1
   The Molecule is an Asymmetric Top
   Translational Enthalpy:        0.889 kcal/mol
   Rotational Enthalpy:           0.889 kcal/mol
   Vibrational Enthalpy:        155.681 kcal/mol
   gas constant (RT):             0.592 kcal/mol
   Translational Entropy:        41.931  cal/mol.K
   Rotational Entropy:           31.585  cal/mol.K
   Vibrational Entropy:          40.919  cal/mol.K

   Total Enthalpy:              158.051 kcal/mol
   Total Entropy:               114.435  cal/mol.K

 Total job time:  6213.99s(wall), 21302.51s(cpu)
        *  Thank you very much for using Q-Chem.  Have a nice day.  *
