 Q-Chem 5.0, Q-Chem, Inc., Pleasanton, CA (2017)
 Q-Chem 5.0.1 for Intel X86 EM64T Linux

User input:
--------------------------------------------------------------
$molecule
0 1
C -1.12697778 0.38647176 -0.84653846
C -0.20891395 -0.88805554 -0.97389574
C -0.50197458 1.68861360 -0.39498501
C 1.26845154 -0.65379230 -0.72919343
O 0.32658426 1.53653683 0.65725427
O -0.74367638 2.75833231 -0.90091253
O 1.76851976 -1.41288833 0.26389444
O 1.94263157 0.09346750 -1.39762156
C 3.17095318 -1.24089939 0.53768987
C 1.00614701 2.72293126 1.10365630
C -2.28321653 -0.13442658 0.10207970
C -1.68637137 -0.41264369 1.47112495
C -0.90064475 -1.48791967 1.35741796
C -0.95796812 -1.94925975 -0.09106316
C -2.42049544 -1.57737552 -0.43599206
H 3.76619604 -1.48720959 -0.34271558
H 0.28781627 3.49192813 1.39094404
H -0.23893862 -1.90017950 2.10507548
H 3.39284608 -1.92302469 1.35547877
H 3.37387921 -0.20964099 0.83006367
H 1.59869695 2.41152666 1.96135203
H 1.64930107 3.10585661 0.30988469
H -0.64001643 -2.97258107 -0.28423290
H -3.16609085 0.50243181 0.07134291
H -3.14744311 -2.16553620 0.12599669
H -2.65074512 -1.62835633 -1.50478539
H -1.79767873 0.22923931 2.33428524
H -1.56401374 0.61644538 -1.81772828
H -0.25062652 -1.20957377 -2.01899366
$end

$rem
sym_ignore      true
jobtype         opt
method          b3lyp
basis           6-311++G(d,p)
dft_d           d3_op
mem_total       62000
MEM_STATIC      4000
ao2mo_disk      350000
max_scf_cycles  200
geom_opt_max_cycles 1000
geom_opt_tol_displacement 1
GEOM_OPT_TOL_GRADIENT       1
GEOM_OPT_TOL_ENERGY         1
$end

--------------------------------------------------------------

   15    -728.7091536003      4.01E-09 Convergence criterion met
 Total energy in the final basis set = -728.70915360
   11    -728.7091461764      4.66E-09 Convergence criterion met
 Total energy in the final basis set = -728.70914618
   12    -728.7091771990      3.93E-09 Convergence criterion met
 Total energy in the final basis set = -728.70917720
   11    -728.7091504584      8.06E-09 Convergence criterion met
 Total energy in the final basis set = -728.70915046
   11    -728.7091862838      5.65E-09 Convergence criterion met
 Total energy in the final basis set = -728.70918628
   11    -728.7091798068      5.25E-09 Convergence criterion met
 Total energy in the final basis set = -728.70917981
   10    -728.7091901436      6.51E-09 Convergence criterion met
 Total energy in the final basis set = -728.70919014
   10    -728.7091918846      4.15E-09 Convergence criterion met
    6    -728.7091915174      5.39E-09 Convergence criterion met
 Total energy in the final basis set = -728.70919152
    6    -728.7091915169      4.28E-09 Convergence criterion met
 Total energy in the final basis set = -728.70919152
    5    -728.7091915168      7.51E-09 Convergence criterion met
 Total energy in the final basis set = -728.70919152
    5    -728.7091915153      8.37E-09 Convergence criterion met
 Total energy in the final basis set = -728.70919152
    5    -728.7091915153      6.38E-09 Convergence criterion met
 Total energy in the final basis set = -728.70919152
    5    -728.7091915121      6.52E-09 Convergence criterion met
 Total energy in the final basis set = -728.70919151
 Final energy is   -728.709191512107
 **  OPTIMIZATION CONVERGED  **
 Total job time:  965.00s(wall), 15699.85s(cpu)
        *  Thank you very much for using Q-Chem.  Have a nice day.  *

User input: 2 of 2

r0231.ten.osc.edu 10.25.157
Q-Chem Developer Version! Running on 10.25.157.*
                  Welcome to Q-Chem
     A Quantum Leap Into The Future Of Chemistry

 Q-Chem 5.0, Q-Chem, Inc., Pleasanton, CA (2017)

 Yihan Shao,  Zhengting Gan,  E. Epifanovsky,  A. T. B. Gilbert,  M. Wormit,
 J. Kussmann,  A. W. Lange,  A. Behn,  Jia Deng,  Xintian Feng,  D. Ghosh,
 M. Goldey,  P. R. Horn,  L. D. Jacobson,  I. Kaliman,  T. Kus,  A. Landau,
 Jie Liu,  E. I. Proynov,  R. M. Richard,  R. P. Steele,  E. J. Sundstrom,
 H. L. Woodcock III,  P. M. Zimmerman,  D. Zuev,  B. Albrecht,  E. Alguire,
 S. A. Baeppler,  Z. Benda,  Y. A. Bernard,  E. J. Berquist,  K. B. Bravaya,
 D. Casanova,  Chun-Min Chang,  Yunqing Chen,  A. Chien,  K. D. Closser,
 M. P. Coons,  S. Dasgupta,  M. Diedenhofen,  Hainam Do,  R. G. Edgar,
 Po-Tung Fang,  S. Fatehi,  Qingguo Feng,  Qinghui Ge,  A. Ghysels,
 J. Gomes,  J. Gonthier,  A. Gunina,  M. W. D. Hanson-Heine,
 P. H. P. Harbach,  A. W. Hauser,  J. E. Herr,  E. G. Hohenstein,
 Z. C. Holden,  Kerwin Hui,  T.-C. Jagau,  Hyunjun Ji,  B. Kaduk,
 K. Khistyaev,  Jaehoon Kim,  P. Klunzinger,  K. Koh,  D. Kosenkov,
 T. Kowalczyk,  C. M. Krauter,  A. Kunitsa,  Ka Un Lao,  A. Laurent,
 K. V. Lawler,  Joonho Lee,  D. Lefrancois,  S. Lehtola,  D. S. Levine,
 Yi-Pei Li,  You-Sheng Lin,  Fenglai Liu,  E. Livshits,  A. Luenser,
 P. Manohar,  E. Mansoor,  S. F. Manzer,  Shan-Ping Mao,  Yuezhi Mao,
 N. Mardirossian,  A. V. Marenich,  L. A. Martinez-Martinez,  S. A. Maurer,
 N. J. Mayhall,  S. C. McKenzie,  J.-M. Mewes,  A. F. Morrison,  K. Nanda,
 T. S. Nguyen-Beck,  R. Olivares-Amaya,  J. A. Parkhill,  T. M. Perrine,
 F. Plasser,  S. Prager,  A. Prociuk,  D. R. Rehn,  F. Rob,  M. Schneider,
 N. Sergueev,  S. M. Sharada,  S. Sharma,  D. W. Small,  T. Stauch,
 T. Stein,  Yu-Chuan Su,  A. J. W. Thom,  T. Tsuchimochi,  L. Vogt,
 O. Vydrov,  M. A. Watson,  J. Wenzel,  M. de Wergifosse,  T. A. Wesolowski,
 A. White,  J. Witte,  A. Yamada,  Jun Yang,  K. Yao,  S. Yeganeh,
 S. R. Yost,  Zhi-Qiang You,  A. Zech,  Igor Ying Zhang,  Xing Zhang,
 Yan Zhao,  Ying Zhu,  B. R. Brooks,  G. K. L. Chan,  C. J. Cramer,
 M. S. Gordon,  W. J. Hehre,  A. Klamt,  M. W. Schmidt,  C. D. Sherrill,
 D. G. Truhlar,  A. Aspuru-Guzik,  R. Baer,  A. T. Bell,  N. A. Besley,
 Jeng-Da Chai,  A. Dreuw,  B. D. Dunietz,  T. R. Furlani,  Chao-Ping Hsu,
 Yousung Jung,  Jing Kong,  D. S. Lambrecht,  WanZhen Liang,  C. Ochsenfeld,
 V. A. Rassolov,  L. V. Slipchenko,  J. E. Subotnik,  T. Van Voorhis,
 J. M. Herbert,  A. I. Krylov,  P. M. W. Gill,  M. Head-Gordon

 Contributors to earlier versions of Q-Chem not listed above:
 R. D. Adamson,  B. Austin,  J. Baker,  G. J. O. Beran,  K. Brandhorst,
 S. T. Brown,  E. F. C. Byrd,  A. K. Chakraborty,  C.-L. Cheng,
 Siu Hung Chien,  D. M. Chipman,  D. L. Crittenden,  H. Dachsel,
 R. A. DiStasio Jr.,  R. J. Doerksen,  A. D. Dutoi,  L. Fusti-Molnar,
 W. A. Goddard III,  A. Golubeva-Zadorozhnaya,  S. R. Gwaltney,  G. Hawkins,
 A. Heyden,  S. Hirata,  G. Kedziora,  F. J. Keil,  C. Kelley,  Jihan Kim,
 R. A. King,  R. Z. Khaliullin,  P. P. Korambath,  W. Kurlancheek,
 A. M. Lee,  M. S. Lee,  S. V. Levchenko,  Ching Yeh Lin,  D. Liotard,
 R. C. Lochan,  I. Lotan,  P. E. Maslen,  N. Nair,  D. P. O'Neill,
 D. Neuhauser,  E. Neuscamman,  C. M. Oana,  R. Olson,  B. Peters,
 R. Peverati,  P. A. Pieniazek,  Y. M. Rhee,  J. Ritchie,  M. A. Rohrdanz,
 E. Rosta,  N. J. Russ,  H. F. Schaefer III,  N. E. Schultz,  N. Shenvi,
 A. C. Simmonett,  A. Sodt,  D. Stuck,  K. S. Thanthiriwatte,  V. Vanovschi,
 Tao Wang,  A. Warshel,  C. F. Williams,  Q. Wu,  X. Xu,  W. Zhang

 Please cite Q-Chem as follows:
 Y. Shao et al., Mol. Phys. 113, 184-215 (2015)
 DOI: 10.1080/00268976.2014.952696

 Q-Chem 5.0.1 for Intel X86 EM64T Linux

 Parts of Q-Chem use Armadillo 5.200.1 (Boston Tea Smuggler).
 http://arma.sourceforge.net/

 Q-Chem begins on Mon Oct 23 23:35:51 2017

Host: r0231.ten.osc.edu
0

     Scratch files written to /tmp/pbstmp.1324330/04//
Processing $rem in /users/PAS0291/osu6415/.qchemrc.
molden_format             true
The previous job contains 0 fragments, simply inherited here

Checking the input file for inconsistencies... 	...done.

--------------------------------------------------------------
User input:
--------------------------------------------------------------

$molecule
read
$end

$rem
sym_ignore      true
scf_guess       read
jobtype         freq
method          b3lyp
basis           6-311++G(d,p)
dft_d           d3_op
mem_total       62000
MEM_STATIC      4000
ao2mo_disk      350000
max_scf_cycles  200
$end
--------------------------------------------------------------

             Standard Nuclear Orientation (Angstroms)
    I     Atom           X                Y                Z
 ----------------------------------------------------------------
    1      C      -1.1192575240     0.3875879003    -0.8537116865
    2      C      -0.1985023412    -0.8852747249    -0.9578001500
    3      C      -0.5121677952     1.6953214185    -0.3937963157
    4      C       1.2787974251    -0.6511256813    -0.7154139028
    5      O       0.3212535482     1.5492646676     0.6547659735
    6      O      -0.7799559246     2.7655068748    -0.8857659981
    7      O       1.7874528034    -1.4515370328     0.2408216271
    8      O       1.9458799361     0.1269289495    -1.3546686940
    9      C       3.1937906335    -1.2960132150     0.5051600955
   10      C       0.9784959178     2.7439169852     1.1119243943
   11      C      -2.2860279433    -0.1300787300     0.0866802805
   12      C      -1.7012929495    -0.3881857708     1.4654137078
   13      C      -0.9074702201    -1.4596597046     1.3724934817
   14      C      -0.9489803723    -1.9399282173    -0.0698095310
   15      C      -2.4098620648    -1.5803926207    -0.4342309692
   16      H       3.7774538127    -1.5078460084    -0.3918408289
   17      H       0.2460652536     3.4969033715     1.4059249416
   18      H      -0.2492515851    -1.8576007683     2.1311870926
   19      H       3.4223073973    -2.0124612658     1.2911155083
   20      H       3.4048852115    -0.2786197866     0.8375113079
   21      H       1.5770867117     2.4359187386     1.9666308864
   22      H       1.6145716400     3.1458136192     0.3218387703
   23      H      -0.6232088669    -2.9634869942    -0.2471258537
   24      H      -3.1714856426     0.5020418824     0.0391897915
   25      H      -3.1394495933    -2.1650191482     0.1280748518
   26      H      -2.6292027863    -1.6464714493    -1.5044483315
   27      H      -1.8236021187     0.2642700626     2.3191746128
   28      H      -1.5452795538     0.6113521229    -1.8311275547
   29      H      -0.2368120891    -1.2207072250    -1.9992842574
 ----------------------------------------------------------------

    2    -728.7091915142      3.75E-09 Convergence criterion met
 Total energy in the final basis set = -728.70919151

                    Orbital Energies (a.u.)
 --------------------------------------------------------------

 Alpha MOs
 -- Occupied --
-19.177 -19.170 -19.114 -19.111 -10.307 -10.301 -10.232 -10.226
-10.205 -10.203 -10.197 -10.193 -10.181 -10.173 -10.172  -1.117
 -1.110  -1.027  -1.022  -0.901  -0.788  -0.766  -0.737  -0.721
 -0.707  -0.641  -0.587  -0.578  -0.568  -0.540  -0.537  -0.524
 -0.499  -0.491  -0.483  -0.477  -0.463  -0.457  -0.440  -0.423
 -0.409  -0.403  -0.396  -0.388  -0.386  -0.370  -0.363  -0.362
 -0.354  -0.346  -0.323  -0.318  -0.308  -0.285  -0.278  -0.252

          Ground-State Mulliken Net Atomic Charges

     Atom                 Charge (a.u.)
  ----------------------------------------
      1 C                    -0.039901
      2 C                     0.244872
      3 C                    -0.453266
      4 C                    -0.718911
      5 O                    -0.015435
      6 O                    -0.224351
      7 O                     0.002239
      8 O                    -0.190922
      9 C                    -0.177276
     10 C                    -0.234392
     11 C                     0.423237
     12 C                    -0.513891
     13 C                    -0.325720
     14 C                     0.291966
     15 C                    -0.741643
     16 H                     0.174966
     17 H                     0.183029
     18 H                     0.149031
     19 H                     0.152829
     20 H                     0.169395
     21 H                     0.144196
     22 H                     0.205478
     23 H                     0.267444
     24 H                     0.271753
     25 H                     0.175635
     26 H                     0.129742
     27 H                     0.140793
     28 H                     0.263018
     29 H                     0.246086
  ----------------------------------------
  Sum of atomic charges =    -0.000000

                    Cartesian Multipole Moments
 -----------------------------------------------------------------
    Charge (ESU x 10^10)
                -0.0000
    Dipole Moment (Debye)
         X       0.5235      Y      -2.5880      Z       2.3733
       Tot       3.5503
    Quadrupole Moments (Debye-Ang)
        XX     -82.7189     XY       0.7862     YY     -91.7307
        XZ       6.6055     YZ       9.2241     ZZ     -89.1389

 Frequency:        28.04                  52.78                  74.02
 Force Cnst:      0.0027                 0.0076                 0.0130
 Red. Mass:       5.9078                 4.6027                 4.0374
 IR Intens:        0.857                  0.704                  0.352
 Frequency:        79.44                 129.87                 132.27
 Force Cnst:      0.0128                 0.0133                 0.0183
 Red. Mass:       3.4457                 1.3360                 1.7761
 IR Intens:        4.617                  0.036                  0.219
 Frequency:       147.72                 159.29                 187.74
 Force Cnst:      0.0248                 0.0307                 0.0910
 Red. Mass:       1.9316                 2.0558                 4.3825
 IR Intens:        0.925                  0.500                  1.888
 Frequency:       233.09                 256.33                 304.37
 Force Cnst:      0.1747                 0.1783                 0.2225
 Red. Mass:       5.4561                 4.6055                 4.0758
 IR Intens:        1.863                  8.608                  6.345
 Frequency:       320.62                 367.31                 378.33
 Force Cnst:      0.2740                 0.3090                 0.6450
 Red. Mass:       4.5235                 3.8873                 7.6480
 IR Intens:       13.932                  3.896                  4.515
 Frequency:       428.95                 486.78                 539.56
 Force Cnst:      0.3701                 0.4486                 0.4665
 Red. Mass:       3.4142                 3.2132                 2.7199
 IR Intens:        3.335                  6.988                  5.626
 Frequency:       614.79                 672.10                 706.54
 Force Cnst:      0.7978                 1.3523                 1.2086
 Red. Mass:       3.5826                 5.0811                 4.1092
 IR Intens:        2.119                  0.958                  4.113
 Frequency:       729.85                 766.40                 788.18
 Force Cnst:      0.8352                 1.1260                 2.1482
 Red. Mass:       2.6612                 3.2537                 5.8692
 IR Intens:       36.335                 12.507                  9.637
 Frequency:       806.32                 820.67                 844.91
 Force Cnst:      1.6970                 1.5589                 1.4812
 Red. Mass:       4.4301                 3.9284                 3.5216
 IR Intens:       19.601                  6.186                  3.513
 Frequency:       872.51                 894.73                 918.32
 Force Cnst:      1.4251                 1.4169                 1.2808
 Red. Mass:       3.1774                 3.0040                 2.5777
 IR Intens:        5.453                 17.387                  5.912
 Frequency:       932.33                 947.95                 954.64
 Force Cnst:      1.5409                 1.2297                 1.0704
 Red. Mass:       3.0088                 2.3227                 1.9934
 IR Intens:        1.959                  3.037                  3.943
 Frequency:       969.77                 985.56                 996.51
 Force Cnst:      1.3174                 1.3732                 1.1400
 Red. Mass:       2.3776                 2.3995                 1.9484
 IR Intens:        0.692                  2.798                  1.659
 Frequency:      1042.97                1056.08                1083.47
 Force Cnst:      1.4904                 3.6172                 2.5326
 Red. Mass:       2.3254                 5.5046                 3.6617
 IR Intens:       21.531                 39.545                 98.115
 Frequency:      1119.94                1143.31                1168.79
 Force Cnst:      0.8697                 0.8527                 1.0332
 Red. Mass:       1.1768                 1.1072                 1.2836
 IR Intens:        3.236                  5.422                  1.052
 Frequency:      1171.26                1175.64                1186.15
 Force Cnst:      1.0278                 0.9787                 1.4886
 Red. Mass:       1.2716                 1.2019                 1.7958
 IR Intens:        1.719                  5.272                  4.001
 Frequency:      1206.68                1208.10                1236.72
 Force Cnst:      1.2758                 1.2927                 1.6712
 Red. Mass:       1.4871                 1.5032                 1.8545
 IR Intens:        1.602                 13.866                 49.344
 Frequency:      1262.73                1267.15                1283.53
 Force Cnst:      2.3746                 2.3217                 1.4603
 Red. Mass:       2.5276                 2.4541                 1.5045
 IR Intens:       81.339                273.976                 41.692
 Frequency:      1283.68                1298.22                1321.50
 Force Cnst:      1.8243                 1.2967                 1.7517
 Red. Mass:       1.8790                 1.3059                 1.7025
 IR Intens:       96.340                  5.917                 36.603
 Frequency:      1349.49                1360.33                1371.95
 Force Cnst:      1.4725                 1.6561                 1.7909
 Red. Mass:       1.3724                 1.5190                 1.6149
 IR Intens:       18.443                 13.294                  6.364
 Frequency:      1466.65                1467.87                1481.33
 Force Cnst:      1.5245                 1.5179                 1.3506
 Red. Mass:       1.2029                 1.1957                 1.0447
 IR Intens:        9.591                 17.559                  3.712
 Frequency:      1483.81                1495.67                1498.90
 Force Cnst:      1.3547                 1.3787                 1.3880
 Red. Mass:       1.0443                 1.0460                 1.0485
 IR Intens:       13.159                 12.197                  5.592
 Frequency:      1504.34                1635.27                1776.15
 Force Cnst:      1.4759                 8.9553                20.8225
 Red. Mass:       1.1069                 5.6840                11.2027
 IR Intens:        6.101                  1.716                106.182
 Frequency:      1780.73                3041.48                3046.34
 Force Cnst:     20.5529                 5.8179                 5.8921
 Red. Mass:      11.0008                 1.0674                 1.0776
 IR Intens:      472.210                 26.743                 24.823
 Frequency:      3049.50                3050.50                3102.06
 Force Cnst:      5.6388                 5.6439                 6.1647
 Red. Mass:       1.0292                 1.0294                 1.0873
 IR Intens:       27.699                 38.216                  2.711
 Frequency:      3106.96                3116.83                3120.17
 Force Cnst:      6.2657                 6.2245                 6.2543
 Red. Mass:       1.1017                 1.0875                 1.0904
 IR Intens:       29.857                 42.852                 12.852
 Frequency:      3123.69                3124.79                3153.47
 Force Cnst:      6.3637                 6.3700                 6.4830
 Red. Mass:       1.1069                 1.1073                 1.1065
 IR Intens:       21.524                 13.664                 13.225
 Frequency:      3156.50                3204.45                3231.11
 Force Cnst:      6.4953                 6.5811                 6.7975
 Red. Mass:       1.1065                 1.0878                 1.1051
 IR Intens:       13.195                  5.034                  8.705

 STANDARD THERMODYNAMIC QUANTITIES AT   298.15 K  AND     1.00 ATM

   This Molecule has  0 Imaginary Frequencies
   Zero point vibrational energy:      149.168 kcal/mol

   Atom    1 Element C  Has Mass   12.00000
   Atom    2 Element C  Has Mass   12.00000
   Atom    3 Element C  Has Mass   12.00000
   Atom    4 Element C  Has Mass   12.00000
   Atom    5 Element O  Has Mass   15.99491
   Atom    6 Element O  Has Mass   15.99491
   Atom    7 Element O  Has Mass   15.99491
   Atom    8 Element O  Has Mass   15.99491
   Atom    9 Element C  Has Mass   12.00000
   Atom   10 Element C  Has Mass   12.00000
   Atom   11 Element C  Has Mass   12.00000
   Atom   12 Element C  Has Mass   12.00000
   Atom   13 Element C  Has Mass   12.00000
   Atom   14 Element C  Has Mass   12.00000
   Atom   15 Element C  Has Mass   12.00000
   Atom   16 Element H  Has Mass    1.00783
   Atom   17 Element H  Has Mass    1.00783
   Atom   18 Element H  Has Mass    1.00783
   Atom   19 Element H  Has Mass    1.00783
   Atom   20 Element H  Has Mass    1.00783
   Atom   21 Element H  Has Mass    1.00783
   Atom   22 Element H  Has Mass    1.00783
   Atom   23 Element H  Has Mass    1.00783
   Atom   24 Element H  Has Mass    1.00783
   Atom   25 Element H  Has Mass    1.00783
   Atom   26 Element H  Has Mass    1.00783
   Atom   27 Element H  Has Mass    1.00783
   Atom   28 Element H  Has Mass    1.00783
   Atom   29 Element H  Has Mass    1.00783
   Molecular Mass:   210.089260 amu
   Principal axes and moments of inertia in amu*Bohr^2:
                             1           2           3
    Eigenvalues --     2462.24437  2619.71118  3839.36197
          X               0.99807     0.06054     0.01374
          Y              -0.06093     0.99768     0.03049
          Z              -0.01187    -0.03127     0.99944
   Rotational Symmetry Number is   1
   The Molecule is an Asymmetric Top
   Translational Enthalpy:        0.889 kcal/mol
   Rotational Enthalpy:           0.889 kcal/mol
   Vibrational Enthalpy:        156.291 kcal/mol
   gas constant (RT):             0.592 kcal/mol
   Translational Entropy:        41.931  cal/mol.K
   Rotational Entropy:           31.582  cal/mol.K
   Vibrational Entropy:          46.894  cal/mol.K

   Total Enthalpy:              158.661 kcal/mol
   Total Entropy:               120.407  cal/mol.K

 Total job time:  6401.59s(wall), 22788.02s(cpu)
        *  Thank you very much for using Q-Chem.  Have a nice day.  *
