 Q-Chem 5.0, Q-Chem, Inc., Pleasanton, CA (2017)
 Q-Chem 5.0.1 for Intel X86 EM64T Linux

User input:
--------------------------------------------------------------
$molecule
0  1
--
0  1
C        +0.22270000        +1.04488000        +0.58595000
C        +0.62626000        -0.41353000        +0.99871000
C        +1.33008000        +1.39974000        -0.43491000
C        +2.63070000        +1.71700000        +0.32855000
C        +3.04336000        +0.29351000        +0.80300000
C        +1.94423000        -0.59299000        +0.15262000
O        +1.62840000        +0.13663000        -1.04376000
H        +3.37234000        +2.13782000        -0.35195000
H        +2.48236000        +2.42488000        +1.14651000
H        +4.02182000        +0.00994000        +0.41161000
H        +3.07359000        +0.18738000        +1.88928000
H        +1.03270000        +2.19943000        -1.08064000
H        +2.24339000        -1.61496000        +0.04786000
H        +0.81693000        -0.48905000        +2.04887000
H        -0.12524000        -1.15356000        +0.81843000
H        -0.74673000        +1.06811000        +0.13365000
H        +0.15552000        +1.72617000        +1.40828000
--
0  1
C        +3.06714000        +2.70080000        +3.19499000
C        +3.47070000        +1.24239000        +3.60775000
C        +4.17452000        +3.05566000        +2.17413000
C        +5.47514000        +3.37292000        +2.93759000
C        +5.88780000        +1.94943000        +3.41204000
C        +4.78867000        +1.06293000        +2.76166000
O        +4.47284000        +1.79255000        +1.56528000
H        +6.21678000        +3.79374000        +2.25709000
H        +5.32680000        +4.08080000        +3.75555000
H        +6.86626000        +1.66586000        +3.02065000
H        +5.91803000        +1.84330000        +4.49832000
H        +3.87714000        +3.85535000        +1.52840000
H        +5.08783000        +0.04096000        +2.65690000
H        +3.66137000        +1.16687000        +4.65791000
H        +2.71920000        +0.50236000        +3.42747000
H        +2.09771000        +2.72403000        +2.74269000
H        +2.99996000        +3.38209000        +4.01732000
$end

$rem
JOBTYPE                   SP
METHOD                    B3LYP
DFT_D                     d3_op
BASIS                     6-311++G(d,p)
SYMMETRY                  False
THRESH                    12
SCF_CONVERGENCE           8
MAX_SUB_FILE_NUM          128
MEM_STATIC                400
MEM_TOTAL                 4000
$end
--------------------------------------------------------------

             Standard Nuclear Orientation (Angstroms)
    I     Atom           X                Y                Z
 ----------------------------------------------------------------
    1      C       2.7042283964    -0.5816732827     1.1713303753
    2      C       2.7537577474     0.9611903994     0.8932841181
    3      C       2.3500121707    -1.1412244027    -0.2271704767
    4      C       0.8526426616    -0.8975027203    -0.4985037744
    5      C       0.8466103234     0.6410845913    -0.7318009105
    6      C       2.3590844637     0.9868711740    -0.6327213202
    7      O       2.9815695860    -0.2130431057    -1.1186606495
    8      H       0.5412877055    -1.4349864424    -1.3953699582
    9      H       0.2128995305    -1.2174016699     0.3264512546
   10      H       0.4777614693     0.8927407209    -1.7275929390
   11      H       0.2464451462     1.1904150617    -0.0036392096
   12      H       2.6171183016    -2.1731167951    -0.3207578623
   13      H       2.6069958483     1.9077134845    -1.1179876683
   14      H       2.0466521205     1.4943249073     1.4938368416
   15      H       3.6897507349     1.4269260630     1.1211106933
   16      H       3.6511206482    -0.9476584851     1.5095009580
   17      H       2.0140682127    -0.8627128582     1.9391790083
   18      C      -1.4866853438    -0.5218352714     1.4408876349
   19      C      -1.4371559928     1.0210284107     1.1628413776
   20      C      -1.8409015695    -1.0813863914     0.0423867828
   21      C      -3.3382710786    -0.8376647090    -0.2289465148
   22      C      -3.3443034169     0.7009226026    -0.4622436510
   23      C      -1.8318292765     1.0467091852    -0.3631640606
   24      O      -1.2093441542    -0.1532050944    -0.8491033900
   25      H      -3.6496260347    -1.3751484311    -1.1258126987
   26      H      -3.9780142097    -1.1575636586     0.5960085141
   27      H      -3.7131522709     0.9525787322    -1.4580356794
   28      H      -3.9444685940     1.2502530730     0.2659180499
   29      H      -1.5737954387    -2.1132787838    -0.0512006027
   30      H      -1.5839178919     1.9675514957    -0.8484304088
   31      H      -2.1442616197     1.5541629186     1.7633941012
   32      H      -0.5011630053     1.4867640743     1.3906679528
   33      H      -0.5397930920    -0.8878204738     1.7790582175
   34      H      -2.1768455275    -0.8028748470     2.2087362679
 ----------------------------------------------------------------

   13    -619.8526995130      7.64E-09 Convergence criterion met
 Total energy in the final basis set = -619.85269951

                    Orbital Energies (a.u.)
 --------------------------------------------------------------

 Alpha MOs
 -- Occupied --
-19.126 -19.105 -10.231 -10.228 -10.200 -10.197 -10.176 -10.175
-10.175 -10.174 -10.153 -10.152 -10.142 -10.141  -1.067  -1.032
 -0.811  -0.784  -0.763  -0.761  -0.732  -0.729  -0.629  -0.605
 -0.591  -0.585  -0.573  -0.554  -0.536  -0.510  -0.502  -0.484
 -0.454  -0.444  -0.438  -0.416  -0.414  -0.410  -0.392  -0.387
 -0.378  -0.370  -0.358  -0.351  -0.345  -0.343  -0.334  -0.322
 -0.317  -0.308  -0.305  -0.285  -0.267  -0.233

          Ground-State Mulliken Net Atomic Charges

     Atom                 Charge (a.u.)
  ----------------------------------------
      1 C                    -0.338264
      2 C                    -0.340189
      3 C                    -0.272809
      4 C                    -0.110880
      5 C                    -0.168580
      6 C                    -0.280913
      7 O                    -0.123607
      8 H                     0.202468
      9 H                     0.038876
     10 H                     0.189893
     11 H                     0.031252
     12 H                     0.211311
     13 H                     0.209077
     14 H                     0.078507
     15 H                     0.183954
     16 H                     0.176288
     17 H                     0.094899
     18 C                    -0.433088
     19 C                    -0.419739
     20 C                     0.180064
     21 C                    -0.585388
     22 C                    -0.571430
     23 C                     0.212287
     24 O                     0.097848
     25 H                     0.168683
     26 H                     0.128109
     27 H                     0.172847
     28 H                     0.123521
     29 H                     0.232227
     30 H                     0.234961
     31 H                     0.174726
     32 H                     0.175765
     33 H                     0.143119
     34 H                     0.184205
  ----------------------------------------
  Sum of atomic charges =    -0.000000

                    Cartesian Multipole Moments
 -----------------------------------------------------------------
    Charge (ESU x 10^10)
                -0.0000
    Dipole Moment (Debye)
         X      -3.6118      Y       0.4504      Z       2.3965
       Tot       4.3579
    Quadrupole Moments (Debye-Ang)
        XX     -93.2119     XY       0.8756     YY     -81.8371
        XZ       4.0115     YZ      -1.9063     ZZ     -90.7227

 Total job time:  186.20s(wall), 740.75s(cpu)
        *  Thank you very much for using Q-Chem.  Have a nice day.  *
