 Q-Chem 5.0, Q-Chem, Inc., Pleasanton, CA (2017)
 Q-Chem 5.0.1 for Intel X86 EM64T Linux

User input:
--------------------------------------------------------------
$molecule
0  1
--
0  1
C        +0.20238000        +1.04766000        +0.59128000
C        +0.63819000        -0.38392000        +1.03507000
C        +1.32502000        +1.40342000        -0.40773000
C        +2.63024000        +1.71632000        +0.35656000
C        +3.06844000        +0.28546000        +0.80025000
C        +1.92879000        -0.57154000        +0.20725000
O        +1.61715000        +0.12844000        -1.01410000
H        +3.36771000        +2.16806000        -0.30914000
H        +2.46905000        +2.39751000        +1.19495000
H        +4.02649000        +0.00980000        +0.35668000
H        +3.15140000        +0.17666000        +1.88393000
H        +1.05332000        +2.11810000        -1.18255000
H        +2.19020000        -1.60239000        -0.02473000
H        +0.81538000        -0.46660000        +2.10960000
H        -0.10758000        -1.13032000        +0.75591000
H        -0.76622000        +1.02844000        +0.08894000
H        +0.14243000        +1.75630000        +1.41989000
--
0  1
C        +0.24400000        +2.30296000        +4.59908000
C        +0.67981000        +0.87138000        +5.04287000
C        +1.36664000        +2.65872000        +3.60007000
C        +2.67186000        +2.97162000        +4.36436000
C        +3.11006000        +1.54076000        +4.80805000
C        +1.97041000        +0.68376000        +4.21505000
O        +1.65877000        +1.38374000        +2.99370000
H        +3.40933000        +3.42336000        +3.69866000
H        +2.51067000        +3.65281000        +5.20275000
H        +4.06811000        +1.26510000        +4.36448000
H        +3.19302000        +1.43196000        +5.89173000
H        +1.09494000        +3.37340000        +2.82525000
H        +2.23182000        -0.34709000        +3.98307000
H        +0.85700000        +0.78870000        +6.11740000
H        -0.06596000        +0.12498000        +4.76371000
H        -0.72460000        +2.28374000        +4.09674000
H        +0.18405000        +3.01160000        +5.42769000
$end

$rem
JOBTYPE                   SP
METHOD                    B3LYP
DFT_D                     d3_op
BASIS                     6-311++G(d,p)
SYMMETRY                  False
THRESH                    12
SCF_CONVERGENCE           8
MAX_SUB_FILE_NUM          128
MEM_STATIC                400
MEM_TOTAL                 4000
$end
--------------------------------------------------------------

             Standard Nuclear Orientation (Angstroms)
    I     Atom           X                Y                Z
 ----------------------------------------------------------------
    1      C      -1.6360645399    -1.2641714250     0.7815047848
    2      C      -1.6362230646    -1.2659825031    -0.7793596909
    3      C      -2.4718261832     0.0003796675     1.0770039172
    4      C      -1.6360119481     1.2649990318     0.7806978419
    5      C      -1.6360268964     1.2656818544    -0.7801480599
    6      C      -2.4694030331     0.0000654293    -1.0778045765
    7      O      -3.4286804446    -0.0003202196    -0.0014338171
    8      H      -2.1288590737     2.1542761934     1.1774034747
    9      H      -0.6339687014     1.2126681319     1.2120568953
   10      H      -2.1321732012     2.1535264839    -1.1753357890
   11      H      -0.6336597818     1.2158248312    -1.2112589375
   12      H      -3.0002248365     0.0007315112     2.0287019598
   13      H      -2.9963313612    -0.0002950794    -2.0302477706
   14      H      -0.6338419106    -1.2176292844    -1.2103364740
   15      H      -2.1331485341    -2.1534204643    -1.1752575328
   16      H      -2.1307808940    -2.1522971895     1.1782278614
   17      H      -0.6341411314    -1.2111529675     1.2124313573
   18      C       2.5639320147    -1.2643752302     0.7812721994
   19      C       2.5637734900    -1.2661863083    -0.7795922763
   20      C       1.7281703714     0.0001758623     1.0767713318
   21      C       2.5639846065     1.2647952266     0.7804652564
   22      C       2.5639696582     1.2654780493    -0.7803806454
   23      C       1.7305935215    -0.0001383758    -1.0780371619
   24      O       0.7713161100    -0.0005240247    -0.0016664026
   25      H       2.0711374809     2.1540723883     1.1771708892
   26      H       3.5660278532     1.2124643268     1.2118243098
   27      H       2.0678233534     2.1533226787    -1.1755683744
   28      H       3.5663367728     1.2156210261    -1.2114915229
   29      H       1.1997717181     0.0005277060     2.0284693744
   30      H       1.2036651934    -0.0004988845    -2.0304803560
   31      H       3.5661546441    -1.2178330895    -1.2105690595
   32      H       2.0668480205    -2.1536242695    -1.1754901183
   33      H       2.0692156606    -2.1525009947     1.1779952759
   34      H       3.5658554232    -1.2113567727     1.2121987718
 ----------------------------------------------------------------

   13    -619.9298523462      6.36E-09 Convergence criterion met
 Total energy in the final basis set = -619.92985235

                    Orbital Energies (a.u.)
 --------------------------------------------------------------

 Alpha MOs
 -- Occupied --
-19.127 -19.103 -10.230 -10.230 -10.203 -10.203 -10.179 -10.179
-10.179 -10.179 -10.151 -10.151 -10.150 -10.150  -1.061  -1.031
 -0.810  -0.779  -0.761  -0.758  -0.733  -0.729  -0.622  -0.595
 -0.586  -0.583  -0.557  -0.553  -0.538  -0.509  -0.492  -0.480
 -0.458  -0.447  -0.430  -0.417  -0.402  -0.401  -0.391  -0.378
 -0.373  -0.370  -0.356  -0.354  -0.348  -0.344  -0.337  -0.330
 -0.321  -0.316  -0.302  -0.290  -0.276  -0.246

          Ground-State Mulliken Net Atomic Charges

     Atom                 Charge (a.u.)
  ----------------------------------------
      1 C                    -0.230227
      2 C                    -0.236223
      3 C                    -0.205323
      4 C                    -0.230968
      5 C                    -0.234796
      6 C                    -0.206777
      7 O                    -0.160292
      8 H                     0.182898
      9 H                     0.066283
     10 H                     0.183466
     11 H                     0.067791
     12 H                     0.216812
     13 H                     0.216207
     14 H                     0.068035
     15 H                     0.183358
     16 H                     0.183076
     17 H                     0.066031
     18 C                    -0.486565
     19 C                    -0.489968
     20 C                     0.161370
     21 C                    -0.487206
     22 C                    -0.489774
     23 C                     0.163850
     24 O                     0.084322
     25 H                     0.161866
     26 H                     0.137700
     27 H                     0.161738
     28 H                     0.137807
     29 H                     0.208475
     30 H                     0.208088
     31 H                     0.137744
     32 H                     0.161691
     33 H                     0.161752
     34 H                     0.137759
  ----------------------------------------
  Sum of atomic charges =     0.000000

                    Cartesian Multipole Moments
 -----------------------------------------------------------------
    Charge (ESU x 10^10)
                 0.0000
    Dipole Moment (Debye)
         X       4.4990      Y       0.0033      Z       0.0017
       Tot       4.4990
    Quadrupole Moments (Debye-Ang)
        XX     -95.8934     XY       0.0035     YY     -87.6249
        XZ      -0.0080     YZ       0.0056     ZZ     -83.1011

 Total job time:  152.17s(wall), 605.38s(cpu)
        *  Thank you very much for using Q-Chem.  Have a nice day.  *
