 Q-Chem 5.0, Q-Chem, Inc., Pleasanton, CA (2017)
 Q-Chem 5.0.1 for Intel X86 EM64T Linux

User input:
--------------------------------------------------------------
$molecule
0  1
C        +3.87984000        +3.17392000        +3.94043000
C        +4.28340000        +1.71551000        +4.35319000
C        +4.98722000        +3.52878000        +2.91957000
C        +6.28784000        +3.84604000        +3.68303000
C        +6.70050000        +2.42255000        +4.15748000
C        +5.60137000        +1.53605000        +3.50710000
O        +5.28554000        +2.26567000        +2.31072000
H        +7.02948000        +4.26686000        +3.00253000
H        +6.13950000        +4.55392000        +4.50099000
H        +7.67896000        +2.13898000        +3.76609000
H        +6.73073000        +2.31642000        +5.24376000
H        +4.68984000        +4.32847000        +2.27384000
H        +5.90053000        +0.51408000        +3.40234000
H        +4.47407000        +1.63999000        +5.40335000
H        +3.53190000        +0.97548000        +4.17291000
H        +2.91041000        +3.19715000        +3.48813000
H        +3.81266000        +3.85521000        +4.76276000
@C        +0.22270000        +1.04488000        +0.58595000
@C        +0.62626000        -0.41353000        +0.99871000
@C        +1.33008000        +1.39974000        -0.43491000
@C        +2.63070000        +1.71700000        +0.32855000
@C        +3.04336000        +0.29351000        +0.80300000
@C        +1.94423000        -0.59299000        +0.15262000
@O        +1.62840000        +0.13663000        -1.04376000
@H        +3.37234000        +2.13782000        -0.35195000
@H        +2.48236000        +2.42488000        +1.14651000
@H        +4.02182000        +0.00994000        +0.41161000
@H        +3.07359000        +0.18738000        +1.88928000
@H        +1.03270000        +2.19943000        -1.08064000
@H        +2.24339000        -1.61496000        +0.04786000
@H        +0.81693000        -0.48905000        +2.04887000
@H        -0.12524000        -1.15356000        +0.81843000
@H        -0.74673000        +1.06811000        +0.13365000
@H        +0.15552000        +1.72617000        +1.40828000
$end

$rem
JOBTYPE                   SP
METHOD                    B3LYP
DFT_D                     d3_op
BASIS                     6-311++G(d,p)
SYMMETRY                  False
THRESH                    12
SCF_CONVERGENCE           8
MAX_SUB_FILE_NUM          128
MEM_STATIC                400
MEM_TOTAL                 4000
$end
--------------------------------------------------------------

             Standard Nuclear Orientation (Angstroms)
    I     Atom           X                Y                Z
 ----------------------------------------------------------------
    1      C       3.8798400000     3.1739200000     3.9404300000
    2      C       4.2834000000     1.7155100000     4.3531900000
    3      C       4.9872200000     3.5287800000     2.9195700000
    4      C       6.2878400000     3.8460400000     3.6830300000
    5      C       6.7005000000     2.4225500000     4.1574800000
    6      C       5.6013700000     1.5360500000     3.5071000000
    7      O       5.2855400000     2.2656700000     2.3107200000
    8      H       7.0294800000     4.2668600000     3.0025300000
    9      H       6.1395000000     4.5539200000     4.5009900000
   10      H       7.6789600000     2.1389800000     3.7660900000
   11      H       6.7307300000     2.3164200000     5.2437600000
   12      H       4.6898400000     4.3284700000     2.2738400000
   13      H       5.9005300000     0.5140800000     3.4023400000
   14      H       4.4740700000     1.6399900000     5.4033500000
   15      H       3.5319000000     0.9754800000     4.1729100000
   16      H       2.9104100000     3.1971500000     3.4881300000
   17      H       3.8126600000     3.8552100000     4.7627600000
   18      GH      0.2227000000     1.0448800000     0.5859500000
   19      GH      0.6262600000    -0.4135300000     0.9987100000
   20      GH      1.3300800000     1.3997400000    -0.4349100000
   21      GH      2.6307000000     1.7170000000     0.3285500000
   22      GH      3.0433600000     0.2935100000     0.8030000000
   23      GH      1.9442300000    -0.5929900000     0.1526200000
   24      GH      1.6284000000     0.1366300000    -1.0437600000
   25      GH      3.3723400000     2.1378200000    -0.3519500000
   26      GH      2.4823600000     2.4248800000     1.1465100000
   27      GH      4.0218200000     0.0099400000     0.4116100000
   28      GH      3.0735900000     0.1873800000     1.8892800000
   29      GH      1.0327000000     2.1994300000    -1.0806400000
   30      GH      2.2433900000    -1.6149600000     0.0478600000
   31      GH      0.8169300000    -0.4890500000     2.0488700000
   32      GH     -0.1252400000    -1.1535600000     0.8184300000
   33      GH     -0.7467300000     1.0681100000     0.1336500000
   34      GH      0.1555200000     1.7261700000     1.4082800000
 ----------------------------------------------------------------

   12    -309.9598649949      6.23E-09 Convergence criterion met
 Total energy in the final basis set = -309.95986499

                    Orbital Energies (a.u.)
 --------------------------------------------------------------

 Alpha MOs
 -- Occupied --
-19.123 -10.221 -10.218 -10.168 -10.167 -10.165 -10.163  -1.050
 -0.798  -0.749  -0.747  -0.614  -0.578  -0.574  -0.527  -0.478
 -0.465  -0.431  -0.406  -0.395  -0.364  -0.360  -0.351  -0.339
 -0.317  -0.304  -0.264

          Ground-State Mulliken Net Atomic Charges

     Atom                 Charge (a.u.)
  ----------------------------------------
      1 C                    -0.337274
      2 C                    -0.366619
      3 C                     0.125376
      4 C                    -0.576013
      5 C                    -0.503740
      6 C                     0.148647
      7 O                    -0.042797
      8 H                     0.168012
      9 H                     0.125115
     10 H                     0.167785
     11 H                     0.124114
     12 H                     0.218065
     13 H                     0.223148
     14 H                     0.142283
     15 H                     0.139220
     16 H                     0.127186
     17 H                     0.153568
     18 GH                   -0.003816
     19 GH                   -0.001562
     20 GH                   -0.030221
     21 GH                    0.029064
     22 GH                    0.000284
     23 GH                   -0.027439
     24 GH                   -0.000162
     25 GH                    0.003122
     26 GH                   -0.002860
     27 GH                    0.001238
     28 GH                   -0.005629
     29 GH                   -0.000663
     30 GH                   -0.000498
     31 GH                    0.001366
     32 GH                   -0.000140
     33 GH                   -0.000303
     34 GH                    0.002142
  ----------------------------------------
  Sum of atomic charges =     0.000000

                    Cartesian Multipole Moments
 -----------------------------------------------------------------
    Charge (ESU x 10^10)
                 0.0000
    Dipole Moment (Debye)
         X      -0.0122      Y       0.5175      Z       1.7201
       Tot       1.7963
    Quadrupole Moments (Debye-Ang)
        XX     -43.3119     XY       1.8117     YY     -38.4304
        XZ       9.0112     YZ       4.5355     ZZ     -34.6869

 Total job time:  122.89s(wall), 488.44s(cpu)
        *  Thank you very much for using Q-Chem.  Have a nice day.  *
