 Q-Chem 5.0, Q-Chem, Inc., Pleasanton, CA (2017)
 Q-Chem 5.0.1 for Intel X86 EM64T Linux

User input:
--------------------------------------------------------------
$molecule
0  1
--
0  1
C        +0.22270000        +1.04488000        +0.58595000
C        +0.62626000        -0.41353000        +0.99871000
C        +1.33008000        +1.39974000        -0.43491000
C        +2.63070000        +1.71700000        +0.32855000
C        +3.04336000        +0.29351000        +0.80300000
C        +1.94423000        -0.59299000        +0.15262000
O        +1.62840000        +0.13663000        -1.04376000
H        +3.37234000        +2.13782000        -0.35195000
H        +2.48236000        +2.42488000        +1.14651000
H        +4.02182000        +0.00994000        +0.41161000
H        +3.07359000        +0.18738000        +1.88928000
H        +1.03270000        +2.19943000        -1.08064000
H        +2.24339000        -1.61496000        +0.04786000
H        +0.81693000        -0.48905000        +2.04887000
H        -0.12524000        -1.15356000        +0.81843000
H        -0.74673000        +1.06811000        +0.13365000
H        +0.15552000        +1.72617000        +1.40828000
--
0  1
C        +3.87984000        +3.17392000        +3.94043000
C        +4.28340000        +1.71551000        +4.35319000
C        +4.98722000        +3.52878000        +2.91957000
C        +6.28784000        +3.84604000        +3.68303000
C        +6.70050000        +2.42255000        +4.15748000
C        +5.60137000        +1.53605000        +3.50710000
O        +5.28554000        +2.26567000        +2.31072000
H        +7.02948000        +4.26686000        +3.00253000
H        +6.13950000        +4.55392000        +4.50099000
H        +7.67896000        +2.13898000        +3.76609000
H        +6.73073000        +2.31642000        +5.24376000
H        +4.68984000        +4.32847000        +2.27384000
H        +5.90053000        +0.51408000        +3.40234000
H        +4.47407000        +1.63999000        +5.40335000
H        +3.53190000        +0.97548000        +4.17291000
H        +2.91041000        +3.19715000        +3.48813000
H        +3.81266000        +3.85521000        +4.76276000
$end

$rem
JOBTYPE                   SP
METHOD                    B3LYP
DFT_D                     d3_op
BASIS                     6-311++G(d,p)
SYMMETRY                  False
THRESH                    12
SCF_CONVERGENCE           8
MAX_SUB_FILE_NUM          128
MEM_STATIC                400
MEM_TOTAL                 4000
$end
--------------------------------------------------------------

             Standard Nuclear Orientation (Angstroms)
    I     Atom           X                Y                Z
 ----------------------------------------------------------------
    1      C       3.2764761171    -0.5234484805     1.2376234404
    2      C       3.3243000802     1.0076406591     0.9004734225
    3      C       2.9609543181    -1.1396691226    -0.1462440887
    4      C       1.4695800337    -0.9167159055    -0.4644139653
    5      C       1.4607521717     0.6114830370    -0.7580888183
    6      C       2.9682522635     0.9709290249    -0.6347794259
    7      O       3.6096201764    -0.2429275694    -1.0574121346
    8      H       1.1840790218    -1.4909607760    -1.3469849896
    9      H       0.8109745050    -1.2083145020     0.3561751083
   10      H       1.1158168246     0.8214999953    -1.7719401546
   11      H       0.8392443839     1.1849013510    -0.0673637101
   12      H       3.2361780678    -2.1726363902    -0.1924685973
   13      H       3.2231573066     1.8736926314    -1.1494981200
   14      H       2.5992104811     1.5591686185     1.4616831231
   15      H       4.2515746252     1.4881503741     1.1332176198
   16      H       4.2165578457    -0.8696106489     1.6135589994
   17      H       2.5686965729    -0.7787893950     1.9983763435
   18      C      -2.1192402144    -0.4688187019     1.4456648503
   19      C      -2.0714162513     1.0622704377     1.1085148324
   20      C      -2.4347620134    -1.0850393440     0.0617973212
   21      C      -3.9261362978    -0.8620861269    -0.2563725555
   22      C      -3.9349641599     0.6661128156    -0.5500474084
   23      C      -2.4274640681     1.0255588035    -0.4267380161
   24      O      -1.7860961552    -0.1882977908    -0.8493707248
   25      H      -4.2116373098    -1.4363309974    -1.1389435798
   26      H      -4.5847418266    -1.1536847234     0.5642165181
   27      H      -4.2798995070     0.8761297739    -1.5638987447
   28      H      -4.5564719476     1.2395311296     0.1406776998
   29      H      -2.1595382638    -2.1180066116     0.0155728126
   30      H      -2.1725590249     1.9283224100    -0.9414567101
   31      H      -2.7965058505     1.6137983971     1.6697245329
   32      H      -1.1441417064     1.5427801527     1.3412590297
   33      H      -1.1791584858    -0.8149808703     1.8216004093
   34      H      -2.8270197587    -0.7241596164     2.2064177534
 ----------------------------------------------------------------

   13    -619.9222715135      6.39E-09 Convergence criterion met
 Total energy in the final basis set = -619.92227151

                    Orbital Energies (a.u.)
 --------------------------------------------------------------

 Alpha MOs
 -- Occupied --
-19.127 -19.116 -10.225 -10.222 -10.213 -10.210 -10.171 -10.170
-10.169 -10.168 -10.159 -10.158 -10.157 -10.156  -1.054  -1.043
 -0.802  -0.790  -0.753  -0.751  -0.740  -0.740  -0.618  -0.606
 -0.582  -0.578  -0.570  -0.565  -0.531  -0.519  -0.483  -0.471
 -0.468  -0.457  -0.435  -0.423  -0.410  -0.399  -0.397  -0.387
 -0.369  -0.364  -0.356  -0.356  -0.352  -0.343  -0.343  -0.331
 -0.321  -0.309  -0.308  -0.296  -0.269  -0.255

          Ground-State Mulliken Net Atomic Charges

     Atom                 Charge (a.u.)
  ----------------------------------------
      1 C                    -0.455092
      2 C                    -0.437804
      3 C                     0.043514
      4 C                    -0.310625
      5 C                    -0.270098
      6 C                     0.005907
      7 O                    -0.137146
      8 H                     0.193840
      9 H                     0.061709
     10 H                     0.186473
     11 H                     0.050386
     12 H                     0.228009
     13 H                     0.229492
     14 H                     0.102329
     15 H                     0.177062
     16 H                     0.170500
     17 H                     0.110755
     18 C                    -0.323125
     19 C                    -0.363639
     20 C                     0.098509
     21 C                    -0.577280
     22 C                    -0.506897
     23 C                     0.134707
     24 O                    -0.020578
     25 H                     0.169224
     26 H                     0.125762
     27 H                     0.168979
     28 H                     0.124964
     29 H                     0.221779
     30 H                     0.226985
     31 H                     0.142802
     32 H                     0.143154
     33 H                     0.131041
     34 H                     0.154400
  ----------------------------------------
  Sum of atomic charges =    -0.000000

                    Cartesian Multipole Moments
 -----------------------------------------------------------------
    Charge (ESU x 10^10)
                -0.0000
    Dipole Moment (Debye)
         X      -2.8416      Y       0.5366      Z       2.3689
       Tot       3.7382
    Quadrupole Moments (Debye-Ang)
        XX     -92.0829     XY       1.0176     YY     -81.5950
        XZ       3.8320     YZ      -2.3069     ZZ     -90.2722

 Total job time:  141.69s(wall), 564.35s(cpu)
        *  Thank you very much for using Q-Chem.  Have a nice day.  *
