 Q-Chem 5.0, Q-Chem, Inc., Pleasanton, CA (2017)
 Q-Chem 5.0.1 for Intel X86 EM64T Linux

User input:
--------------------------------------------------------------
$molecule
0  1
C        +0.22270000        +1.04488000        +0.58595000
C        +0.62626000        -0.41353000        +0.99871000
C        +1.33008000        +1.39974000        -0.43491000
C        +2.63070000        +1.71700000        +0.32855000
C        +3.04336000        +0.29351000        +0.80300000
C        +1.94423000        -0.59299000        +0.15262000
O        +1.62840000        +0.13663000        -1.04376000
H        +3.37234000        +2.13782000        -0.35195000
H        +2.48236000        +2.42488000        +1.14651000
H        +4.02182000        +0.00994000        +0.41161000
H        +3.07359000        +0.18738000        +1.88928000
H        +1.03270000        +2.19943000        -1.08064000
H        +2.24339000        -1.61496000        +0.04786000
H        +0.81693000        -0.48905000        +2.04887000
H        -0.12524000        -1.15356000        +0.81843000
H        -0.74673000        +1.06811000        +0.13365000
H        +0.15552000        +1.72617000        +1.40828000
@C        +3.06714000        +2.70080000        +3.19499000
@C        +3.47070000        +1.24239000        +3.60775000
@C        +4.17452000        +3.05566000        +2.17413000
@C        +5.47514000        +3.37292000        +2.93759000
@C        +5.88780000        +1.94943000        +3.41204000
@C        +4.78867000        +1.06293000        +2.76166000
@O        +4.47284000        +1.79255000        +1.56528000
@H        +6.21678000        +3.79374000        +2.25709000
@H        +5.32680000        +4.08080000        +3.75555000
@H        +6.86626000        +1.66586000        +3.02065000
@H        +5.91803000        +1.84330000        +4.49832000
@H        +3.87714000        +3.85535000        +1.52840000
@H        +5.08783000        +0.04096000        +2.65690000
@H        +3.66137000        +1.16687000        +4.65791000
@H        +2.71920000        +0.50236000        +3.42747000
@H        +2.09771000        +2.72403000        +2.74269000
@H        +2.99996000        +3.38209000        +4.01732000
$end

$rem
JOBTYPE                   SP
METHOD                    B3LYP
DFT_D                     d3_op
BASIS                     6-311++G(d,p)
SYMMETRY                  False
THRESH                    12
SCF_CONVERGENCE           8
MAX_SUB_FILE_NUM          128
MEM_STATIC                400
MEM_TOTAL                 4000
$end
--------------------------------------------------------------

             Standard Nuclear Orientation (Angstroms)
    I     Atom           X                Y                Z
 ----------------------------------------------------------------
    1      C       0.2227000000     1.0448800000     0.5859500000
    2      C       0.6262600000    -0.4135300000     0.9987100000
    3      C       1.3300800000     1.3997400000    -0.4349100000
    4      C       2.6307000000     1.7170000000     0.3285500000
    5      C       3.0433600000     0.2935100000     0.8030000000
    6      C       1.9442300000    -0.5929900000     0.1526200000
    7      O       1.6284000000     0.1366300000    -1.0437600000
    8      H       3.3723400000     2.1378200000    -0.3519500000
    9      H       2.4823600000     2.4248800000     1.1465100000
   10      H       4.0218200000     0.0099400000     0.4116100000
   11      H       3.0735900000     0.1873800000     1.8892800000
   12      H       1.0327000000     2.1994300000    -1.0806400000
   13      H       2.2433900000    -1.6149600000     0.0478600000
   14      H       0.8169300000    -0.4890500000     2.0488700000
   15      H      -0.1252400000    -1.1535600000     0.8184300000
   16      H      -0.7467300000     1.0681100000     0.1336500000
   17      H       0.1555200000     1.7261700000     1.4082800000
   18      GH      3.0671400000     2.7008000000     3.1949900000
   19      GH      3.4707000000     1.2423900000     3.6077500000
   20      GH      4.1745200000     3.0556600000     2.1741300000
   21      GH      5.4751400000     3.3729200000     2.9375900000
   22      GH      5.8878000000     1.9494300000     3.4120400000
   23      GH      4.7886700000     1.0629300000     2.7616600000
   24      GH      4.4728400000     1.7925500000     1.5652800000
   25      GH      6.2167800000     3.7937400000     2.2570900000
   26      GH      5.3268000000     4.0808000000     3.7555500000
   27      GH      6.8662600000     1.6658600000     3.0206500000
   28      GH      5.9180300000     1.8433000000     4.4983200000
   29      GH      3.8771400000     3.8553500000     1.5284000000
   30      GH      5.0878300000     0.0409600000     2.6569000000
   31      GH      3.6613700000     1.1668700000     4.6579100000
   32      GH      2.7192000000     0.5023600000     3.4274700000
   33      GH      2.0977100000     2.7240300000     2.7426900000
   34      GH      2.9999600000     3.3820900000     4.0173200000
 ----------------------------------------------------------------

   12    -309.9599955877      6.39E-09 Convergence criterion met
 Total energy in the final basis set = -309.95999559

                    Orbital Energies (a.u.)
 --------------------------------------------------------------

 Alpha MOs
 -- Occupied --
-19.123 -10.221 -10.218 -10.168 -10.167 -10.165 -10.163  -1.050
 -0.798  -0.749  -0.747  -0.614  -0.578  -0.574  -0.527  -0.478
 -0.465  -0.431  -0.406  -0.395  -0.364  -0.360  -0.351  -0.339
 -0.317  -0.304  -0.264

          Ground-State Mulliken Net Atomic Charges

     Atom                 Charge (a.u.)
  ----------------------------------------
      1 C                    -0.344910
      2 C                    -0.351583
      3 C                    -0.207822
      4 C                    -0.188344
      5 C                    -0.206704
      6 C                    -0.188679
      7 O                    -0.112971
      8 H                     0.196296
      9 H                     0.054986
     10 H                     0.191610
     11 H                     0.052968
     12 H                     0.227669
     13 H                     0.225662
     14 H                     0.098102
     15 H                     0.190105
     16 H                     0.181557
     17 H                     0.110312
     18 GH                   -0.020690
     19 GH                   -0.015873
     20 GH                    0.011992
     21 GH                    0.005303
     22 GH                    0.001678
     23 GH                    0.012938
     24 GH                    0.039424
     25 GH                   -0.000196
     26 GH                    0.000523
     27 GH                    0.000094
     28 GH                    0.000391
     29 GH                    0.006236
     30 GH                    0.005021
     31 GH                   -0.001444
     32 GH                    0.019566
     33 GH                    0.007277
     34 GH                   -0.000495
  ----------------------------------------
  Sum of atomic charges =     0.000000

                    Cartesian Multipole Moments
 -----------------------------------------------------------------
    Charge (ESU x 10^10)
                 0.0000
    Dipole Moment (Debye)
         X      -0.0151      Y       0.5149      Z       1.7154
       Tot       1.7910
    Quadrupole Moments (Debye-Ang)
        XX     -43.2400     XY      -0.0541     YY     -40.6339
        XZ       2.7820     YZ      -0.8488     ZZ     -46.2113

 Total job time:  166.33s(wall), 661.60s(cpu)
        *  Thank you very much for using Q-Chem.  Have a nice day.  *
