 Q-Chem 5.0, Q-Chem, Inc., Pleasanton, CA (2017)
 Q-Chem 5.0.1 for Intel X86 EM64T Linux

User input:
--------------------------------------------------------------
$molecule
0  1
C        +0.20238000        +1.04766000        +0.59128000
C        +0.63819000        -0.38392000        +1.03507000
C        +1.32502000        +1.40342000        -0.40773000
C        +2.63024000        +1.71632000        +0.35656000
C        +3.06844000        +0.28546000        +0.80025000
C        +1.92879000        -0.57154000        +0.20725000
O        +1.61715000        +0.12844000        -1.01410000
H        +3.36771000        +2.16806000        -0.30914000
H        +2.46905000        +2.39751000        +1.19495000
H        +4.02649000        +0.00980000        +0.35668000
H        +3.15140000        +0.17666000        +1.88393000
H        +1.05332000        +2.11810000        -1.18255000
H        +2.19020000        -1.60239000        -0.02473000
H        +0.81538000        -0.46660000        +2.10960000
H        -0.10758000        -1.13032000        +0.75591000
H        -0.76622000        +1.02844000        +0.08894000
H        +0.14243000        +1.75630000        +1.41989000
@C        +0.24400000        +2.30296000        +4.59908000
@C        +0.67981000        +0.87138000        +5.04287000
@C        +1.36664000        +2.65872000        +3.60007000
@C        +2.67186000        +2.97162000        +4.36436000
@C        +3.11006000        +1.54076000        +4.80805000
@C        +1.97041000        +0.68376000        +4.21505000
@O        +1.65877000        +1.38374000        +2.99370000
@H        +3.40933000        +3.42336000        +3.69866000
@H        +2.51067000        +3.65281000        +5.20275000
@H        +4.06811000        +1.26510000        +4.36448000
@H        +3.19302000        +1.43196000        +5.89173000
@H        +1.09494000        +3.37340000        +2.82525000
@H        +2.23182000        -0.34709000        +3.98307000
@H        +0.85700000        +0.78870000        +6.11740000
@H        -0.06596000        +0.12498000        +4.76371000
@H        -0.72460000        +2.28374000        +4.09674000
@H        +0.18405000        +3.01160000        +5.42769000
$end

$rem
JOBTYPE                   SP
METHOD                    B3LYP
DFT_D                     d3_op
BASIS                     6-311++G(d,p)
SYMMETRY                  False
THRESH                    12
SCF_CONVERGENCE           8
MAX_SUB_FILE_NUM          128
MEM_STATIC                400
MEM_TOTAL                 4000
$end
--------------------------------------------------------------

             Standard Nuclear Orientation (Angstroms)
    I     Atom           X                Y                Z
 ----------------------------------------------------------------
    1      C       0.2023800000     1.0476600000     0.5912800000
    2      C       0.6381900000    -0.3839200000     1.0350700000
    3      C       1.3250200000     1.4034200000    -0.4077300000
    4      C       2.6302400000     1.7163200000     0.3565600000
    5      C       3.0684400000     0.2854600000     0.8002500000
    6      C       1.9287900000    -0.5715400000     0.2072500000
    7      O       1.6171500000     0.1284400000    -1.0141000000
    8      H       3.3677100000     2.1680600000    -0.3091400000
    9      H       2.4690500000     2.3975100000     1.1949500000
   10      H       4.0264900000     0.0098000000     0.3566800000
   11      H       3.1514000000     0.1766600000     1.8839300000
   12      H       1.0533200000     2.1181000000    -1.1825500000
   13      H       2.1902000000    -1.6023900000    -0.0247300000
   14      H       0.8153800000    -0.4666000000     2.1096000000
   15      H      -0.1075800000    -1.1303200000     0.7559100000
   16      H      -0.7662200000     1.0284400000     0.0889400000
   17      H       0.1424300000     1.7563000000     1.4198900000
   18      GH      0.2440000000     2.3029600000     4.5990800000
   19      GH      0.6798100000     0.8713800000     5.0428700000
   20      GH      1.3666400000     2.6587200000     3.6000700000
   21      GH      2.6718600000     2.9716200000     4.3643600000
   22      GH      3.1100600000     1.5407600000     4.8080500000
   23      GH      1.9704100000     0.6837600000     4.2150500000
   24      GH      1.6587700000     1.3837400000     2.9937000000
   25      GH      3.4093300000     3.4233600000     3.6986600000
   26      GH      2.5106700000     3.6528100000     5.2027500000
   27      GH      4.0681100000     1.2651000000     4.3644800000
   28      GH      3.1930200000     1.4319600000     5.8917300000
   29      GH      1.0949400000     3.3734000000     2.8252500000
   30      GH      2.2318200000    -0.3470900000     3.9830700000
   31      GH      0.8570000000     0.7887000000     6.1174000000
   32      GH     -0.0659600000     0.1249800000     4.7637100000
   33      GH     -0.7246000000     2.2837400000     4.0967400000
   34      GH      0.1840500000     3.0116000000     5.4276900000
 ----------------------------------------------------------------

   11    -309.9683333792      9.72E-09 Convergence criterion met
 Total energy in the final basis set = -309.96833338

                    Orbital Energies (a.u.)
 --------------------------------------------------------------

 Alpha MOs
 -- Occupied --
-19.118 -10.219 -10.219 -10.170 -10.170 -10.170 -10.170  -1.046
 -0.798  -0.751  -0.746  -0.612  -0.572  -0.571  -0.524  -0.478
 -0.468  -0.418  -0.408  -0.389  -0.367  -0.361  -0.348  -0.342
 -0.323  -0.306  -0.263

          Ground-State Mulliken Net Atomic Charges

     Atom                 Charge (a.u.)
  ----------------------------------------
      1 C                    -0.266231
      2 C                    -0.272447
      3 C                    -0.187825
      4 C                    -0.268935
      5 C                    -0.271987
      6 C                    -0.188050
      7 O                    -0.154990
      8 H                     0.199277
      9 H                     0.097987
     10 H                     0.199672
     11 H                     0.098478
     12 H                     0.226383
     13 H                     0.225985
     14 H                     0.098195
     15 H                     0.199839
     16 H                     0.199218
     17 H                     0.097175
     18 GH                    0.003663
     19 GH                    0.003484
     20 GH                   -0.043199
     21 GH                    0.003488
     22 GH                    0.003774
     23 GH                   -0.045215
     24 GH                    0.017779
     25 GH                    0.003015
     26 GH                   -0.000443
     27 GH                    0.003016
     28 GH                   -0.000452
     29 GH                    0.007203
     30 GH                    0.006933
     31 GH                   -0.000465
     32 GH                    0.003053
     33 GH                    0.003059
     34 GH                   -0.000437
  ----------------------------------------
  Sum of atomic charges =     0.000000

                    Cartesian Multipole Moments
 -----------------------------------------------------------------
    Charge (ESU x 10^10)
                 0.0000
    Dipole Moment (Debye)
         X       0.0194      Y       0.5283      Z       1.6799
       Tot       1.7611
    Quadrupole Moments (Debye-Ang)
        XX     -43.1082     XY       0.2907     YY     -41.2692
        XZ       2.8861     YZ      -0.7002     ZZ     -45.9349

 Total job time:  123.48s(wall), 491.36s(cpu)
        *  Thank you very much for using Q-Chem.  Have a nice day.  *
