 Q-Chem 5.0, Q-Chem, Inc., Pleasanton, CA (2017)
 Q-Chem 5.0.1 for Intel X86 EM64T Linux

User input:
--------------------------------------------------------------
$molecule
0  1
C        +3.26004000        +2.54196000        +3.07057000
C        +3.66360000        +1.08355000        +3.48333000
C        +4.36742000        +2.89682000        +2.04971000
C        +5.66804000        +3.21408000        +2.81317000
C        +6.08070000        +1.79059000        +3.28762000
C        +4.98157000        +0.90409000        +2.63724000
O        +4.66574000        +1.63371000        +1.44086000
H        +6.40968000        +3.63490000        +2.13267000
H        +5.51970000        +3.92196000        +3.63113000
H        +7.05916000        +1.50702000        +2.89623000
H        +6.11093000        +1.68446000        +4.37390000
H        +4.07004000        +3.69651000        +1.40398000
C        +5.39184000        -0.51559000        +2.31650000
H        +6.29477000        -0.50487000        +1.74247000
H        +4.61685000        -0.99224000        +1.75339000
H        +5.55421000        -1.05421000        +3.22668000
H        +2.29061000        +2.56519000        +2.61827000
H        +3.19286000        +3.22325000        +3.89290000
H        +3.85427000        +1.00803000        +4.53349000
H        +2.91210000        +0.34352000        +3.30305000
@C        +0.22270000        +1.04488000        +0.58595000
@C        +0.62626000        -0.41353000        +0.99871000
@C        +1.33008000        +1.39974000        -0.43491000
@C        +2.63070000        +1.71700000        +0.32855000
@C        +3.04336000        +0.29351000        +0.80300000
@C        +1.94423000        -0.59299000        +0.15262000
@O        +1.62840000        +0.13663000        -1.04376000
@H        +3.37234000        +2.13782000        -0.35195000
@H        +2.48236000        +2.42488000        +1.14651000
@H        +4.02182000        +0.00994000        +0.41161000
@H        +3.07359000        +0.18738000        +1.88928000
@H        +1.03270000        +2.19943000        -1.08064000
@C        +2.35450000        -2.01267000        -0.16812000
@H        +3.25743000        -2.00195000        -0.74215000
@H        +1.57951000        -2.48932000        -0.73123000
@H        +2.51687000        -2.55129000        +0.74206000
@H        -0.74673000        +1.06811000        +0.13365000
@H        +0.15552000        +1.72617000        +1.40828000
@H        +0.81693000        -0.48905000        +2.04887000
@H        -0.12524000        -1.15356000        +0.81843000
$end

$rem
JOBTYPE                   SP
METHOD                    B3LYP
DFT_D                     d3_op
BASIS                     6-311++G(d,p)
SYMMETRY                  False
THRESH                    12
SCF_CONVERGENCE           8
MAX_SUB_FILE_NUM          128
MEM_STATIC                400
MEM_TOTAL                 4000
$end
--------------------------------------------------------------

             Standard Nuclear Orientation (Angstroms)
    I     Atom           X                Y                Z
 ----------------------------------------------------------------
    1      C       3.2600400000     2.5419600000     3.0705700000
    2      C       3.6636000000     1.0835500000     3.4833300000
    3      C       4.3674200000     2.8968200000     2.0497100000
    4      C       5.6680400000     3.2140800000     2.8131700000
    5      C       6.0807000000     1.7905900000     3.2876200000
    6      C       4.9815700000     0.9040900000     2.6372400000
    7      O       4.6657400000     1.6337100000     1.4408600000
    8      H       6.4096800000     3.6349000000     2.1326700000
    9      H       5.5197000000     3.9219600000     3.6311300000
   10      H       7.0591600000     1.5070200000     2.8962300000
   11      H       6.1109300000     1.6844600000     4.3739000000
   12      H       4.0700400000     3.6965100000     1.4039800000
   13      C       5.3918400000    -0.5155900000     2.3165000000
   14      H       6.2947700000    -0.5048700000     1.7424700000
   15      H       4.6168500000    -0.9922400000     1.7533900000
   16      H       5.5542100000    -1.0542100000     3.2266800000
   17      H       2.2906100000     2.5651900000     2.6182700000
   18      H       3.1928600000     3.2232500000     3.8929000000
   19      H       3.8542700000     1.0080300000     4.5334900000
   20      H       2.9121000000     0.3435200000     3.3030500000
   21      GH      0.2227000000     1.0448800000     0.5859500000
   22      GH      0.6262600000    -0.4135300000     0.9987100000
   23      GH      1.3300800000     1.3997400000    -0.4349100000
   24      GH      2.6307000000     1.7170000000     0.3285500000
   25      GH      3.0433600000     0.2935100000     0.8030000000
   26      GH      1.9442300000    -0.5929900000     0.1526200000
   27      GH      1.6284000000     0.1366300000    -1.0437600000
   28      GH      3.3723400000     2.1378200000    -0.3519500000
   29      GH      2.4823600000     2.4248800000     1.1465100000
   30      GH      4.0218200000     0.0099400000     0.4116100000
   31      GH      3.0735900000     0.1873800000     1.8892800000
   32      GH      1.0327000000     2.1994300000    -1.0806400000
   33      GH      2.3545000000    -2.0126700000    -0.1681200000
   34      GH      3.2574300000    -2.0019500000    -0.7421500000
   35      GH      1.5795100000    -2.4893200000    -0.7312300000
   36      GH      2.5168700000    -2.5512900000     0.7420600000
   37      GH     -0.7467300000     1.0681100000     0.1336500000
   38      GH      0.1555200000     1.7261700000     1.4082800000
   39      GH      0.8169300000    -0.4890500000     2.0488700000
   40      GH     -0.1252400000    -1.1535600000     0.8184300000
 ----------------------------------------------------------------

   13    -349.2973898489      2.62E-09 Convergence criterion met
 Total energy in the final basis set = -349.29738985

                    Orbital Energies (a.u.)
 --------------------------------------------------------------

 Alpha MOs
 -- Occupied --
-19.119 -10.225 -10.216 -10.166 -10.166 -10.163 -10.162 -10.154
 -1.049  -0.798  -0.775  -0.748  -0.684  -0.614  -0.575  -0.556
 -0.503  -0.482  -0.464  -0.440  -0.418  -0.405  -0.392  -0.377
 -0.360  -0.348  -0.344  -0.336  -0.316  -0.301  -0.262

          Ground-State Mulliken Net Atomic Charges

     Atom                 Charge (a.u.)
  ----------------------------------------
      1 C                    -0.320838
      2 C                    -0.528154
      3 C                     0.243987
      4 C                    -0.691998
      5 C                    -0.428196
      6 C                     0.478642
      7 O                     0.021596
      8 H                     0.157690
      9 H                     0.128345
     10 H                     0.158740
     11 H                     0.132079
     12 H                     0.225107
     13 C                    -0.483915
     14 H                     0.150889
     15 H                     0.096409
     16 H                     0.151550
     17 H                     0.124996
     18 H                     0.188526
     19 H                     0.181101
     20 H                     0.198805
     21 GH                   -0.012372
     22 GH                   -0.007312
     23 GH                   -0.101869
     24 GH                    0.084808
     25 GH                   -0.013111
     26 GH                   -0.125080
     27 GH                   -0.004452
     28 GH                    0.001986
     29 GH                    0.001949
     30 GH                    0.049079
     31 GH                   -0.085630
     32 GH                   -0.002866
     33 GH                    0.027483
     34 GH                   -0.003796
     35 GH                   -0.000420
     36 GH                    0.007492
     37 GH                   -0.000200
     38 GH                    0.002074
     39 GH                   -0.002687
     40 GH                   -0.000435
  ----------------------------------------
  Sum of atomic charges =     0.000000

                    Cartesian Multipole Moments
 -----------------------------------------------------------------
    Charge (ESU x 10^10)
                 0.0000
    Dipole Moment (Debye)
         X      -0.0108      Y       0.3952      Z       1.5985
       Tot       1.6466
    Quadrupole Moments (Debye-Ang)
        XX     -49.8810     XY       1.1031     YY     -46.4650
        XZ       7.3746     YZ       2.7233     ZZ     -44.6633

 Total job time:  293.27s(wall), 1163.89s(cpu)
        *  Thank you very much for using Q-Chem.  Have a nice day.  *
