 Q-Chem 5.0, Q-Chem, Inc., Pleasanton, CA (2017)
 Q-Chem 5.0.1 for Intel X86 EM64T Linux

User input:
--------------------------------------------------------------
$molecule
0  1
--
0  1
C        +0.22270000        +1.04488000        +0.58595000
C        +0.62626000        -0.41353000        +0.99871000
C        +1.33008000        +1.39974000        -0.43491000
C        +2.63070000        +1.71700000        +0.32855000
C        +3.04336000        +0.29351000        +0.80300000
C        +1.94423000        -0.59299000        +0.15262000
O        +1.62840000        +0.13663000        -1.04376000
H        +3.37234000        +2.13782000        -0.35195000
H        +2.48236000        +2.42488000        +1.14651000
H        +4.02182000        +0.00994000        +0.41161000
H        +3.07359000        +0.18738000        +1.88928000
H        +1.03270000        +2.19943000        -1.08064000
C        +2.35450000        -2.01267000        -0.16812000
H        +3.25743000        -2.00195000        -0.74215000
H        +1.57951000        -2.48932000        -0.73123000
H        +2.51687000        -2.55129000        +0.74206000
H        -0.74673000        +1.06811000        +0.13365000
H        +0.15552000        +1.72617000        +1.40828000
H        +0.81693000        -0.48905000        +2.04887000
H        -0.12524000        -1.15356000        +0.81843000
--
0  1
C        +3.26004000        +2.54196000        +3.07057000
C        +3.66360000        +1.08355000        +3.48333000
C        +4.36742000        +2.89682000        +2.04971000
C        +5.66804000        +3.21408000        +2.81317000
C        +6.08070000        +1.79059000        +3.28762000
C        +4.98157000        +0.90409000        +2.63724000
O        +4.66574000        +1.63371000        +1.44086000
H        +6.40968000        +3.63490000        +2.13267000
H        +5.51970000        +3.92196000        +3.63113000
H        +7.05916000        +1.50702000        +2.89623000
H        +6.11093000        +1.68446000        +4.37390000
H        +4.07004000        +3.69651000        +1.40398000
C        +5.39184000        -0.51559000        +2.31650000
H        +6.29477000        -0.50487000        +1.74247000
H        +4.61685000        -0.99224000        +1.75339000
H        +5.55421000        -1.05421000        +3.22668000
H        +2.29061000        +2.56519000        +2.61827000
H        +3.19286000        +3.22325000        +3.89290000
H        +3.85427000        +1.00803000        +4.53349000
H        +2.91210000        +0.34352000        +3.30305000
$end

$rem
JOBTYPE                   SP
METHOD                    B3LYP
DFT_D                     d3_op
BASIS                     6-311++G(d,p)
SYMMETRY                  False
THRESH                    12
SCF_CONVERGENCE           8
MAX_SUB_FILE_NUM          128
MEM_STATIC                400
MEM_TOTAL                 4000
$end
--------------------------------------------------------------

             Standard Nuclear Orientation (Angstroms)
    I     Atom           X                Y                Z
 ----------------------------------------------------------------
    1      C       2.6276358764    -1.5439808871     0.7667589603
    2      C       2.6924518891    -0.0574696046     1.2630192860
    3      C       2.2318787091    -1.3620163388    -0.7180428418
    4      C       0.7320343964    -1.0164845244    -0.7968607731
    5      C       0.7423278069     0.4448162950    -0.2618758956
    6      C       2.2615283376     0.6990001004    -0.0512019963
    7      O       2.8549454718    -0.1201434294    -1.0711426907
    8      H       0.3915240557    -1.0563567834    -1.8325549958
    9      H       0.1078578554    -1.6929792234    -0.2095652943
   10      H       0.3532179272     1.1445276010    -1.0034820164
   11      H       0.1677792266     0.5770186466     0.6571443083
   12      H       2.4819070017    -2.2221107465    -1.3033885996
   13      C       2.7076635982     2.1380314129    -0.1809676849
   14      H       2.3555706324     2.5383232815    -1.1087095173
   15      H       3.7763787208     2.1838022525    -0.1554605962
   16      H       2.3067207216     2.7102147901     0.6294360085
   17      H       3.5770854669    -2.0283439928     0.8608190720
   18      H       1.9522402457    -2.1589019551     1.3240817281
   19      H       2.0076988641     0.1219743439     2.0653954503
   20      H       3.6402105035     0.2405348919     1.6603157220
   21      C      -1.5636827907    -1.3893981255     0.9880536676
   22      C      -1.4988667780     0.0971131569     1.4843139934
   23      C      -1.9594399579    -1.2074335772    -0.4967481344
   24      C      -3.4592842707    -0.8619017628    -0.5755660658
   25      C      -3.4489908601     0.5993990566    -0.0405811883
   26      C      -1.9297903294     0.8535828620     0.1700927111
   27      O      -1.3363731953     0.0344393322    -0.8498479833
   28      H      -3.7997946113    -0.9017740219    -1.6112602885
   29      H      -4.0834608116    -1.5383964619     0.0117294131
   30      H      -3.8381007399     1.2991103626    -0.7821873090
   31      H      -4.0235394404     0.7316014081     0.8784390157
   32      H      -1.7094116654    -2.0675279849    -1.0820938922
   33      C      -1.4836550689     2.2926141745     0.0403270225
   34      H      -1.8357480346     2.6929060430    -0.8874148099
   35      H      -0.4149399462     2.3383850140     0.0658341112
   36      H      -1.8845979455     2.8647975517     0.8507307158
   37      H      -0.6142332001    -1.8737612313     1.0821137794
   38      H      -2.2390784214    -2.0043191936     1.5453764354
   39      H      -2.1836198029     0.2765571055     2.2866901577
   40      H      -0.5511081635     0.3951176535     1.8816104294
 ----------------------------------------------------------------

   13    -698.5088772831      8.03E-09 Convergence criterion met
 Total energy in the final basis set = -698.50887728

                    Orbital Energies (a.u.)
 --------------------------------------------------------------

 Alpha MOs
 -- Occupied --
-19.122 -19.102 -10.235 -10.225 -10.204 -10.198 -10.174 -10.174
-10.173 -10.172 -10.158 -10.153 -10.152 -10.144 -10.140 -10.136
 -1.065  -1.032  -0.811  -0.791  -0.787  -0.763  -0.760  -0.732
 -0.693  -0.672  -0.633  -0.605  -0.585  -0.575  -0.558  -0.547
 -0.515  -0.504  -0.492  -0.485  -0.458  -0.451  -0.441  -0.431
 -0.426  -0.419  -0.416  -0.398  -0.393  -0.386  -0.380  -0.375
 -0.363  -0.356  -0.354  -0.348  -0.339  -0.333  -0.323  -0.323
 -0.316  -0.304  -0.297  -0.282  -0.266  -0.233

          Ground-State Mulliken Net Atomic Charges

     Atom                 Charge (a.u.)
  ----------------------------------------
      1 C                    -0.503617
      2 C                    -0.104747
      3 C                    -0.073129
      4 C                    -0.069244
      5 C                    -0.163107
      6 C                    -0.336936
      7 O                    -0.016500
      8 H                     0.197078
      9 H                     0.057483
     10 H                     0.215120
     11 H                    -0.168392
     12 H                     0.230131
     13 C                    -0.584364
     14 H                     0.149060
     15 H                     0.164256
     16 H                     0.150724
     17 H                     0.174420
     18 H                     0.109253
     19 H                     0.104902
     20 H                     0.171639
     21 C                    -0.417218
     22 C                    -0.432361
     23 C                     0.177372
     24 C                    -0.665955
     25 C                    -0.465333
     26 C                     0.403628
     27 O                     0.151194
     28 H                     0.161476
     29 H                     0.131328
     30 H                     0.162109
     31 H                     0.133150
     32 H                     0.242385
     33 C                    -0.489558
     34 H                     0.163341
     35 H                     0.133535
     36 H                     0.148852
     37 H                     0.128179
     38 H                     0.191092
     39 H                     0.181753
     40 H                     0.257000
  ----------------------------------------
  Sum of atomic charges =     0.000000

                    Cartesian Multipole Moments
 -----------------------------------------------------------------
    Charge (ESU x 10^10)
                 0.0000
    Dipole Moment (Debye)
         X      -3.3255      Y      -0.5877      Z       2.2668
       Tot       4.0673
    Quadrupole Moments (Debye-Ang)
        XX    -105.3451     XY       0.2771     YY     -95.9434
        XZ       3.5853     YZ       1.4057     ZZ    -103.4138

 Total job time:  304.79s(wall), 1210.31s(cpu)
        *  Thank you very much for using Q-Chem.  Have a nice day.  *
