 Q-Chem 5.0, Q-Chem, Inc., Pleasanton, CA (2017)
 Q-Chem 5.0.1 for Intel X86 EM64T Linux

User input:
--------------------------------------------------------------
$molecule
0  1
--
0  1
C        +0.22270000        +1.04488000        +0.58595000
C        +0.62626000        -0.41353000        +0.99871000
C        +1.33008000        +1.39974000        -0.43491000
C        +2.63070000        +1.71700000        +0.32855000
C        +3.04336000        +0.29351000        +0.80300000
C        +1.94423000        -0.59299000        +0.15262000
O        +1.62840000        +0.13663000        -1.04376000
H        +3.37234000        +2.13782000        -0.35195000
H        +2.48236000        +2.42488000        +1.14651000
H        +4.02182000        +0.00994000        +0.41161000
H        +3.07359000        +0.18738000        +1.88928000
H        +1.03270000        +2.19943000        -1.08064000
C        +2.35450000        -2.01267000        -0.16812000
H        +3.25743000        -2.00195000        -0.74215000
H        +1.57951000        -2.48932000        -0.73123000
H        +2.51687000        -2.55129000        +0.74206000
H        -0.74673000        +1.06811000        +0.13365000
H        +0.15552000        +1.72617000        +1.40828000
H        +0.81693000        -0.48905000        +2.04887000
H        -0.12524000        -1.15356000        +0.81843000
--
0  1
C        +4.12785000        +2.96970000        +3.78046000
C        +4.53141000        +1.51129000        +4.19322000
C        +5.23523000        +3.32456000        +2.75960000
C        +6.53585000        +3.64182000        +3.52306000
C        +6.94851000        +2.21833000        +3.99751000
C        +5.84938000        +1.33183000        +3.34713000
O        +5.53355000        +2.06145000        +2.15075000
H        +7.27749000        +4.06264000        +2.84256000
H        +6.38751000        +4.34970000        +4.34102000
H        +7.92697000        +1.93476000        +3.60612000
H        +6.97874000        +2.11220000        +5.08379000
H        +4.93785000        +4.12425000        +2.11387000
C        +6.25965000        -0.08785000        +3.02639000
H        +7.16258000        -0.07713000        +2.45236000
H        +5.48466000        -0.56450000        +2.46328000
H        +6.42202000        -0.62647000        +3.93657000
H        +3.15842000        +2.99293000        +3.32816000
H        +4.06067000        +3.65099000        +4.60279000
H        +4.72208000        +1.43577000        +5.24338000
H        +3.77991000        +0.77126000        +4.01294000
$end

$rem
JOBTYPE                   SP
METHOD                    B3LYP
DFT_D                     d3_op
BASIS                     6-311++G(d,p)
SYMMETRY                  False
THRESH                    12
SCF_CONVERGENCE           8
MAX_SUB_FILE_NUM          128
MEM_STATIC                400
MEM_TOTAL                 4000
$end
--------------------------------------------------------------

             Standard Nuclear Orientation (Angstroms)
    I     Atom           X                Y                Z
 ----------------------------------------------------------------
    1      C       3.2356580401    -1.5104380000     0.8072871408
    2      C       3.2660602903    -0.0212849307     1.2989069724
    3      C       2.8675991308    -1.3403266017    -0.6860199191
    4      C       1.3642678878    -1.0196505806    -0.7969231513
    5      C       1.3397804583     0.4435438060    -0.2676052778
    6      C       2.8499915969     0.7232915247    -0.0268425684
    7      O       3.4775016169    -0.0897143319    -1.0311690539
    8      H       1.0458143593    -1.0688212953    -1.8392135153
    9      H       0.7392412923    -1.7041371117    -0.2198812506
   10      H       0.9546633475     1.1341193690    -1.0197836153
   11      H       0.7443856380     0.5696491900     0.6389178097
   12      H       3.1435707065    -2.1983241950    -1.2627226264
   13      C       3.2752239586     2.1689474101    -0.1531098341
   14      H       2.9358098659     2.5600792092    -1.0894441407
   15      H       4.3423025242     2.2322777355    -0.1058848462
   16      H       2.8484482618     2.7374187901     0.6466438457
   17      H       4.1907296104    -1.9788700119     0.9226959520
   18      H       2.5590441367    -2.1343051180     1.3530703305
   19      H       2.5621280227     0.1498327168     2.0863664687
   20      H       4.2004764361     0.2936073515     1.7143667735
   21      C      -2.1604101958    -1.3988027659     0.9805149173
   22      C      -2.1300079456     0.0903503034     1.4721347489
   23      C      -2.5284691051    -1.2286913675    -0.5127921426
   24      C      -4.0318003481    -0.9080153464    -0.6236953748
   25      C      -4.0562877776     0.5551790401    -0.0943775014
   26      C      -2.5460766391     0.8349267588     0.1463852081
   27      O      -1.9185666190     0.0219209022    -0.8579412775
   28      H      -4.3502538766    -0.9571860611    -1.6659857388
   29      H      -4.6568269437    -1.5925018776    -0.0466534741
   30      H      -4.4414048884     1.2457546032    -0.8465558388
   31      H      -4.6516825979     0.6812844241     0.8121455862
   32      H      -2.2524975294    -2.0866889609    -1.0894948499
   33      C      -2.1208442773     2.2805826442     0.0201179424
   34      H      -2.4602583701     2.6717144433    -0.9162163642
   35      H      -1.0537657118     2.3439129696     0.0673429303
   36      H      -2.5476199742     2.8490540242     0.8198716222
   37      H      -1.2053386255    -1.8672347778     1.0959237285
   38      H      -2.8370240993    -2.0226698838     1.5262981070
   39      H      -2.8339402132     0.2614679509     2.2595942451
   40      H      -1.1955917998     0.4052425857     1.8875945499
 ----------------------------------------------------------------

   13    -698.5960978500      6.07E-09 Convergence criterion met
 Total energy in the final basis set = -698.59609785

                    Orbital Energies (a.u.)
 --------------------------------------------------------------

 Alpha MOs
 -- Occupied --
-19.122 -19.113 -10.229 -10.219 -10.219 -10.210 -10.169 -10.169
-10.167 -10.166 -10.159 -10.158 -10.157 -10.157 -10.157 -10.150
 -1.053  -1.043  -0.802  -0.792  -0.778  -0.770  -0.752  -0.741
 -0.687  -0.678  -0.618  -0.608  -0.579  -0.569  -0.560  -0.549
 -0.506  -0.497  -0.486  -0.475  -0.468  -0.457  -0.444  -0.435
 -0.421  -0.413  -0.409  -0.398  -0.396  -0.386  -0.381  -0.372
 -0.364  -0.354  -0.351  -0.347  -0.343  -0.339  -0.337  -0.330
 -0.319  -0.310  -0.304  -0.294  -0.266  -0.255

          Ground-State Mulliken Net Atomic Charges

     Atom                 Charge (a.u.)
  ----------------------------------------
      1 C                    -0.669328
      2 C                    -0.228221
      3 C                     0.352365
      4 C                    -0.523963
      5 C                    -0.088880
      6 C                    -0.080755
      7 O                    -0.061653
      8 H                     0.197689
      9 H                     0.057818
     10 H                     0.180960
     11 H                    -0.013119
     12 H                     0.250394
     13 C                    -0.478749
     14 H                     0.147174
     15 H                     0.160756
     16 H                     0.141938
     17 H                     0.170800
     18 H                     0.114411
     19 H                     0.130868
     20 H                     0.168662
     21 C                    -0.390881
     22 C                    -0.343772
     23 C                     0.179379
     24 C                    -0.681366
     25 C                    -0.432231
     26 C                     0.203238
     27 O                     0.007301
     28 H                     0.165048
     29 H                     0.128364
     30 H                     0.155116
     31 H                     0.139469
     32 H                     0.234340
     33 C                    -0.349340
     34 H                     0.157908
     35 H                     0.144449
     36 H                     0.138952
     37 H                     0.126622
     38 H                     0.161252
     39 H                     0.157674
     40 H                     0.169311
  ----------------------------------------
  Sum of atomic charges =     0.000000

                    Cartesian Multipole Moments
 -----------------------------------------------------------------
    Charge (ESU x 10^10)
                 0.0000
    Dipole Moment (Debye)
         X      -2.4895      Y      -0.6231      Z       2.2514
       Tot       3.4139
    Quadrupole Moments (Debye-Ang)
        XX    -104.1170     XY      -0.1195     YY     -95.4209
        XZ       3.3319     YZ       1.5683     ZZ    -103.1624

 Total job time:  222.99s(wall), 886.39s(cpu)
        *  Thank you very much for using Q-Chem.  Have a nice day.  *
