 Q-Chem 5.0, Q-Chem, Inc., Pleasanton, CA (2017)
 Q-Chem 5.0.1 for Intel X86 EM64T Linux

User input:
--------------------------------------------------------------
$molecule
0  1
--
0  1
C        +0.20553000        +1.04146000        +0.58269000
C        +0.65000000        -0.38925000        +1.00740000
C        +1.32948000        +1.41743000        -0.40725000
C        +2.62919000        +1.72756000        +0.36622000
C        +3.06783000        +0.29650000        +0.79479000
C        +1.94651000        -0.57906000        +0.17708000
O        +1.63056000        +0.15702000        -1.03120000
H        +3.36767000        +2.18673000        -0.29348000
H        +2.46319000        +2.40269000        +1.20873000
H        +4.03298000        +0.02999000        +0.35944000
H        +3.13919000        +0.17160000        +1.87760000
H        +1.05575000        +2.14422000        -1.17046000
C        +2.32428000        -2.00466000        -0.15206000
H        +3.19961000        -2.02906000        -0.80581000
H        +1.50021000        -2.51513000        -0.65630000
H        +2.56254000        -2.55434000        +0.76296000
H        -0.76025000        +1.02051000        +0.07473000
H        +0.13481000        +1.74083000        +1.41846000
H        +0.82947000        -0.48542000        +2.08050000
H        -0.09122000        -1.13848000        +0.72072000
--
0  1
C        +0.22085000        +2.24588000        +4.60626000
C        +0.66532000        +0.81517000        +5.03097000
C        +1.34480000        +2.62185000        +3.61632000
C        +2.64451000        +2.93198000        +4.38979000
C        +3.08315000        +1.50092000        +4.81836000
C        +1.96183000        +0.62536000        +4.20065000
O        +1.64588000        +1.36144000        +2.99237000
H        +3.38299000        +3.39115000        +3.73009000
H        +2.47851000        +3.60711000        +5.23230000
H        +4.04830000        +1.23441000        +4.38301000
H        +3.15451000        +1.37602000        +5.90117000
H        +1.07107000        +3.34864000        +2.85311000
C        +2.33960000        -0.80024000        +3.87151000
H        +3.21493000        -0.82464000        +3.21776000
H        +1.51553000        -1.31071000        +3.36727000
H        +2.57786000        -1.34992000        +4.78653000
H        -0.74493000        +2.22493000        +4.09830000
H        +0.15013000        +2.94525000        +5.44203000
H        +0.84479000        +0.71900000        +6.10407000
H        -0.07590000        +0.06594000        +4.74429000
$end

$rem
JOBTYPE                   SP
METHOD                    B3LYP
DFT_D                     d3_op
BASIS                     6-311++G(d,p)
SYMMETRY                  False
THRESH                    12
SCF_CONVERGENCE           8
MAX_SUB_FILE_NUM          128
MEM_STATIC                400
MEM_TOTAL                 4000
$end
--------------------------------------------------------------

             Standard Nuclear Orientation (Angstroms)
    I     Atom           X                Y                Z
 ----------------------------------------------------------------
    1      C       1.3674179199     1.2509132227    -1.2627798218
    2      C       1.5159574619    -0.2991833136    -1.2628196498
    3      C       2.1722970805     1.6239773687     0.0011786137
    4      C       1.3694560732     1.2486585233     1.2654035238
    5      C       1.5144083080    -0.3014905817     1.2593520850
    6      C       2.3872351291    -0.5351742403    -0.0012409453
    7      O       3.2272139886     0.6463560169    -0.0005378822
    8      H       1.8279688916     1.6853796892     2.1544673618
    9      H       0.3326281371     1.5891965154     1.2184852566
   10      H       2.0400050947    -0.6545942437     2.1488112166
   11      H       0.5577744344    -0.8255798406     1.2014570394
   12      H       2.6037247733     2.6237328163     0.0018941742
   13      C       3.2318349357    -1.7881814630     0.0004140911
   14      H       3.8679228352    -1.8216401835     0.8883666402
   15      H       3.8704613874    -1.8236681599    -0.8854899177
   16      H       2.5928205360    -2.6757837108     0.0010281832
   17      H       1.8240731971     1.6914595187    -2.1507990734
   18      H       0.3300442455     1.5882958421    -1.2112042851
   19      H       0.5601620227    -0.8250165606    -1.2084483843
   20      H       2.0434636193    -0.6490544027    -2.1529126666
   21      C      -2.8138853876     0.8550844320    -1.2627282046
   22      C      -2.6653458456    -0.6950121043    -1.2627680327
   23      C      -2.0090062270     1.2281485780     0.0012302309
   24      C      -2.8118472343     0.8528297326     1.2654551409
   25      C      -2.6668949995    -0.6973193724     1.2594037022
   26      C      -1.7940681784    -0.9310030310    -0.0011893281
   27      O      -0.9540893189     0.2505272262    -0.0004862650
   28      H      -2.3533344159     1.2895508985     2.1545189789
   29      H      -3.8486751705     1.1933677247     1.2185368738
   30      H      -2.1412982128    -1.0504230344     2.1488628338
   31      H      -3.6235288731    -1.2214086313     1.2015086565
   32      H      -1.5775785343     2.2279040256     0.0019457914
   33      C      -0.9494683719    -2.1840102537     0.0004657083
   34      H      -0.3133804723    -2.2174689742     0.8884182574
   35      H      -0.3108419201    -2.2194969506    -0.8854383005
   36      H      -1.5884827715    -3.0716125015     0.0010798003
   37      H      -2.3572301104     1.2956307280    -2.1507474563
   38      H      -3.8512590621     1.1924670514    -1.2111526680
   39      H      -3.6211412848    -1.2208453513    -1.2083967672
   40      H      -2.1378396882    -1.0448831934    -2.1528610495
 ----------------------------------------------------------------

   13    -698.5904829382      6.66E-09 Convergence criterion met
 Total energy in the final basis set = -698.59048294

                    Orbital Energies (a.u.)
 --------------------------------------------------------------

 Alpha MOs
 -- Occupied --
-19.124 -19.100 -10.235 -10.228 -10.209 -10.201 -10.177 -10.177
-10.177 -10.177 -10.170 -10.151 -10.148 -10.148 -10.147 -10.147
 -1.059  -1.029  -0.811  -0.788  -0.780  -0.760  -0.758  -0.732
 -0.691  -0.666  -0.622  -0.596  -0.586  -0.568  -0.556  -0.537
 -0.511  -0.498  -0.485  -0.478  -0.463  -0.458  -0.439  -0.428
 -0.421  -0.415  -0.401  -0.401  -0.388  -0.383  -0.377  -0.371
 -0.359  -0.359  -0.353  -0.349  -0.337  -0.333  -0.328  -0.326
 -0.315  -0.311  -0.299  -0.285  -0.274  -0.244

          Ground-State Mulliken Net Atomic Charges

     Atom                 Charge (a.u.)
  ----------------------------------------
      1 C                    -0.328281
      2 C                     0.018658
      3 C                    -0.157756
      4 C                    -0.330394
      5 C                     0.021900
      6 C                    -0.322689
      7 O                    -0.059715
      8 H                     0.180556
      9 H                     0.079263
     10 H                     0.204118
     11 H                     0.000619
     12 H                     0.224805
     13 C                    -0.548984
     14 H                     0.149210
     15 H                     0.149046
     16 H                     0.138911
     17 H                     0.180740
     18 H                     0.078123
     19 H                     0.001484
     20 H                     0.204106
     21 C                    -0.609610
     22 C                    -0.317909
     23 C                     0.290903
     24 C                    -0.612298
     25 C                    -0.313666
     26 C                    -0.031058
     27 O                     0.134888
     28 H                     0.155672
     29 H                     0.148531
     30 H                     0.168396
     31 H                     0.150216
     32 H                     0.232228
     33 C                    -0.458505
     34 H                     0.191591
     35 H                     0.191404
     36 H                     0.172498
     37 H                     0.156150
     38 H                     0.148183
     39 H                     0.150134
     40 H                     0.168530
  ----------------------------------------
  Sum of atomic charges =    -0.000000

                    Cartesian Multipole Moments
 -----------------------------------------------------------------
    Charge (ESU x 10^10)
                -0.0000
    Dipole Moment (Debye)
         X      -4.3113      Y      -0.6875      Z       0.0046
       Tot       4.3657
    Quadrupole Moments (Debye-Ang)
        XX    -107.6012     XY      -2.3776     YY     -97.0514
        XZ      -0.0026     YZ       0.0053     ZZ    -101.1371

 Total job time:  270.35s(wall), 1062.07s(cpu)
        *  Thank you very much for using Q-Chem.  Have a nice day.  *
