 Q-Chem 5.0, Q-Chem, Inc., Pleasanton, CA (2017)
 Q-Chem 5.0.1 for Intel X86 EM64T Linux

User input:
--------------------------------------------------------------
$molecule
0  1
C        +0.22085000        +2.24588000        +4.60626000
C        +0.66532000        +0.81517000        +5.03097000
C        +1.34480000        +2.62185000        +3.61632000
C        +2.64451000        +2.93198000        +4.38979000
C        +3.08315000        +1.50092000        +4.81836000
C        +1.96183000        +0.62536000        +4.20065000
O        +1.64588000        +1.36144000        +2.99237000
H        +3.38299000        +3.39115000        +3.73009000
H        +2.47851000        +3.60711000        +5.23230000
H        +4.04830000        +1.23441000        +4.38301000
H        +3.15451000        +1.37602000        +5.90117000
H        +1.07107000        +3.34864000        +2.85311000
C        +2.33960000        -0.80024000        +3.87151000
H        +3.21493000        -0.82464000        +3.21776000
H        +1.51553000        -1.31071000        +3.36727000
H        +2.57786000        -1.34992000        +4.78653000
H        -0.74493000        +2.22493000        +4.09830000
H        +0.15013000        +2.94525000        +5.44203000
H        +0.84479000        +0.71900000        +6.10407000
H        -0.07590000        +0.06594000        +4.74429000
@C        +0.20553000        +1.04146000        +0.58269000
@C        +0.65000000        -0.38925000        +1.00740000
@C        +1.32948000        +1.41743000        -0.40725000
@C        +2.62919000        +1.72756000        +0.36622000
@C        +3.06783000        +0.29650000        +0.79479000
@C        +1.94651000        -0.57906000        +0.17708000
@O        +1.63056000        +0.15702000        -1.03120000
@H        +3.36767000        +2.18673000        -0.29348000
@H        +2.46319000        +2.40269000        +1.20873000
@H        +4.03298000        +0.02999000        +0.35944000
@H        +3.13919000        +0.17160000        +1.87760000
@H        +1.05575000        +2.14422000        -1.17046000
@C        +2.32428000        -2.00466000        -0.15206000
@H        +3.19961000        -2.02906000        -0.80581000
@H        +1.50021000        -2.51513000        -0.65630000
@H        +2.56254000        -2.55434000        +0.76296000
@H        -0.76025000        +1.02051000        +0.07473000
@H        +0.13481000        +1.74083000        +1.41846000
@H        +0.82947000        -0.48542000        +2.08050000
@H        -0.09122000        -1.13848000        +0.72072000
$end

$rem
JOBTYPE                   SP
METHOD                    B3LYP
DFT_D                     d3_op
BASIS                     6-311++G(d,p)
SYMMETRY                  False
THRESH                    12
SCF_CONVERGENCE           8
MAX_SUB_FILE_NUM          128
MEM_STATIC                400
MEM_TOTAL                 4000
$end
--------------------------------------------------------------

             Standard Nuclear Orientation (Angstroms)
    I     Atom           X                Y                Z
 ----------------------------------------------------------------
    1      C       0.2208500000     2.2458800000     4.6062600000
    2      C       0.6653200000     0.8151700000     5.0309700000
    3      C       1.3448000000     2.6218500000     3.6163200000
    4      C       2.6445100000     2.9319800000     4.3897900000
    5      C       3.0831500000     1.5009200000     4.8183600000
    6      C       1.9618300000     0.6253600000     4.2006500000
    7      O       1.6458800000     1.3614400000     2.9923700000
    8      H       3.3829900000     3.3911500000     3.7300900000
    9      H       2.4785100000     3.6071100000     5.2323000000
   10      H       4.0483000000     1.2344100000     4.3830100000
   11      H       3.1545100000     1.3760200000     5.9011700000
   12      H       1.0710700000     3.3486400000     2.8531100000
   13      C       2.3396000000    -0.8002400000     3.8715100000
   14      H       3.2149300000    -0.8246400000     3.2177600000
   15      H       1.5155300000    -1.3107100000     3.3672700000
   16      H       2.5778600000    -1.3499200000     4.7865300000
   17      H      -0.7449300000     2.2249300000     4.0983000000
   18      H       0.1501300000     2.9452500000     5.4420300000
   19      H       0.8447900000     0.7190000000     6.1040700000
   20      H      -0.0759000000     0.0659400000     4.7442900000
   21      GH      0.2055300000     1.0414600000     0.5826900000
   22      GH      0.6500000000    -0.3892500000     1.0074000000
   23      GH      1.3294800000     1.4174300000    -0.4072500000
   24      GH      2.6291900000     1.7275600000     0.3662200000
   25      GH      3.0678300000     0.2965000000     0.7947900000
   26      GH      1.9465100000    -0.5790600000     0.1770800000
   27      GH      1.6305600000     0.1570200000    -1.0312000000
   28      GH      3.3676700000     2.1867300000    -0.2934800000
   29      GH      2.4631900000     2.4026900000     1.2087300000
   30      GH      4.0329800000     0.0299900000     0.3594400000
   31      GH      3.1391900000     0.1716000000     1.8776000000
   32      GH      1.0557500000     2.1442200000    -1.1704600000
   33      GH      2.3242800000    -2.0046600000    -0.1520600000
   34      GH      3.1996100000    -2.0290600000    -0.8058100000
   35      GH      1.5002100000    -2.5151300000    -0.6563000000
   36      GH      2.5625400000    -2.5543400000     0.7629600000
   37      GH     -0.7602500000     1.0205100000     0.0747300000
   38      GH      0.1348100000     1.7408300000     1.4184600000
   39      GH      0.8294700000    -0.4854200000     2.0805000000
   40      GH     -0.0912200000    -1.1384800000     0.7207200000
 ----------------------------------------------------------------

   13    -349.3039978923      2.93E-09 Convergence criterion met
 Total energy in the final basis set = -349.30399789

                    Orbital Energies (a.u.)
 --------------------------------------------------------------

 Alpha MOs
 -- Occupied --
-19.116 -10.224 -10.217 -10.168 -10.168 -10.168 -10.167 -10.161
 -1.044  -0.799  -0.773  -0.750  -0.679  -0.613  -0.573  -0.554
 -0.498  -0.481  -0.467  -0.434  -0.414  -0.405  -0.391  -0.371
 -0.362  -0.346  -0.344  -0.339  -0.319  -0.302  -0.262

          Ground-State Mulliken Net Atomic Charges

     Atom                 Charge (a.u.)
  ----------------------------------------
      1 C                    -0.611481
      2 C                    -0.313882
      3 C                     0.416658
      4 C                    -0.617985
      5 C                    -0.306418
      6 C                    -0.046841
      7 O                     0.130254
      8 H                     0.150584
      9 H                     0.142786
     10 H                     0.164439
     11 H                     0.145595
     12 H                     0.227837
     13 C                    -0.448485
     14 H                     0.157347
     15 H                     0.157908
     16 H                     0.177313
     17 H                     0.150433
     18 H                     0.142103
     19 H                     0.145776
     20 H                     0.164860
     21 GH                   -0.031150
     22 GH                   -0.005422
     23 GH                   -0.009445
     24 GH                   -0.029926
     25 GH                   -0.006600
     26 GH                    0.080309
     27 GH                   -0.006562
     28 GH                   -0.000335
     29 GH                   -0.064755
     30 GH                   -0.002794
     31 GH                   -0.018513
     32 GH                   -0.000443
     33 GH                    0.055680
     34 GH                    0.000131
     35 GH                    0.000126
     36 GH                   -0.000618
     37 GH                   -0.000229
     38 GH                   -0.066313
     39 GH                   -0.019119
     40 GH                   -0.002821
  ----------------------------------------
  Sum of atomic charges =     0.000000

                    Cartesian Multipole Moments
 -----------------------------------------------------------------
    Charge (ESU x 10^10)
                -0.0000
    Dipole Moment (Debye)
         X       0.0417      Y       0.3634      Z       1.5908
       Tot       1.6323
    Quadrupole Moments (Debye-Ang)
        XX     -49.7822     XY       0.0928     YY     -47.2527
        XZ       2.9421     YZ       2.8219     ZZ     -39.7519

 Total job time:  248.11s(wall), 985.74s(cpu)
        *  Thank you very much for using Q-Chem.  Have a nice day.  *
