 Q-Chem 5.0, Q-Chem, Inc., Pleasanton, CA (2017)
 Q-Chem 5.0.1 for Intel X86 EM64T Linux

User input:
--------------------------------------------------------------
$molecule
0  1
C        +4.12785000        +2.96970000        +3.78046000
C        +4.53141000        +1.51129000        +4.19322000
C        +5.23523000        +3.32456000        +2.75960000
C        +6.53585000        +3.64182000        +3.52306000
C        +6.94851000        +2.21833000        +3.99751000
C        +5.84938000        +1.33183000        +3.34713000
O        +5.53355000        +2.06145000        +2.15075000
H        +7.27749000        +4.06264000        +2.84256000
H        +6.38751000        +4.34970000        +4.34102000
H        +7.92697000        +1.93476000        +3.60612000
H        +6.97874000        +2.11220000        +5.08379000
H        +4.93785000        +4.12425000        +2.11387000
C        +6.25965000        -0.08785000        +3.02639000
H        +7.16258000        -0.07713000        +2.45236000
H        +5.48466000        -0.56450000        +2.46328000
H        +6.42202000        -0.62647000        +3.93657000
H        +3.15842000        +2.99293000        +3.32816000
H        +4.06067000        +3.65099000        +4.60279000
H        +4.72208000        +1.43577000        +5.24338000
H        +3.77991000        +0.77126000        +4.01294000
@C        +0.22270000        +1.04488000        +0.58595000
@C        +0.62626000        -0.41353000        +0.99871000
@C        +1.33008000        +1.39974000        -0.43491000
@C        +2.63070000        +1.71700000        +0.32855000
@C        +3.04336000        +0.29351000        +0.80300000
@C        +1.94423000        -0.59299000        +0.15262000
@O        +1.62840000        +0.13663000        -1.04376000
@H        +3.37234000        +2.13782000        -0.35195000
@H        +2.48236000        +2.42488000        +1.14651000
@H        +4.02182000        +0.00994000        +0.41161000
@H        +3.07359000        +0.18738000        +1.88928000
@H        +1.03270000        +2.19943000        -1.08064000
@C        +2.35450000        -2.01267000        -0.16812000
@H        +3.25743000        -2.00195000        -0.74215000
@H        +1.57951000        -2.48932000        -0.73123000
@H        +2.51687000        -2.55129000        +0.74206000
@H        -0.74673000        +1.06811000        +0.13365000
@H        +0.15552000        +1.72617000        +1.40828000
@H        +0.81693000        -0.48905000        +2.04887000
@H        -0.12524000        -1.15356000        +0.81843000
$end

$rem
JOBTYPE                   SP
METHOD                    B3LYP
DFT_D                     d3_op
BASIS                     6-311++G(d,p)
SYMMETRY                  False
THRESH                    12
SCF_CONVERGENCE           8
MAX_SUB_FILE_NUM          128
MEM_STATIC                400
MEM_TOTAL                 4000
$end
--------------------------------------------------------------

             Standard Nuclear Orientation (Angstroms)
    I     Atom           X                Y                Z
 ----------------------------------------------------------------
    1      C       4.1278500000     2.9697000000     3.7804600000
    2      C       4.5314100000     1.5112900000     4.1932200000
    3      C       5.2352300000     3.3245600000     2.7596000000
    4      C       6.5358500000     3.6418200000     3.5230600000
    5      C       6.9485100000     2.2183300000     3.9975100000
    6      C       5.8493800000     1.3318300000     3.3471300000
    7      O       5.5335500000     2.0614500000     2.1507500000
    8      H       7.2774900000     4.0626400000     2.8425600000
    9      H       6.3875100000     4.3497000000     4.3410200000
   10      H       7.9269700000     1.9347600000     3.6061200000
   11      H       6.9787400000     2.1122000000     5.0837900000
   12      H       4.9378500000     4.1242500000     2.1138700000
   13      C       6.2596500000    -0.0878500000     3.0263900000
   14      H       7.1625800000    -0.0771300000     2.4523600000
   15      H       5.4846600000    -0.5645000000     2.4632800000
   16      H       6.4220200000    -0.6264700000     3.9365700000
   17      H       3.1584200000     2.9929300000     3.3281600000
   18      H       4.0606700000     3.6509900000     4.6027900000
   19      H       4.7220800000     1.4357700000     5.2433800000
   20      H       3.7799100000     0.7712600000     4.0129400000
   21      GH      0.2227000000     1.0448800000     0.5859500000
   22      GH      0.6262600000    -0.4135300000     0.9987100000
   23      GH      1.3300800000     1.3997400000    -0.4349100000
   24      GH      2.6307000000     1.7170000000     0.3285500000
   25      GH      3.0433600000     0.2935100000     0.8030000000
   26      GH      1.9442300000    -0.5929900000     0.1526200000
   27      GH      1.6284000000     0.1366300000    -1.0437600000
   28      GH      3.3723400000     2.1378200000    -0.3519500000
   29      GH      2.4823600000     2.4248800000     1.1465100000
   30      GH      4.0218200000     0.0099400000     0.4116100000
   31      GH      3.0735900000     0.1873800000     1.8892800000
   32      GH      1.0327000000     2.1994300000    -1.0806400000
   33      GH      2.3545000000    -2.0126700000    -0.1681200000
   34      GH      3.2574300000    -2.0019500000    -0.7421500000
   35      GH      1.5795100000    -2.4893200000    -0.7312300000
   36      GH      2.5168700000    -2.5512900000     0.7420600000
   37      GH     -0.7467300000     1.0681100000     0.1336500000
   38      GH      0.1555200000     1.7261700000     1.4082800000
   39      GH      0.8169300000    -0.4890500000     2.0488700000
   40      GH     -0.1252400000    -1.1535600000     0.8184300000
 ----------------------------------------------------------------

   13    -349.2964100218      2.61E-09 Convergence criterion met
 Total energy in the final basis set = -349.29641002

                    Orbital Energies (a.u.)
 --------------------------------------------------------------

 Alpha MOs
 -- Occupied --
-19.119 -10.225 -10.216 -10.166 -10.166 -10.163 -10.162 -10.154
 -1.049  -0.798  -0.775  -0.748  -0.684  -0.615  -0.575  -0.556
 -0.503  -0.482  -0.465  -0.440  -0.418  -0.405  -0.392  -0.377
 -0.360  -0.348  -0.344  -0.336  -0.316  -0.301  -0.262

          Ground-State Mulliken Net Atomic Charges

     Atom                 Charge (a.u.)
  ----------------------------------------
      1 C                    -0.401026
      2 C                    -0.365806
      3 C                     0.209124
      4 C                    -0.686717
      5 C                    -0.421115
      6 C                     0.253697
      7 O                    -0.016093
      8 H                     0.164142
      9 H                     0.127913
     10 H                     0.153852
     11 H                     0.138846
     12 H                     0.231440
     13 C                    -0.374986
     14 H                     0.154742
     15 H                     0.142411
     16 H                     0.139368
     17 H                     0.122831
     18 H                     0.161399
     19 H                     0.156402
     20 H                     0.167277
     21 GH                   -0.006601
     22 GH                    0.006659
     23 GH                   -0.024468
     24 GH                    0.033410
     25 GH                   -0.005748
     26 GH                   -0.039320
     27 GH                    0.000178
     28 GH                    0.001921
     29 GH                   -0.009448
     30 GH                    0.008554
     31 GH                   -0.026112
     32 GH                   -0.000342
     33 GH                   -0.001236
     34 GH                   -0.000411
     35 GH                   -0.000036
     36 GH                    0.001464
     37 GH                   -0.000313
     38 GH                    0.002026
     39 GH                    0.002102
     40 GH                    0.000018
  ----------------------------------------
  Sum of atomic charges =     0.000000

                    Cartesian Multipole Moments
 -----------------------------------------------------------------
    Charge (ESU x 10^10)
                 0.0000
    Dipole Moment (Debye)
         X      -0.0064      Y       0.4036      Z       1.6141
       Tot       1.6638
    Quadrupole Moments (Debye-Ang)
        XX     -49.8380     XY       1.4885     YY     -46.0671
        XZ       8.8198     YZ       3.7226     ZZ     -42.3379

 Total job time:  229.39s(wall), 910.52s(cpu)
        *  Thank you very much for using Q-Chem.  Have a nice day.  *
