 Q-Chem 5.0, Q-Chem, Inc., Pleasanton, CA (2017)
 Q-Chem 5.0.1 for Intel X86 EM64T Linux

User input:
--------------------------------------------------------------
$molecule
0  1
C        +4.27579000        +3.21124000        +3.42132000
C        +4.67935000        +1.75283000        +3.83408000
C        +5.38317000        +3.56610000        +2.40046000
C        +6.68379000        +3.88336000        +3.16392000
C        +7.09645000        +2.45987000        +3.63837000
C        +5.99732000        +1.57337000        +2.98799000
O        +5.68149000        +2.30299000        +1.79161000
H        +7.42543000        +4.30418000        +2.48342000
H        +6.53545000        +4.59124000        +3.98188000
H        +8.07491000        +2.17630000        +3.24698000
H        +7.12668000        +2.35374000        +4.72465000
C        +4.95337000        +4.55713000        +1.34107000
C        +6.40759000        +0.15369000        +2.66725000
H        +7.31620000        +0.15958000        +2.06171000
H        +6.60299000        -0.40423000        +3.58616000
H        +5.62644000        -0.36260000        +2.10665000
H        +5.77154000        +4.74822000        +0.67851000
H        +4.65228000        +5.47114000        +1.80887000
H        +4.13234000        +4.15289000        +0.78663000
H        +4.87002000        +1.67731000        +4.88424000
H        +3.92785000        +1.01280000        +3.65380000
H        +3.30636000        +3.23447000        +2.96902000
H        +4.20861000        +3.89253000        +4.24365000
@C        +0.22270000        +1.04488000        +0.58595000
@C        +0.62626000        -0.41353000        +0.99871000
@C        +1.33008000        +1.39974000        -0.43491000
@C        +2.63070000        +1.71700000        +0.32855000
@C        +3.04336000        +0.29351000        +0.80300000
@C        +1.94423000        -0.59299000        +0.15262000
@O        +1.62840000        +0.13663000        -1.04376000
@H        +3.37234000        +2.13782000        -0.35195000
@H        +2.48236000        +2.42488000        +1.14651000
@H        +4.02182000        +0.00994000        +0.41161000
@H        +3.07359000        +0.18738000        +1.88928000
@C        +0.90028000        +2.39077000        -1.49430000
@C        +2.35450000        -2.01267000        -0.16812000
@H        +3.26311000        -2.00678000        -0.77366000
@H        +2.54990000        -2.57059000        +0.75079000
@H        +1.57335000        -2.52896000        -0.72872000
@H        +1.71845000        +2.58186000        -2.15686000
@H        +0.59919000        +3.30478000        -1.02650000
@H        +0.07925000        +1.98653000        -2.04874000
@H        +0.81693000        -0.48905000        +2.04887000
@H        -0.12524000        -1.15356000        +0.81843000
@H        -0.74673000        +1.06811000        +0.13365000
@H        +0.15552000        +1.72617000        +1.40828000
$end

$rem
JOBTYPE                   SP
METHOD                    B3LYP
DFT_D                     d3_op
BASIS                     6-311++G(d,p)
SYMMETRY                  False
THRESH                    12
SCF_CONVERGENCE           8
MAX_SUB_FILE_NUM          128
MEM_STATIC                400
MEM_TOTAL                 4000
$end
--------------------------------------------------------------

             Standard Nuclear Orientation (Angstroms)
    I     Atom           X                Y                Z
 ----------------------------------------------------------------
    1      C       4.2757900000     3.2112400000     3.4213200000
    2      C       4.6793500000     1.7528300000     3.8340800000
    3      C       5.3831700000     3.5661000000     2.4004600000
    4      C       6.6837900000     3.8833600000     3.1639200000
    5      C       7.0964500000     2.4598700000     3.6383700000
    6      C       5.9973200000     1.5733700000     2.9879900000
    7      O       5.6814900000     2.3029900000     1.7916100000
    8      H       7.4254300000     4.3041800000     2.4834200000
    9      H       6.5354500000     4.5912400000     3.9818800000
   10      H       8.0749100000     2.1763000000     3.2469800000
   11      H       7.1266800000     2.3537400000     4.7246500000
   12      C       4.9533700000     4.5571300000     1.3410700000
   13      C       6.4075900000     0.1536900000     2.6672500000
   14      H       7.3162000000     0.1595800000     2.0617100000
   15      H       6.6029900000    -0.4042300000     3.5861600000
   16      H       5.6264400000    -0.3626000000     2.1066500000
   17      H       5.7715400000     4.7482200000     0.6785100000
   18      H       4.6522800000     5.4711400000     1.8088700000
   19      H       4.1323400000     4.1528900000     0.7866300000
   20      H       4.8700200000     1.6773100000     4.8842400000
   21      H       3.9278500000     1.0128000000     3.6538000000
   22      H       3.3063600000     3.2344700000     2.9690200000
   23      H       4.2086100000     3.8925300000     4.2436500000
   24      GH      0.2227000000     1.0448800000     0.5859500000
   25      GH      0.6262600000    -0.4135300000     0.9987100000
   26      GH      1.3300800000     1.3997400000    -0.4349100000
   27      GH      2.6307000000     1.7170000000     0.3285500000
   28      GH      3.0433600000     0.2935100000     0.8030000000
   29      GH      1.9442300000    -0.5929900000     0.1526200000
   30      GH      1.6284000000     0.1366300000    -1.0437600000
   31      GH      3.3723400000     2.1378200000    -0.3519500000
   32      GH      2.4823600000     2.4248800000     1.1465100000
   33      GH      4.0218200000     0.0099400000     0.4116100000
   34      GH      3.0735900000     0.1873800000     1.8892800000
   35      GH      0.9002800000     2.3907700000    -1.4943000000
   36      GH      2.3545000000    -2.0126700000    -0.1681200000
   37      GH      3.2631100000    -2.0067800000    -0.7736600000
   38      GH      2.5499000000    -2.5705900000     0.7507900000
   39      GH      1.5733500000    -2.5289600000    -0.7287200000
   40      GH      1.7184500000     2.5818600000    -2.1568600000
   41      GH      0.5991900000     3.3047800000    -1.0265000000
   42      GH      0.0792500000     1.9865300000    -2.0487400000
   43      GH      0.8169300000    -0.4890500000     2.0488700000
   44      GH     -0.1252400000    -1.1535600000     0.8184300000
   45      GH     -0.7467300000     1.0681100000     0.1336500000
   46      GH      0.1555200000     1.7261700000     1.4082800000
 ----------------------------------------------------------------

   12    -388.6332919267      6.96E-09 Convergence criterion met
 Total energy in the final basis set = -388.63329193

                    Orbital Energies (a.u.)
 --------------------------------------------------------------

 Alpha MOs
 -- Occupied --
-19.115 -10.224 -10.221 -10.166 -10.165 -10.162 -10.161 -10.160
-10.151  -1.049  -0.799  -0.789  -0.749  -0.717  -0.652  -0.616
 -0.562  -0.555  -0.486  -0.474  -0.464  -0.444  -0.420  -0.410
 -0.406  -0.402  -0.384  -0.360  -0.346  -0.343  -0.340  -0.333
 -0.316  -0.299  -0.261

          Ground-State Mulliken Net Atomic Charges

     Atom                 Charge (a.u.)
  ----------------------------------------
      1 C                    -0.320304
      2 C                    -0.331887
      3 C                     0.135432
      4 C                    -0.595552
      5 C                    -0.520345
      6 C                     0.138329
      7 O                     0.029876
      8 H                     0.155707
      9 H                     0.138153
     10 H                     0.158785
     11 H                     0.136360
     12 C                    -0.235976
     13 C                    -0.322215
     14 H                     0.155407
     15 H                     0.148223
     16 H                     0.144305
     17 H                     0.150487
     18 H                     0.145453
     19 H                     0.134176
     20 H                     0.164254
     21 H                     0.156604
     22 H                     0.136720
     23 H                     0.178351
     24 GH                   -0.002664
     25 GH                    0.000897
     26 GH                   -0.034060
     27 GH                   -0.012650
     28 GH                    0.000609
     29 GH                   -0.035654
     30 GH                    0.000667
     31 GH                    0.009072
     32 GH                   -0.014597
     33 GH                    0.012221
     34 GH                   -0.013816
     35 GH                    0.004127
     36 GH                    0.000206
     37 GH                   -0.000717
     38 GH                    0.001048
     39 GH                    0.000121
     40 GH                   -0.000494
     41 GH                    0.001061
     42 GH                    0.000127
     43 GH                    0.001863
     44 GH                   -0.000046
     45 GH                   -0.000266
     46 GH                    0.002602
  ----------------------------------------
  Sum of atomic charges =     0.000000

                    Cartesian Multipole Moments
 -----------------------------------------------------------------
    Charge (ESU x 10^10)
                 0.0000
    Dipole Moment (Debye)
         X      -0.0336      Y       0.4291      Z       1.5036
       Tot       1.5639
    Quadrupole Moments (Debye-Ang)
        XX     -56.7433     XY       1.8065     YY     -52.9471
        XZ       8.3732     YZ       3.9810     ZZ     -50.5705

 Total job time:  282.35s(wall), 1115.42s(cpu)
        *  Thank you very much for using Q-Chem.  Have a nice day.  *
