 Q-Chem 5.0, Q-Chem, Inc., Pleasanton, CA (2017)
 Q-Chem 5.0.1 for Intel X86 EM64T Linux

User input:
--------------------------------------------------------------
$molecule
0  1
--
0  1
C        +0.20186000        +1.01419000        +0.57588000
C        +0.65458000        -0.40740000        +1.00877000
C        +1.31047000        +1.40432000        -0.43622000
C        +2.61036000        +1.71622000        +0.34904000
C        +3.06420000        +0.29616000        +0.78527000
C        +1.94960000        -0.59295000        +0.17632000
O        +1.62620000        +0.12693000        -1.03574000
H        +3.34518000        +2.18171000        -0.31153000
H        +2.43386000        +2.39558000        +1.18603000
H        +4.02983000        +0.03650000        +0.34656000
H        +3.14253000        +0.17627000        +1.86830000
C        +0.91819000        +2.41036000        -1.49368000
C        +2.33867000        -2.01935000        -0.13734000
H        +3.21332000        -2.04461000        -0.79203000
H        +2.58239000        -2.55643000        +0.78377000
H        +1.51806000        -2.54232000        -0.63447000
H        +1.73500000        +2.55908000        -2.20400000
H        +0.68341000        +3.37378000        -1.03196000
H        +0.03753000        +2.06800000        -2.04235000
H        +0.83643000        -0.49892000        +2.08202000
H        -0.08220000        -1.16297000        +0.72684000
H        -0.76801000        +0.98583000        +0.07445000
H        +0.13288000        +1.72189000        +1.40479000
--
0  1
C        +0.21744000        +2.24713000        +4.59080000
C        +0.67016000        +0.82554000        +5.02369000
C        +1.32605000        +2.63726000        +3.57870000
C        +2.62594000        +2.94916000        +4.36396000
C        +3.07978000        +1.52910000        +4.80019000
C        +1.96518000        +0.63999000        +4.19124000
O        +1.64178000        +1.35987000        +2.97918000
H        +3.36076000        +3.41465000        +3.70339000
H        +2.44944000        +3.62852000        +5.20095000
H        +4.04541000        +1.26944000        +4.36148000
H        +3.15811000        +1.40921000        +5.88322000
C        +0.93377000        +3.64330000        +2.52124000
C        +2.35425000        -0.78641000        +3.87758000
H        +3.22890000        -0.81167000        +3.22289000
H        +2.59797000        -1.32349000        +4.79869000
H        +1.53364000        -1.30938000        +3.38045000
H        +1.75058000        +3.79202000        +1.81092000
H        +0.69899000        +4.60672000        +2.98296000
H        +0.05311000        +3.30094000        +1.97257000
H        +0.85201000        +0.73402000        +6.09694000
H        -0.06662000        +0.06997000        +4.74176000
H        -0.75243000        +2.21877000        +4.08937000
H        +0.14846000        +2.95483000        +5.41971000
$end

$rem
JOBTYPE                   SP
METHOD                    B3LYP
DFT_D                     d3_op
BASIS                     6-311++G(d,p)
SYMMETRY                  False
THRESH                    12
SCF_CONVERGENCE           8
MAX_SUB_FILE_NUM          128
MEM_STATIC                400
MEM_TOTAL                 4000
$end
--------------------------------------------------------------

             Standard Nuclear Orientation (Angstroms)
    I     Atom           X                Y                Z
 ----------------------------------------------------------------
    1      C       1.3601295336     0.7769555255    -1.2591318079
    2      C       1.3618132365    -0.7765111926    -1.2614981851
    3      C       2.2091019606     1.0919237234     0.0000762018
    4      C       1.3621148199     0.7768666939     1.2598304402
    5      C       1.3601524943    -0.7764628106     1.2586634581
    6      C       2.2072986584    -1.0927446765    -0.0006931286
    7      O       3.1559207368    -0.0009478326    -0.0008416634
    8      H       1.8542954260     1.1719453664     2.1512703938
    9      H       0.3632672538     1.2157546740     1.2058359925
   10      H       1.8521946185    -1.1740603725     2.1486869428
   11      H       0.3597080816    -1.2118004212     1.2033884733
   12      C       2.9262093435     2.4223292002     0.0000891540
   13      C       2.9243036769    -2.4232612615     0.0014142810
   14      H       3.5543632566    -2.5195053475     0.8891257703
   15      H       2.2004686149    -3.2432368175     0.0023563099
   16      H       3.5560272421    -2.5221235377    -0.8846941872
   17      H       3.5586062181     2.5176588491     0.8859995151
   18      H       2.2029617234     3.2429318749     0.0031278247
   19      H       3.5544228086     2.5206067747    -0.8884492722
   20      H       0.3620123947    -1.2134937281    -1.2090059405
   21      H       1.8557630511    -1.1727688947    -2.1515592686
   22      H       1.8513656094     1.1752656670    -2.1495925315
   23      H       0.3602945023     1.2125243521    -1.2016946598
   24      C      -2.8398664389     0.7773358972    -1.2588622232
   25      C      -2.8381827360    -0.7761308208    -1.2612286004
   26      C      -1.9908940119     1.0923040951     0.0003457864
   27      C      -2.8378811526     0.7772470656     1.2601000249
   28      C      -2.8398434782    -0.7760824389     1.2589330428
   29      C      -1.9926973141    -1.0923643048    -0.0004235439
   30      O      -1.0440752357    -0.0005674609    -0.0005720788
   31      H      -2.3457005465     1.1723257381     2.1515399785
   32      H      -3.8367287187     1.2161350457     1.2061055772
   33      H      -2.3478013540    -1.1736800008     2.1489565275
   34      H      -3.8402878909    -1.2114200494     1.2036580579
   35      C      -1.2737866290     2.4227095720     0.0003587386
   36      C      -1.2756922956    -2.4228808897     0.0016838657
   37      H      -0.6456327159    -2.5191249757     0.8893953549
   38      H      -1.9995273576    -3.2428564458     0.0026258946
   39      H      -0.6439687304    -2.5217431659    -0.8844246025
   40      H      -0.6413897544     2.5180392209     0.8862690998
   41      H      -1.9970342491     3.2433122467     0.0033974094
   42      H      -0.6455731639     2.5209871464    -0.8881796875
   43      H      -3.8379835778    -1.2131133564    -1.2087363558
   44      H      -2.3442329214    -1.1723885229    -2.1512896839
   45      H      -2.3486303631     1.1756460387    -2.1493229469
   46      H      -3.8397014702     1.2129047238    -1.2014250751
 ----------------------------------------------------------------

   13    -777.2518031589      6.22E-09 Convergence criterion met
 Total energy in the final basis set = -777.25180316

                    Orbital Energies (a.u.)
 --------------------------------------------------------------

 Alpha MOs
 -- Occupied --
-19.121 -19.098 -10.233 -10.233 -10.208 -10.207 -10.175 -10.175
-10.175 -10.175 -10.168 -10.168 -10.150 -10.150 -10.145 -10.145
-10.145 -10.145  -1.057  -1.028  -0.810  -0.802  -0.782  -0.775
 -0.759  -0.731  -0.728  -0.704  -0.663  -0.636  -0.623  -0.598
 -0.570  -0.568  -0.544  -0.536  -0.502  -0.487  -0.479  -0.465
 -0.460  -0.457  -0.454  -0.438  -0.426  -0.422  -0.413  -0.408
 -0.402  -0.395  -0.395  -0.393  -0.384  -0.371  -0.365  -0.356
 -0.353  -0.352  -0.347  -0.345  -0.331  -0.324  -0.323  -0.317
 -0.311  -0.305  -0.297  -0.281  -0.271  -0.242

          Ground-State Mulliken Net Atomic Charges

     Atom                 Charge (a.u.)
  ----------------------------------------
      1 C                    -0.050955
      2 C                    -0.056110
      3 C                    -0.730710
      4 C                    -0.056424
      5 C                    -0.051453
      6 C                    -0.729568
      7 O                     0.061623
      8 H                     0.201366
      9 H                     0.033674
     10 H                     0.201704
     11 H                     0.030827
     12 C                    -0.170940
     13 C                    -0.169659
     14 H                     0.145697
     15 H                     0.145910
     16 H                     0.145518
     17 H                     0.145776
     18 H                     0.145906
     19 H                     0.145479
     20 H                     0.033399
     21 H                     0.201443
     22 H                     0.201512
     23 H                     0.030781
     24 C                    -0.437416
     25 C                    -0.442346
     26 C                     0.010431
     27 C                    -0.440511
     28 C                    -0.439024
     29 C                     0.014315
     30 O                     0.193001
     31 H                     0.161329
     32 H                     0.153420
     33 H                     0.161192
     34 H                     0.153467
     35 C                    -0.351258
     36 C                    -0.351585
     37 H                     0.195773
     38 H                     0.174258
     39 H                     0.195034
     40 H                     0.195405
     41 H                     0.174373
     42 H                     0.196036
     43 H                     0.153334
     44 H                     0.161428
     45 H                     0.161116
     46 H                     0.153430
  ----------------------------------------
  Sum of atomic charges =    -0.000000

                    Cartesian Multipole Moments
 -----------------------------------------------------------------
    Charge (ESU x 10^10)
                -0.0000
    Dipole Moment (Debye)
         X      -4.2542      Y       0.0023      Z       0.0054
       Tot       4.2542
    Quadrupole Moments (Debye-Ang)
        XX    -120.4627     XY      -0.0036     YY    -110.0902
        XZ      -0.0002     YZ       0.0029     ZZ    -114.6152

 Total job time:  413.87s(wall), 1636.01s(cpu)
        *  Thank you very much for using Q-Chem.  Have a nice day.  *
