 Q-Chem 5.0, Q-Chem, Inc., Pleasanton, CA (2017)
 Q-Chem 5.0.1 for Intel X86 EM64T Linux

User input:
--------------------------------------------------------------
$molecule
0  1
--
0  1
C        +0.22270000        +1.04488000        +0.58595000
C        +0.62626000        -0.41353000        +0.99871000
C        +1.33008000        +1.39974000        -0.43491000
C        +2.63070000        +1.71700000        +0.32855000
C        +3.04336000        +0.29351000        +0.80300000
C        +1.94423000        -0.59299000        +0.15262000
O        +1.62840000        +0.13663000        -1.04376000
H        +3.37234000        +2.13782000        -0.35195000
H        +2.48236000        +2.42488000        +1.14651000
H        +4.02182000        +0.00994000        +0.41161000
H        +3.07359000        +0.18738000        +1.88928000
C        +0.90028000        +2.39077000        -1.49430000
C        +2.35450000        -2.01267000        -0.16812000
H        +3.26311000        -2.00678000        -0.77366000
H        +2.54990000        -2.57059000        +0.75079000
H        +1.57335000        -2.52896000        -0.72872000
H        +1.71845000        +2.58186000        -2.15686000
H        +0.59919000        +3.30478000        -1.02650000
H        +0.07925000        +1.98653000        -2.04874000
H        +0.81693000        -0.48905000        +2.04887000
H        -0.12524000        -1.15356000        +0.81843000
H        -0.74673000        +1.06811000        +0.13365000
H        +0.15552000        +1.72617000        +1.40828000
--
0  1
C        +3.37510000        +2.72983000        +2.79124000
C        +3.77866000        +1.27142000        +3.20400000
C        +4.48248000        +3.08469000        +1.77038000
C        +5.78310000        +3.40195000        +2.53384000
C        +6.19576000        +1.97846000        +3.00829000
C        +5.09663000        +1.09196000        +2.35791000
O        +4.78080000        +1.82158000        +1.16153000
H        +6.52474000        +3.82277000        +1.85334000
H        +5.63476000        +4.10983000        +3.35180000
H        +7.17422000        +1.69489000        +2.61690000
H        +6.22599000        +1.87233000        +4.09457000
C        +4.05268000        +4.07572000        +0.71099000
C        +5.50690000        -0.32772000        +2.03717000
H        +6.41551000        -0.32183000        +1.43163000
H        +5.70230000        -0.88564000        +2.95608000
H        +4.72575000        -0.84401000        +1.47657000
H        +4.87085000        +4.26681000        +0.04843000
H        +3.75159000        +4.98973000        +1.17879000
H        +3.23165000        +3.67148000        +0.15655000
H        +3.96933000        +1.19590000        +4.25416000
H        +3.02716000        +0.53139000        +3.02372000
H        +2.40567000        +2.75306000        +2.33894000
H        +3.30792000        +3.41112000        +3.61357000
$end

$rem
JOBTYPE                   SP
METHOD                    B3LYP
DFT_D                     d3_op
BASIS                     6-311++G(d,p)
SYMMETRY                  False
THRESH                    12
SCF_CONVERGENCE           8
MAX_SUB_FILE_NUM          128
MEM_STATIC                400
MEM_TOTAL                 4000
$end
--------------------------------------------------------------

             Standard Nuclear Orientation (Angstroms)
    I     Atom           X                Y                Z
 ----------------------------------------------------------------
    1      C       2.6189054589    -0.8061175212     1.3002062608
    2      C       2.6847552592     0.7608175810     1.3240685429
    3      C       2.1496969005    -1.0783236107    -0.1489722641
    4      C       0.6427029359    -0.7726266443    -0.2522002593
    5      C       0.6563400348     0.7818765155    -0.1811452540
    6      C       2.1798391769     1.0878211399    -0.1330682122
    7      O       2.7361062465     0.0003793481    -0.8890155215
    8      H       0.2535837661    -1.1216143911    -1.2097980017
    9      H       0.0577882838    -1.2417242297     0.5415123567
   10      H       0.2214998804     1.2266365645    -1.0778528917
   11      H       0.1245575485     1.1837663884     0.6836515924
   12      C       2.6188956820    -2.4016031597    -0.7128511622
   13      C       2.5972398030     2.4216031160    -0.7105535198
   14      H       2.2085977719     2.5224165991    -1.7259743828
   15      H       2.2050041659     3.2404922432    -0.1027515151
   16      H       3.6844091226     2.5081983592    -0.7503929600
   17      H       2.2541430050    -2.5127180323    -1.7126072626
   18      H       2.2457925078    -3.2001852032    -0.1062482860
   19      H       3.6885636889    -2.4277312933    -0.7184750083
   20      H       2.0365957242     1.1727379219     2.0691223630
   21      H       3.6458137354     1.1644920810     1.5655453173
   22      H       3.5790497838    -1.2397553386     1.4872639165
   23      H       1.9804605950    -1.2254867278     2.0494815572
   24      C      -1.5800934285    -0.8064959276     1.3918274775
   25      C      -1.5142436282     0.7604391746     1.4156897596
   26      C      -2.0493019869    -1.0787020172    -0.0573510475
   27      C      -3.5562959515    -0.7730050507    -0.1605790426
   28      C      -3.5426588526     0.7814981091    -0.0895240373
   29      C      -2.0191597104     1.0874427335    -0.0414469955
   30      O      -1.4628926409     0.0000009416    -0.7973943048
   31      H      -3.9454151213    -1.1219927975    -1.1181767851
   32      H      -4.1412106036    -1.2421026361     0.6331335733
   33      H      -3.9774990069     1.2262581581    -0.9862316751
   34      H      -4.0744413389     1.1833879820     0.7752728091
   35      C      -1.5801032054    -2.4019815662    -0.6212299455
   36      C      -1.6017590844     2.4212247096    -0.6189323031
   37      H      -1.9904011155     2.5220381927    -1.6343531661
   38      H      -1.9939947214     3.2401138368    -0.0111302984
   39      H      -0.5145897648     2.5078199528    -0.6587717434
   40      H      -1.9448558824    -2.5130964388    -1.6209860459
   41      H      -1.9532063796    -3.2005636097    -0.0146270693
   42      H      -0.5104351984    -2.4281096997    -0.6268537916
   43      H      -2.1624031632     1.1723595155     2.1607435797
   44      H      -0.5531851519     1.1641136746     1.6571665340
   45      H      -0.6199491036    -1.2401337450     1.5788851332
   46      H      -2.2185382923    -1.2258651342     2.1411027738
 ----------------------------------------------------------------

   13    -777.1302357196      7.13E-09 Convergence criterion met
 Total energy in the final basis set = -777.13023572

                    Orbital Energies (a.u.)
 --------------------------------------------------------------

 Alpha MOs
 -- Occupied --
-19.119 -19.099 -10.234 -10.230 -10.206 -10.203 -10.174 -10.173
-10.171 -10.171 -10.161 -10.154 -10.152 -10.151 -10.151 -10.142
-10.133 -10.131  -1.065  -1.033  -0.814  -0.805  -0.793  -0.776
 -0.765  -0.737  -0.720  -0.707  -0.664  -0.654  -0.633  -0.601
 -0.578  -0.574  -0.553  -0.544  -0.516  -0.496  -0.481  -0.465
 -0.461  -0.459  -0.444  -0.440  -0.431  -0.429  -0.418  -0.416
 -0.411  -0.399  -0.395  -0.387  -0.377  -0.370  -0.369  -0.359
 -0.355  -0.349  -0.348  -0.344  -0.335  -0.327  -0.323  -0.318
 -0.305  -0.301  -0.280  -0.277  -0.267  -0.235

          Ground-State Mulliken Net Atomic Charges

     Atom                 Charge (a.u.)
  ----------------------------------------
      1 C                    -0.396006
      2 C                    -0.376785
      3 C                    -0.340507
      4 C                    -0.296926
      5 C                    -0.279371
      6 C                    -0.390716
      7 O                     0.087118
      8 H                     0.226344
      9 H                    -0.014934
     10 H                     0.210187
     11 H                     0.058761
     12 C                    -0.196008
     13 C                    -0.262886
     14 H                     0.151368
     15 H                     0.153020
     16 H                     0.166853
     17 H                     0.142989
     18 H                     0.149161
     19 H                     0.164951
     20 H                     0.115268
     21 H                     0.172229
     22 H                     0.157122
     23 H                     0.126062
     24 C                    -0.387277
     25 C                    -0.355324
     26 C                     0.162993
     27 C                    -0.388834
     28 C                    -0.424511
     29 C                     0.215633
     30 O                     0.203536
     31 H                     0.158498
     32 H                     0.139417
     33 H                     0.164180
     34 H                     0.134421
     35 C                    -0.427185
     36 C                    -0.427959
     37 H                     0.157882
     38 H                     0.153448
     39 H                     0.167554
     40 H                     0.157016
     41 H                     0.151103
     42 H                     0.164302
     43 H                     0.197396
     44 H                     0.170033
     45 H                     0.187301
     46 H                     0.199087
  ----------------------------------------
  Sum of atomic charges =    -0.000000

                    Cartesian Multipole Moments
 -----------------------------------------------------------------
    Charge (ESU x 10^10)
                -0.0000
    Dipole Moment (Debye)
         X      -2.9803      Y       0.0474      Z       2.3435
       Tot       3.7917
    Quadrupole Moments (Debye-Ang)
        XX    -117.7528     XY       0.1361     YY    -110.7089
        XZ       2.7741     YZ      -0.2288     ZZ    -116.3498

 Total job time:  396.60s(wall), 1572.08s(cpu)
        *  Thank you very much for using Q-Chem.  Have a nice day.  *
