 Q-Chem 5.0, Q-Chem, Inc., Pleasanton, CA (2017)
 Q-Chem 5.0.1 for Intel X86 EM64T Linux

User input:
--------------------------------------------------------------
$molecule
0  1
C        +0.22270000        +1.04488000        +0.58595000
C        +0.62626000        -0.41353000        +0.99871000
C        +1.33008000        +1.39974000        -0.43491000
C        +2.63070000        +1.71700000        +0.32855000
C        +3.04336000        +0.29351000        +0.80300000
C        +1.94423000        -0.59299000        +0.15262000
O        +1.62840000        +0.13663000        -1.04376000
H        +3.37234000        +2.13782000        -0.35195000
H        +2.48236000        +2.42488000        +1.14651000
H        +4.02182000        +0.00994000        +0.41161000
H        +3.07359000        +0.18738000        +1.88928000
C        +0.90028000        +2.39077000        -1.49430000
C        +2.35450000        -2.01267000        -0.16812000
H        +3.26311000        -2.00678000        -0.77366000
H        +2.54990000        -2.57059000        +0.75079000
H        +1.57335000        -2.52896000        -0.72872000
H        +1.71845000        +2.58186000        -2.15686000
H        +0.59919000        +3.30478000        -1.02650000
H        +0.07925000        +1.98653000        -2.04874000
H        +0.81693000        -0.48905000        +2.04887000
H        -0.12524000        -1.15356000        +0.81843000
H        -0.74673000        +1.06811000        +0.13365000
H        +0.15552000        +1.72617000        +1.40828000
@C        +3.37510000        +2.72983000        +2.79124000
@C        +3.77866000        +1.27142000        +3.20400000
@C        +4.48248000        +3.08469000        +1.77038000
@C        +5.78310000        +3.40195000        +2.53384000
@C        +6.19576000        +1.97846000        +3.00829000
@C        +5.09663000        +1.09196000        +2.35791000
@O        +4.78080000        +1.82158000        +1.16153000
@H        +6.52474000        +3.82277000        +1.85334000
@H        +5.63476000        +4.10983000        +3.35180000
@H        +7.17422000        +1.69489000        +2.61690000
@H        +6.22599000        +1.87233000        +4.09457000
@C        +4.05268000        +4.07572000        +0.71099000
@C        +5.50690000        -0.32772000        +2.03717000
@H        +6.41551000        -0.32183000        +1.43163000
@H        +5.70230000        -0.88564000        +2.95608000
@H        +4.72575000        -0.84401000        +1.47657000
@H        +4.87085000        +4.26681000        +0.04843000
@H        +3.75159000        +4.98973000        +1.17879000
@H        +3.23165000        +3.67148000        +0.15655000
@H        +3.96933000        +1.19590000        +4.25416000
@H        +3.02716000        +0.53139000        +3.02372000
@H        +2.40567000        +2.75306000        +2.33894000
@H        +3.30792000        +3.41112000        +3.61357000
$end

$rem
JOBTYPE                   SP
METHOD                    B3LYP
DFT_D                     d3_op
BASIS                     6-311++G(d,p)
SYMMETRY                  False
THRESH                    12
SCF_CONVERGENCE           8
MAX_SUB_FILE_NUM          128
MEM_STATIC                400
MEM_TOTAL                 4000
$end
--------------------------------------------------------------

             Standard Nuclear Orientation (Angstroms)
    I     Atom           X                Y                Z
 ----------------------------------------------------------------
    1      C       0.2227000000     1.0448800000     0.5859500000
    2      C       0.6262600000    -0.4135300000     0.9987100000
    3      C       1.3300800000     1.3997400000    -0.4349100000
    4      C       2.6307000000     1.7170000000     0.3285500000
    5      C       3.0433600000     0.2935100000     0.8030000000
    6      C       1.9442300000    -0.5929900000     0.1526200000
    7      O       1.6284000000     0.1366300000    -1.0437600000
    8      H       3.3723400000     2.1378200000    -0.3519500000
    9      H       2.4823600000     2.4248800000     1.1465100000
   10      H       4.0218200000     0.0099400000     0.4116100000
   11      H       3.0735900000     0.1873800000     1.8892800000
   12      C       0.9002800000     2.3907700000    -1.4943000000
   13      C       2.3545000000    -2.0126700000    -0.1681200000
   14      H       3.2631100000    -2.0067800000    -0.7736600000
   15      H       2.5499000000    -2.5705900000     0.7507900000
   16      H       1.5733500000    -2.5289600000    -0.7287200000
   17      H       1.7184500000     2.5818600000    -2.1568600000
   18      H       0.5991900000     3.3047800000    -1.0265000000
   19      H       0.0792500000     1.9865300000    -2.0487400000
   20      H       0.8169300000    -0.4890500000     2.0488700000
   21      H      -0.1252400000    -1.1535600000     0.8184300000
   22      H      -0.7467300000     1.0681100000     0.1336500000
   23      H       0.1555200000     1.7261700000     1.4082800000
   24      GH      3.3751000000     2.7298300000     2.7912400000
   25      GH      3.7786600000     1.2714200000     3.2040000000
   26      GH      4.4824800000     3.0846900000     1.7703800000
   27      GH      5.7831000000     3.4019500000     2.5338400000
   28      GH      6.1957600000     1.9784600000     3.0082900000
   29      GH      5.0966300000     1.0919600000     2.3579100000
   30      GH      4.7808000000     1.8215800000     1.1615300000
   31      GH      6.5247400000     3.8227700000     1.8533400000
   32      GH      5.6347600000     4.1098300000     3.3518000000
   33      GH      7.1742200000     1.6948900000     2.6169000000
   34      GH      6.2259900000     1.8723300000     4.0945700000
   35      GH      4.0526800000     4.0757200000     0.7109900000
   36      GH      5.5069000000    -0.3277200000     2.0371700000
   37      GH      6.4155100000    -0.3218300000     1.4316300000
   38      GH      5.7023000000    -0.8856400000     2.9560800000
   39      GH      4.7257500000    -0.8440100000     1.4765700000
   40      GH      4.8708500000     4.2668100000     0.0484300000
   41      GH      3.7515900000     4.9897300000     1.1787900000
   42      GH      3.2316500000     3.6714800000     0.1565500000
   43      GH      3.9693300000     1.1959000000     4.2541600000
   44      GH      3.0271600000     0.5313900000     3.0237200000
   45      GH      2.4056700000     2.7530600000     2.3389400000
   46      GH      3.3079200000     3.4111200000     3.6135700000
 ----------------------------------------------------------------

   12    -388.6336311710      7.01E-09 Convergence criterion met
 Total energy in the final basis set = -388.63363117

                    Orbital Energies (a.u.)
 --------------------------------------------------------------

 Alpha MOs
 -- Occupied --
-19.115 -10.224 -10.221 -10.166 -10.166 -10.162 -10.161 -10.160
-10.151  -1.049  -0.799  -0.789  -0.748  -0.717  -0.652  -0.616
 -0.562  -0.555  -0.486  -0.474  -0.464  -0.444  -0.420  -0.410
 -0.406  -0.402  -0.384  -0.360  -0.346  -0.343  -0.340  -0.333
 -0.316  -0.299  -0.261

          Ground-State Mulliken Net Atomic Charges

     Atom                 Charge (a.u.)
  ----------------------------------------
      1 C                    -0.388915
      2 C                    -0.394052
      3 C                    -0.302278
      4 C                    -0.374504
      5 C                    -0.272958
      6 C                    -0.302940
      7 O                     0.091949
      8 H                     0.215026
      9 H                     0.108858
     10 H                     0.202979
     11 H                     0.116798
     12 C                    -0.163977
     13 C                    -0.244939
     14 H                     0.151399
     15 H                     0.160305
     16 H                     0.169670
     17 H                     0.143252
     18 H                     0.156500
     19 H                     0.167561
     20 H                     0.132318
     21 H                     0.177283
     22 H                     0.162402
     23 H                     0.140013
     24 GH                    0.053259
     25 GH                    0.043763
     26 GH                   -0.042150
     27 GH                   -0.023226
     28 GH                   -0.001874
     29 GH                   -0.021237
     30 GH                    0.052177
     31 GH                   -0.000576
     32 GH                    0.000014
     33 GH                    0.000191
     34 GH                   -0.000026
     35 GH                    0.005799
     36 GH                   -0.026789
     37 GH                    0.000796
     38 GH                   -0.001332
     39 GH                    0.045660
     40 GH                   -0.000460
     41 GH                   -0.000809
     42 GH                    0.058413
     43 GH                    0.002183
     44 GH                   -0.001242
     45 GH                    0.004292
     46 GH                    0.001421
  ----------------------------------------
  Sum of atomic charges =     0.000000

                    Cartesian Multipole Moments
 -----------------------------------------------------------------
    Charge (ESU x 10^10)
                 0.0000
    Dipole Moment (Debye)
         X      -0.0291      Y       0.4290      Z       1.5021
       Tot       1.5624
    Quadrupole Moments (Debye-Ang)
        XX     -56.4548     XY       0.1536     YY     -54.7989
        XZ       2.4089     YZ      -0.4808     ZZ     -59.0890

 Total job time:  367.01s(wall), 1454.49s(cpu)
        *  Thank you very much for using Q-Chem.  Have a nice day.  *
