 Q-Chem 5.0, Q-Chem, Inc., Pleasanton, CA (2017)
 Q-Chem 5.0.1 for Intel X86 EM64T Linux

User input:
--------------------------------------------------------------
$molecule
0  1
--
0  1
C        +0.22270000        +1.04488000        +0.58595000
C        +0.62626000        -0.41353000        +0.99871000
C        +1.33008000        +1.39974000        -0.43491000
C        +2.63070000        +1.71700000        +0.32855000
C        +3.04336000        +0.29351000        +0.80300000
C        +1.94423000        -0.59299000        +0.15262000
O        +1.62840000        +0.13663000        -1.04376000
H        +3.37234000        +2.13782000        -0.35195000
H        +2.48236000        +2.42488000        +1.14651000
H        +4.02182000        +0.00994000        +0.41161000
H        +3.07359000        +0.18738000        +1.88928000
C        +0.90028000        +2.39077000        -1.49430000
C        +2.35450000        -2.01267000        -0.16812000
H        +3.26311000        -2.00678000        -0.77366000
H        +2.54990000        -2.57059000        +0.75079000
H        +1.57335000        -2.52896000        -0.72872000
H        +1.71845000        +2.58186000        -2.15686000
H        +0.59919000        +3.30478000        -1.02650000
H        +0.07925000        +1.98653000        -2.04874000
H        +0.81693000        -0.48905000        +2.04887000
H        -0.12524000        -1.15356000        +0.81843000
H        -0.74673000        +1.06811000        +0.13365000
H        +0.15552000        +1.72617000        +1.40828000
--
0  1
C        +4.27579000        +3.21124000        +3.42132000
C        +4.67935000        +1.75283000        +3.83408000
C        +5.38317000        +3.56610000        +2.40046000
C        +6.68379000        +3.88336000        +3.16392000
C        +7.09645000        +2.45987000        +3.63837000
C        +5.99732000        +1.57337000        +2.98799000
O        +5.68149000        +2.30299000        +1.79161000
H        +7.42543000        +4.30418000        +2.48342000
H        +6.53545000        +4.59124000        +3.98188000
H        +8.07491000        +2.17630000        +3.24698000
H        +7.12668000        +2.35374000        +4.72465000
C        +4.95337000        +4.55713000        +1.34107000
C        +6.40759000        +0.15369000        +2.66725000
H        +7.31620000        +0.15958000        +2.06171000
H        +6.60299000        -0.40423000        +3.58616000
H        +5.62644000        -0.36260000        +2.10665000
H        +5.77154000        +4.74822000        +0.67851000
H        +4.65228000        +5.47114000        +1.80887000
H        +4.13234000        +4.15289000        +0.78663000
H        +4.87002000        +1.67731000        +4.88424000
H        +3.92785000        +1.01280000        +3.65380000
H        +3.30636000        +3.23447000        +2.96902000
H        +4.20861000        +3.89253000        +4.24365000
$end

$rem
JOBTYPE                   SP
METHOD                    B3LYP
DFT_D                     d3_op
BASIS                     6-311++G(d,p)
SYMMETRY                  False
THRESH                    12
SCF_CONVERGENCE           8
MAX_SUB_FILE_NUM          128
MEM_STATIC                400
MEM_TOTAL                 4000
$end
--------------------------------------------------------------

             Standard Nuclear Orientation (Angstroms)
    I     Atom           X                Y                Z
 ----------------------------------------------------------------
    1      C       3.2075707669    -0.8062061220     1.3146761279
    2      C       3.2732805653     0.7607261105     1.3391060386
    3      C       2.7507965345    -1.0783891797    -0.1384738669
    4      C       1.2447564043    -0.7726274692    -0.2546219018
    5      C       1.2578501462     0.7818749611    -0.1834488299
    6      C       2.7808940242     1.0877542459    -0.1223067003
    7      O       3.3435773865     0.0002901665    -0.8734580482
    8      H       0.8638493396    -1.1215966105    -1.2155224995
    9      H       0.6530359958    -1.2417016154     0.5340439433
   10      H       0.8307355373     1.2266554494    -1.0838517824
   11      H       0.7186875856     1.1837858531     0.6767563994
   12      C       3.2247574624    -2.4016876769    -0.6983111638
   13      C       3.2032891304     2.4215195171    -0.6961877843
   14      H       2.8233743540     2.5223517022    -1.7149042066
   15      H       2.8058902243     3.2404242081    -0.0917701382
   16      H       4.2907638504     2.5080682845    -0.7267015636
   17      H       2.8685877430    -2.5127849022    -1.7011590227
   18      H       2.8464313644    -3.2002549720    -0.0949323881
   19      H       4.2944332421    -2.4278616061    -0.6947609753
   20      H       2.6187726285     1.1726726968     2.0785745745
   21      H       4.2322499750     1.1643589644     1.5888173113
   22      H       4.1660569376    -1.2398854352     1.5099604380
   23      H       2.5627053559    -1.2255495070     2.0584473109
   24      C      -2.1919539025    -0.8064572695     1.3861639984
   25      C      -2.1262441042     0.7604749629     1.4105939091
   26      C      -2.6487281349    -1.0786403272    -0.0669859964
   27      C      -4.1547682652    -0.7728786167    -0.1831340313
   28      C      -4.1416745233     0.7816238136    -0.1119609594
   29      C      -2.6186306452     1.0875030984    -0.0508188298
   30      O      -2.0559472830     0.0000390190    -0.8019701777
   31      H      -4.5356753299    -1.1218477580    -1.1440346289
   32      H      -4.7464886736    -1.2419527629     0.6055318138
   33      H      -4.5687891321     1.2264043019    -1.0123639119
   34      H      -4.6808370838     1.1835347055     0.7482442699
   35      C      -2.1747672070    -2.4019388244    -0.6268232933
   36      C      -2.1962355391     2.4212683696    -0.6246999138
   37      H      -2.5761503154     2.5221005546    -1.6434163361
   38      H      -2.5936344452     3.2401730606    -0.0202822677
   39      H      -1.1087608190     2.5078171369    -0.6552136931
   40      H      -2.5309369265    -2.5130360497    -1.6296711522
   41      H      -2.5530933051    -3.2005061195    -0.0234445176
   42      H      -1.1050914273    -2.4281127537    -0.6232731048
   43      H      -2.7807520409     1.1724215493     2.1500624450
   44      H      -1.1672746944     1.1641078169     1.6603051818
   45      H      -1.2334677318    -1.2401365827     1.5814483085
   46      H      -2.8368193135    -1.2258006545     2.1299351814
 ----------------------------------------------------------------

   13    -777.2692252958      5.22E-09 Convergence criterion met
 Total energy in the final basis set = -777.26922530

                    Orbital Energies (a.u.)
 --------------------------------------------------------------

 Alpha MOs
 -- Occupied --
-19.117 -19.110 -10.227 -10.223 -10.219 -10.216 -10.168 -10.168
-10.165 -10.164 -10.162 -10.159 -10.159 -10.158 -10.158 -10.156
-10.153 -10.148  -1.052  -1.044  -0.802  -0.794  -0.791  -0.784
 -0.752  -0.743  -0.720  -0.714  -0.655  -0.648  -0.620  -0.611
 -0.565  -0.560  -0.558  -0.550  -0.490  -0.482  -0.476  -0.470
 -0.468  -0.459  -0.448  -0.439  -0.423  -0.415  -0.414  -0.411
 -0.406  -0.405  -0.402  -0.395  -0.388  -0.378  -0.362  -0.356
 -0.350  -0.347  -0.344  -0.341  -0.340  -0.335  -0.335  -0.328
 -0.318  -0.311  -0.301  -0.294  -0.265  -0.255

          Ground-State Mulliken Net Atomic Charges

     Atom                 Charge (a.u.)
  ----------------------------------------
      1 C                    -0.424829
      2 C                    -0.471613
      3 C                    -0.039301
      4 C                    -0.236625
      5 C                    -0.167623
      6 C                    -0.049381
      7 O                     0.037678
      8 H                     0.193770
      9 H                    -0.009848
     10 H                     0.169482
     11 H                     0.009615
     12 C                    -0.311591
     13 C                    -0.316623
     14 H                     0.153583
     15 H                     0.150128
     16 H                     0.156884
     17 H                     0.142878
     18 H                     0.146487
     19 H                     0.155445
     20 H                     0.130868
     21 H                     0.173772
     22 H                     0.161980
     23 H                     0.142070
     24 C                    -0.294416
     25 C                    -0.313989
     26 C                     0.072380
     27 C                    -0.600332
     28 C                    -0.526396
     29 C                     0.089224
     30 O                     0.049149
     31 H                     0.156809
     32 H                     0.138426
     33 H                     0.159738
     34 H                     0.136736
     35 C                    -0.201286
     36 C                    -0.289883
     37 H                     0.157353
     38 H                     0.147674
     39 H                     0.148249
     40 H                     0.153105
     41 H                     0.144676
     42 H                     0.139195
     43 H                     0.164481
     44 H                     0.158160
     45 H                     0.134153
     46 H                     0.179587
  ----------------------------------------
  Sum of atomic charges =     0.000000

                    Cartesian Multipole Moments
 -----------------------------------------------------------------
    Charge (ESU x 10^10)
                 0.0000
    Dipole Moment (Debye)
         X      -2.1165      Y       0.0195      Z       2.3117
       Tot       3.1343
    Quadrupole Moments (Debye-Ang)
        XX    -116.2107     XY       0.1971     YY    -109.8336
        XZ       2.5946     YZ      -0.2211     ZZ    -116.2826

 Total job time:  317.42s(wall), 1255.63s(cpu)
        *  Thank you very much for using Q-Chem.  Have a nice day.  *
