 Q-Chem 5.0, Q-Chem, Inc., Pleasanton, CA (2017)
 Q-Chem 5.0.1 for Intel X86 EM64T Linux

User input:
--------------------------------------------------------------
$molecule
0  1
C        +0.21744000        +2.24713000        +4.59080000
C        +0.67016000        +0.82554000        +5.02369000
C        +1.32605000        +2.63726000        +3.57870000
C        +2.62594000        +2.94916000        +4.36396000
C        +3.07978000        +1.52910000        +4.80019000
C        +1.96518000        +0.63999000        +4.19124000
O        +1.64178000        +1.35987000        +2.97918000
H        +3.36076000        +3.41465000        +3.70339000
H        +2.44944000        +3.62852000        +5.20095000
H        +4.04541000        +1.26944000        +4.36148000
H        +3.15811000        +1.40921000        +5.88322000
C        +0.93377000        +3.64330000        +2.52124000
C        +2.35425000        -0.78641000        +3.87758000
H        +3.22890000        -0.81167000        +3.22289000
H        +2.59797000        -1.32349000        +4.79869000
H        +1.53364000        -1.30938000        +3.38045000
H        +1.75058000        +3.79202000        +1.81092000
H        +0.69899000        +4.60672000        +2.98296000
H        +0.05311000        +3.30094000        +1.97257000
H        +0.85201000        +0.73402000        +6.09694000
H        -0.06662000        +0.06997000        +4.74176000
H        -0.75243000        +2.21877000        +4.08937000
H        +0.14846000        +2.95483000        +5.41971000
@C        +0.20186000        +1.01419000        +0.57588000
@C        +0.65458000        -0.40740000        +1.00877000
@C        +1.31047000        +1.40432000        -0.43622000
@C        +2.61036000        +1.71622000        +0.34904000
@C        +3.06420000        +0.29616000        +0.78527000
@C        +1.94960000        -0.59295000        +0.17632000
@O        +1.62620000        +0.12693000        -1.03574000
@H        +3.34518000        +2.18171000        -0.31153000
@H        +2.43386000        +2.39558000        +1.18603000
@H        +4.02983000        +0.03650000        +0.34656000
@H        +3.14253000        +0.17627000        +1.86830000
@C        +0.91819000        +2.41036000        -1.49368000
@C        +2.33867000        -2.01935000        -0.13734000
@H        +3.21332000        -2.04461000        -0.79203000
@H        +2.58239000        -2.55643000        +0.78377000
@H        +1.51806000        -2.54232000        -0.63447000
@H        +1.73500000        +2.55908000        -2.20400000
@H        +0.68341000        +3.37378000        -1.03196000
@H        +0.03753000        +2.06800000        -2.04235000
@H        +0.83643000        -0.49892000        +2.08202000
@H        -0.08220000        -1.16297000        +0.72684000
@H        -0.76801000        +0.98583000        +0.07445000
@H        +0.13288000        +1.72189000        +1.40479000
$end

$rem
JOBTYPE                   SP
METHOD                    B3LYP
DFT_D                     d3_op
BASIS                     6-311++G(d,p)
SYMMETRY                  False
THRESH                    12
SCF_CONVERGENCE           8
MAX_SUB_FILE_NUM          128
MEM_STATIC                400
MEM_TOTAL                 4000
$end
--------------------------------------------------------------

             Standard Nuclear Orientation (Angstroms)
    I     Atom           X                Y                Z
 ----------------------------------------------------------------
    1      C       0.2174400000     2.2471300000     4.5908000000
    2      C       0.6701600000     0.8255400000     5.0236900000
    3      C       1.3260500000     2.6372600000     3.5787000000
    4      C       2.6259400000     2.9491600000     4.3639600000
    5      C       3.0797800000     1.5291000000     4.8001900000
    6      C       1.9651800000     0.6399900000     4.1912400000
    7      O       1.6417800000     1.3598700000     2.9791800000
    8      H       3.3607600000     3.4146500000     3.7033900000
    9      H       2.4494400000     3.6285200000     5.2009500000
   10      H       4.0454100000     1.2694400000     4.3614800000
   11      H       3.1581100000     1.4092100000     5.8832200000
   12      C       0.9337700000     3.6433000000     2.5212400000
   13      C       2.3542500000    -0.7864100000     3.8775800000
   14      H       3.2289000000    -0.8116700000     3.2228900000
   15      H       2.5979700000    -1.3234900000     4.7986900000
   16      H       1.5336400000    -1.3093800000     3.3804500000
   17      H       1.7505800000     3.7920200000     1.8109200000
   18      H       0.6989900000     4.6067200000     2.9829600000
   19      H       0.0531100000     3.3009400000     1.9725700000
   20      H       0.8520100000     0.7340200000     6.0969400000
   21      H      -0.0666200000     0.0699700000     4.7417600000
   22      H      -0.7524300000     2.2187700000     4.0893700000
   23      H       0.1484600000     2.9548300000     5.4197100000
   24      GH      0.2018600000     1.0141900000     0.5758800000
   25      GH      0.6545800000    -0.4074000000     1.0087700000
   26      GH      1.3104700000     1.4043200000    -0.4362200000
   27      GH      2.6103600000     1.7162200000     0.3490400000
   28      GH      3.0642000000     0.2961600000     0.7852700000
   29      GH      1.9496000000    -0.5929500000     0.1763200000
   30      GH      1.6262000000     0.1269300000    -1.0357400000
   31      GH      3.3451800000     2.1817100000    -0.3115300000
   32      GH      2.4338600000     2.3955800000     1.1860300000
   33      GH      4.0298300000     0.0365000000     0.3465600000
   34      GH      3.1425300000     0.1762700000     1.8683000000
   35      GH      0.9181900000     2.4103600000    -1.4936800000
   36      GH      2.3386700000    -2.0193500000    -0.1373400000
   37      GH      3.2133200000    -2.0446100000    -0.7920300000
   38      GH      2.5823900000    -2.5564300000     0.7837700000
   39      GH      1.5180600000    -2.5423200000    -0.6344700000
   40      GH      1.7350000000     2.5590800000    -2.2040000000
   41      GH      0.6834100000     3.3737800000    -1.0319600000
   42      GH      0.0375300000     2.0680000000    -2.0423500000
   43      GH      0.8364300000    -0.4989200000     2.0820200000
   44      GH     -0.0822000000    -1.1629700000     0.7268400000
   45      GH     -0.7680100000     0.9858300000     0.0744500000
   46      GH      0.1328800000     1.7218900000     1.4047900000
 ----------------------------------------------------------------

   12    -388.6392076643      3.21E-09 Convergence criterion met
 Total energy in the final basis set = -388.63920766

                    Orbital Energies (a.u.)
 --------------------------------------------------------------

 Alpha MOs
 -- Occupied --
-19.113 -10.223 -10.223 -10.166 -10.166 -10.166 -10.166 -10.160
-10.160  -1.043  -0.799  -0.788  -0.749  -0.716  -0.650  -0.613
 -0.557  -0.553  -0.484  -0.475  -0.466  -0.440  -0.417  -0.408
 -0.404  -0.402  -0.383  -0.359  -0.344  -0.343  -0.341  -0.335
 -0.317  -0.298  -0.260

          Ground-State Mulliken Net Atomic Charges

     Atom                 Charge (a.u.)
  ----------------------------------------
      1 C                    -0.432122
      2 C                    -0.439053
      3 C                    -0.018166
      4 C                    -0.436516
      5 C                    -0.433152
      6 C                    -0.012974
      7 O                     0.194748
      8 H                     0.156657
      9 H                     0.149332
     10 H                     0.155955
     11 H                     0.149175
     12 C                    -0.270681
     13 C                    -0.274782
     14 H                     0.164281
     15 H                     0.179947
     16 H                     0.164046
     17 H                     0.163522
     18 H                     0.180222
     19 H                     0.163793
     20 H                     0.149241
     21 H                     0.156753
     22 H                     0.155592
     23 H                     0.149277
     24 GH                    0.006251
     25 GH                    0.006541
     26 GH                   -0.022475
     27 GH                    0.005144
     28 GH                    0.007969
     29 GH                   -0.025854
     30 GH                   -0.003920
     31 GH                   -0.000236
     32 GH                   -0.024468
     33 GH                    0.000009
     34 GH                   -0.026759
     35 GH                    0.007617
     36 GH                    0.007145
     37 GH                   -0.000066
     38 GH                   -0.000082
     39 GH                   -0.000059
     40 GH                   -0.000059
     41 GH                   -0.000099
     42 GH                   -0.000063
     43 GH                   -0.026153
     44 GH                   -0.000079
     45 GH                   -0.000056
     46 GH                   -0.025339
  ----------------------------------------
  Sum of atomic charges =    -0.000000

                    Cartesian Multipole Moments
 -----------------------------------------------------------------
    Charge (ESU x 10^10)
                -0.0000
    Dipole Moment (Debye)
         X       0.0087      Y       0.4514      Z       1.4635
       Tot       1.5315
    Quadrupole Moments (Debye-Ang)
        XX     -56.6185     XY       0.2056     YY     -53.8193
        XZ       2.5996     YZ       2.9916     ZZ     -47.3688

 Total job time:  365.67s(wall), 1444.91s(cpu)
        *  Thank you very much for using Q-Chem.  Have a nice day.  *
