 Q-Chem 5.0, Q-Chem, Inc., Pleasanton, CA (2017)
 Q-Chem 5.0.1 for Intel X86 EM64T Linux

User input:
--------------------------------------------------------------
$molecule
0  1
--
0  1
C        -0.54444000        -0.68370000        -0.06689000
C        -0.55709000        +0.71878000        +0.05493000
C        -1.74320000        -1.41616000        -0.12552000
C        -2.93952000        -0.70056000        -0.05285000
C        -2.95313000        +0.68255000        +0.06934000
C        -1.77161000        +1.42404000        +0.12810000
H        -3.90354000        +1.20325000        +0.11710000
H        -3.87892000        -1.24211000        -0.08988000
C        -1.83960000        +2.92746000        +0.24839000
H        -1.24214000        +3.42352000        -0.52065000
H        -1.45503000        +3.26427000        +1.21284000
H        -2.87211000        +3.26623000        +0.14638000
H        -1.73878000        -2.44393000        -0.21875000
H        +0.35825000        -1.18166000        -0.11386000
H        +0.33551000        +1.23549000        +0.09097000
--
0  1
C        -0.68799000        -0.98399000        +4.11990000
C        -0.70064000        +0.41849000        +4.24172000
C        -1.88675000        -1.71645000        +4.06127000
C        -3.08307000        -1.00085000        +4.13394000
C        -3.09668000        +0.38226000        +4.25613000
C        -1.91516000        +1.12375000        +4.31489000
H        -4.04709000        +0.90296000        +4.30389000
H        -4.02247000        -1.54240000        +4.09691000
C        -1.98315000        +2.62717000        +4.43518000
H        -1.38569000        +3.12323000        +3.66614000
H        -1.59858000        +2.96398000        +5.39963000
H        -3.01566000        +2.96594000        +4.33317000
H        -1.88233000        -2.74422000        +3.96804000
H        +0.21470000        -1.48195000        +4.07293000
H        +0.19196000        +0.93520000        +4.27776000
$end

$rem
JOBTYPE                   SP
METHOD                    B3LYP
DFT_D                     d3_op
BASIS                     6-311++G(d,p)
SYMMETRY                  False
THRESH                    12
SCF_CONVERGENCE           8
MAX_SUB_FILE_NUM          128
MEM_STATIC                400
MEM_TOTAL                 4000
$end
--------------------------------------------------------------

             Standard Nuclear Orientation (Angstroms)
    I     Atom           X                Y                Z
 ----------------------------------------------------------------
    1      C       2.2028442135    -1.1879323110     1.1627645164
    2      C       2.1565827274     0.2188560044     1.1902744361
    3      C       2.1651054031    -1.8898753760    -0.0549433228
    4      C       2.0748269746    -1.1394363522    -1.2285006960
    5      C       2.0271036434     0.2480615206    -1.2024040102
    6      C       2.0643869857     0.9594904338    -0.0016840087
    7      H       1.9627438738     0.7959964180    -2.1363814424
    8      H       2.0381153251    -1.6566579931    -2.1815243119
    9      C       2.0224967615     2.4684523689    -0.0270435851
   10      H       2.8445911583     2.9068883518     0.5442629774
   11      H       1.0969094356     2.8452648703     0.4120455909
   12      H       2.0938053680     2.8290770605    -1.0547171556
   13      H       2.2027251133    -2.9208809521    -0.0801385937
   14      H       2.2653922674    -1.7118387256     2.0496858141
   15      H       2.1907285419     0.7124910636     2.0959130823
   16      C      -1.9961594401    -1.2625738240     1.2155674788
   17      C      -2.0424209262     0.1442144915     1.2430773985
   18      C      -2.0338982504    -1.9645168890    -0.0021403604
   19      C      -2.1241766790    -1.2140778651    -1.1756977336
   20      C      -2.1719000101     0.1734200076    -1.1496010477
   21      C      -2.1346166679     0.8848489208     0.0511189537
   22      H      -2.2362597798     0.7213549050    -2.0835784800
   23      H      -2.1608883284    -1.7312995060    -2.1287213494
   24      C      -2.1765068920     2.3938108559     0.0257593773
   25      H      -1.3544124952     2.8322468389     0.5970659399
   26      H      -3.1020942179     2.7706233574     0.4648485533
   27      H      -2.1051982855     2.7544355475    -1.0019141932
   28      H      -1.9962785402    -2.9955224651    -0.0273356313
   29      H      -1.9336113862    -1.7864802386     2.1024887765
   30      H      -2.0082751116     0.6378495506     2.1487160447
 ----------------------------------------------------------------

   13    -543.2897732271      9.47E-09 Convergence criterion met
 Total energy in the final basis set = -543.28977323

                    Orbital Energies (a.u.)
 --------------------------------------------------------------

 Alpha MOs
 -- Occupied --
-10.181 -10.181 -10.169 -10.169 -10.168 -10.168 -10.168 -10.167
-10.166 -10.166 -10.165 -10.165 -10.165 -10.165  -0.854  -0.853
 -0.773  -0.772  -0.743  -0.743  -0.689  -0.687  -0.607  -0.607
 -0.587  -0.586  -0.517  -0.517  -0.462  -0.461  -0.459  -0.458
 -0.428  -0.419  -0.419  -0.416  -0.415  -0.414  -0.388  -0.387
 -0.358  -0.348  -0.347  -0.346  -0.339  -0.338  -0.255  -0.248
 -0.245  -0.238

          Ground-State Mulliken Net Atomic Charges

     Atom                 Charge (a.u.)
  ----------------------------------------
      1 C                    -0.216060
      2 C                    -0.273613
      3 C                    -0.256692
      4 C                    -0.261618
      5 C                    -0.254413
      6 C                     0.724471
      7 H                     0.153109
      8 H                     0.164834
      9 C                    -0.699220
     10 H                     0.147882
     11 H                     0.154180
     12 H                     0.142538
     13 H                     0.146310
     14 H                     0.157274
     15 H                     0.164723
     16 C                    -0.215942
     17 C                    -0.182483
     18 C                    -0.266084
     19 C                    -0.282315
     20 C                    -0.275399
     21 C                     0.651444
     22 H                     0.151474
     23 H                     0.170741
     24 C                    -0.657946
     25 H                     0.141807
     26 H                     0.158035
     27 H                     0.137944
     28 H                     0.143330
     29 H                     0.160578
     30 H                     0.171111
  ----------------------------------------
  Sum of atomic charges =     0.000000

                    Cartesian Multipole Moments
 -----------------------------------------------------------------
    Charge (ESU x 10^10)
                 0.0000
    Dipole Moment (Debye)
         X      -0.0270      Y       0.5951      Z       0.1163
       Tot       0.6069
    Quadrupole Moments (Debye-Ang)
        XX     -94.1257     XY      -0.5211     YY     -77.5174
        XZ       0.7033     YZ       0.0442     ZZ     -78.6403

 Total job time:  100.15s(wall), 398.46s(cpu)
        *  Thank you very much for using Q-Chem.  Have a nice day.  *
