 Q-Chem 5.0, Q-Chem, Inc., Pleasanton, CA (2017)
 Q-Chem 5.0.1 for Intel X86 EM64T Linux

User input:
--------------------------------------------------------------
$molecule
0  1
--
0  1
C        -0.55335000        -0.66344000        -0.04955000
C        -0.58369000        +0.72363000        +0.07143000
C        -1.74416000        -1.38805000        -0.12104000
C        -2.96100000        -0.71253000        -0.06974000
C        -2.98560000        +0.67733000        +0.05133000
C        -1.80096000        +1.41593000        +0.12202000
H        -3.93869000        +1.19496000        +0.09042000
H        -3.89285000        -1.26490000        -0.12448000
C        -1.82561000        +2.92062000        +0.24749000
H        -1.30124000        +3.39464000        -0.58804000
H        -1.33421000        +3.24931000        +1.16844000
H        -2.84892000        +3.30103000        +0.25949000
H        -1.72216000        -2.46788000        -0.21620000
H        +0.39889000        -1.18111000        -0.08841000
H        +0.34820000        +1.27792000        +0.12648000
--
0  1
C        -0.58116000        -1.02869000        +4.13445000
C        -0.61150000        +0.35838000        +4.25543000
C        -1.77197000        -1.75330000        +4.06296000
C        -2.98881000        -1.07778000        +4.11426000
C        -3.01341000        +0.31208000        +4.23533000
C        -1.82877000        +1.05068000        +4.30602000
H        -3.96650000        +0.82971000        +4.27442000
H        -3.92066000        -1.63015000        +4.05952000
C        -1.85342000        +2.55537000        +4.43149000
H        -1.32905000        +3.02939000        +3.59596000
H        -1.36202000        +2.88406000        +5.35244000
H        -2.87673000        +2.93578000        +4.44349000
H        -1.74997000        -2.83313000        +3.96780000
H        +0.37108000        -1.54636000        +4.09559000
H        +0.32039000        +0.91267000        +4.31048000
$end

$rem
JOBTYPE                   SP
METHOD                    B3LYP
DFT_D                     d3_op
BASIS                     6-311++G(d,p)
SYMMETRY                  False
THRESH                    12
SCF_CONVERGENCE           8
MAX_SUB_FILE_NUM          128
MEM_STATIC                400
MEM_TOTAL                 4000
$end
--------------------------------------------------------------

             Standard Nuclear Orientation (Angstroms)
    I     Atom           X                Y                Z
 ----------------------------------------------------------------
    1      C       2.0962319782    -1.1989832697     1.2062278234
    2      C       2.0985693127     0.1936688912     1.2003663735
    3      C       2.0953266968    -1.9060200760     0.0027756793
    4      C       2.0961427514    -1.2073135678    -1.2019928028
    5      C       2.0986756995     0.1880242061    -1.2020672831
    6      C       2.1015781622     0.9090315123    -0.0045536065
    7      H       2.0993837581     0.7237652971    -2.1459053917
    8      H       2.0955363097    -1.7458852528    -2.1434776298
    9      C       2.1099140042     2.4191207178    -0.0026976047
   10      H       2.9876302199     2.8079729800     0.5228282283
   11      H       1.2250040599     2.8193987477     0.5016553154
   12      H       2.1249707230     2.8170380288    -1.0192871153
   13      H       2.0944699743    -2.9902538613     0.0057115531
   14      H       2.0952856892    -1.7347288744     2.1492172707
   15      H       2.0990375565     0.7341794863     2.1419262261
   16      C      -2.1037660186    -1.1916495511     1.2061870262
   17      C      -2.1014286841     0.2010026098     1.2003255762
   18      C      -2.1046713000    -1.8986863574     0.0027348820
   19      C      -2.1038552454    -1.1999798492    -1.2020336001
   20      C      -2.1013222974     0.1953579246    -1.2021080804
   21      C      -2.0984198346     0.9163652309    -0.0045944037
   22      H      -2.1006142387     0.7310990157    -2.1459461889
   23      H      -2.1044616872    -1.7385515342    -2.1435184270
   24      C      -2.0900839927     2.4264544364    -0.0027384019
   25      H      -1.2123677769     2.8153066986     0.5227874310
   26      H      -2.9749939369     2.8267324663     0.5016145181
   27      H      -2.0750272738     2.8243717474    -1.0193279125
   28      H      -2.1055280225    -2.9829201427     0.0056707559
   29      H      -2.1047123077    -1.7273951558     2.1491764735
   30      H      -2.1009604403     0.7415132049     2.1418854288
 ----------------------------------------------------------------

   13    -543.3033542166      6.12E-09 Convergence criterion met
 Total energy in the final basis set = -543.30335422

                    Orbital Energies (a.u.)
 --------------------------------------------------------------

 Alpha MOs
 -- Occupied --
-10.181 -10.181 -10.171 -10.171 -10.171 -10.171 -10.169 -10.169
-10.169 -10.169 -10.169 -10.169 -10.168 -10.168  -0.856  -0.855
 -0.772  -0.771  -0.744  -0.743  -0.686  -0.685  -0.604  -0.604
 -0.584  -0.583  -0.511  -0.511  -0.461  -0.460  -0.454  -0.453
 -0.429  -0.420  -0.419  -0.416  -0.409  -0.408  -0.388  -0.386
 -0.360  -0.349  -0.343  -0.342  -0.340  -0.339  -0.257  -0.248
 -0.247  -0.238

          Ground-State Mulliken Net Atomic Charges

     Atom                 Charge (a.u.)
  ----------------------------------------
      1 C                    -0.216739
      2 C                    -0.212969
      3 C                    -0.280613
      4 C                    -0.272817
      5 C                    -0.232398
      6 C                     0.642549
      7 H                     0.156932
      8 H                     0.170123
      9 C                    -0.689101
     10 H                     0.152474
     11 H                     0.148769
     12 H                     0.140021
     13 H                     0.151492
     14 H                     0.166354
     15 H                     0.175628
     16 C                    -0.227481
     17 C                    -0.190990
     18 C                    -0.279618
     19 C                    -0.266806
     20 C                    -0.245677
     21 C                     0.644529
     22 H                     0.156680
     23 H                     0.170319
     24 C                    -0.693250
     25 H                     0.145450
     26 H                     0.153195
     27 H                     0.139561
     28 H                     0.151353
     29 H                     0.166157
     30 H                     0.176871
  ----------------------------------------
  Sum of atomic charges =     0.000000

                    Cartesian Multipole Moments
 -----------------------------------------------------------------
    Charge (ESU x 10^10)
                 0.0000
    Dipole Moment (Debye)
         X       0.0077      Y       0.6223      Z       0.0534
       Tot       0.6247
    Quadrupole Moments (Debye-Ang)
        XX     -94.3457     XY       0.0315     YY     -78.1411
        XZ      -0.0023     YZ       0.0616     ZZ     -78.5491

 Total job time:  101.10s(wall), 402.17s(cpu)
        *  Thank you very much for using Q-Chem.  Have a nice day.  *
