 Q-Chem 5.0, Q-Chem, Inc., Pleasanton, CA (2017)
 Q-Chem 5.0.1 for Intel X86 EM64T Linux

User input:
--------------------------------------------------------------
$molecule
0  1
--
0  1
C        -0.54444000        -0.68370000        -0.06689000
C        -0.55709000        +0.71878000        +0.05493000
C        -1.74320000        -1.41616000        -0.12552000
C        -2.93952000        -0.70056000        -0.05285000
C        -2.95313000        +0.68255000        +0.06934000
C        -1.77161000        +1.42404000        +0.12810000
H        -3.90354000        +1.20325000        +0.11710000
H        -3.87892000        -1.24211000        -0.08988000
C        -1.83960000        +2.92746000        +0.24839000
H        -1.24214000        +3.42352000        -0.52065000
H        -1.45503000        +3.26427000        +1.21284000
H        -2.87211000        +3.26623000        +0.14638000
H        -1.73878000        -2.44393000        -0.21875000
H        +0.35825000        -1.18166000        -0.11386000
H        +0.33551000        +1.23549000        +0.09097000
--
0  1
C        -0.72900000        -1.06979000        +5.31613000
C        -0.74165000        +0.33269000        +5.43795000
C        -1.92776000        -1.80225000        +5.25750000
C        -3.12408000        -1.08665000        +5.33017000
C        -3.13769000        +0.29646000        +5.45236000
C        -1.95617000        +1.03795000        +5.51112000
H        -4.08810000        +0.81716000        +5.50012000
H        -4.06348000        -1.62820000        +5.29314000
C        -2.02416000        +2.54137000        +5.63141000
H        -1.42670000        +3.03743000        +4.86237000
H        -1.63959000        +2.87818000        +6.59586000
H        -3.05667000        +2.88014000        +5.52940000
H        -1.92334000        -2.83002000        +5.16427000
H        +0.17369000        -1.56775000        +5.26916000
H        +0.15095000        +0.84940000        +5.47399000
$end

$rem
JOBTYPE                   SP
METHOD                    B3LYP
DFT_D                     d3_op
BASIS                     6-311++G(d,p)
SYMMETRY                  False
THRESH                    12
SCF_CONVERGENCE           8
MAX_SUB_FILE_NUM          128
MEM_STATIC                400
MEM_TOTAL                 4000
$end
--------------------------------------------------------------

             Standard Nuclear Orientation (Angstroms)
    I     Atom           X                Y                Z
 ----------------------------------------------------------------
    1      C       2.7835533533    -1.2066136434     1.1711338699
    2      C       2.7517792797     0.2005744970     1.1987424040
    3      C       2.7455700051    -1.9078814357    -0.0469553775
    4      C       2.6699130227    -1.1563077659    -1.2208203064
    5      C       2.6364846017     0.2316064798    -1.1946384883
    6      C       2.6742097393     0.9423677564     0.0064630435
    7      H       2.5832475919     0.7803691005    -2.1288301617
    8      H       2.6333451057    -1.6729279510    -2.1741756206
    9      C       2.6481766715     2.4516890784    -0.0187450312
   10      H       3.4714644364     2.8814281717     0.5574303454
   11      H       1.7240318270     2.8380289576     0.4150713674
   12      H       2.7291918384     2.8117580603    -1.0458939611
   13      H       2.7726011144    -2.9392177070    -0.0722013042
   14      H       2.8355016956    -1.7313207810     2.0582659729
   15      H       2.7858107328     0.6936455988     2.1046925210
   16      C      -2.6161792220    -1.2463885734     1.2077162762
   17      C      -2.6479532956     0.1607995670     1.2353248103
   18      C      -2.6541625702    -1.9476563657    -0.0103729713
   19      C      -2.7298195526    -1.1960826959    -1.1842379001
   20      C      -2.7632479736     0.1918315498    -1.1580560820
   21      C      -2.7255228360     0.9025928264     0.0430454498
   22      H      -2.8164849833     0.7405941705    -2.0922477554
   23      H      -2.7663874696    -1.7127028810    -2.1375932143
   24      C      -2.7515559038     2.4119141484     0.0178373751
   25      H      -1.9282681389     2.8416532417     0.5940127517
   26      H      -3.6757007482     2.7982540276     0.4516537737
   27      H      -2.6705407369     2.7719831303    -1.0093115548
   28      H      -2.6271314608    -2.9789926370    -0.0356188979
   29      H      -2.5642308797    -1.7710957110     2.0948483792
   30      H      -2.6139218425     0.6538706688     2.1412749273
 ----------------------------------------------------------------

   13    -543.2876879501      5.77E-09 Convergence criterion met
 Total energy in the final basis set = -543.28768795

                    Orbital Energies (a.u.)
 --------------------------------------------------------------

 Alpha MOs
 -- Occupied --
-10.182 -10.182 -10.171 -10.171 -10.169 -10.169 -10.168 -10.168
-10.168 -10.168 -10.167 -10.166 -10.166 -10.166  -0.855  -0.855
 -0.773  -0.773  -0.745  -0.744  -0.689  -0.689  -0.608  -0.608
 -0.588  -0.588  -0.518  -0.518  -0.463  -0.462  -0.460  -0.460
 -0.423  -0.421  -0.420  -0.420  -0.416  -0.415  -0.388  -0.388
 -0.355  -0.354  -0.348  -0.348  -0.340  -0.340  -0.252  -0.251
 -0.245  -0.244

          Ground-State Mulliken Net Atomic Charges

     Atom                 Charge (a.u.)
  ----------------------------------------
      1 C                    -0.042910
      2 C                    -0.427113
      3 C                    -0.329595
      4 C                    -0.086136
      5 C                    -0.668189
      6 C                     0.969179
      7 H                     0.140282
      8 H                     0.167873
      9 C                    -0.637252
     10 H                     0.145950
     11 H                     0.153582
     12 H                     0.145586
     13 H                     0.148165
     14 H                     0.157916
     15 H                     0.161895
     16 C                    -0.106266
     17 C                    -0.364830
     18 C                    -0.300503
     19 C                    -0.159740
     20 C                    -0.559286
     21 C                     0.898940
     22 H                     0.141309
     23 H                     0.169283
     24 C                    -0.638955
     25 H                     0.148176
     26 H                     0.158012
     27 H                     0.146295
     28 H                     0.148467
     29 H                     0.158510
     30 H                     0.161355
  ----------------------------------------
  Sum of atomic charges =    -0.000000

                    Cartesian Multipole Moments
 -----------------------------------------------------------------
    Charge (ESU x 10^10)
                -0.0000
    Dipole Moment (Debye)
         X      -0.0189      Y       0.6709      Z       0.1320
       Tot       0.6840
    Quadrupole Moments (Debye-Ang)
        XX     -93.8548     XY      -0.3532     YY     -77.1142
        XZ       0.6358     YZ       0.0743     ZZ     -78.4162

 Total job time:  84.95s(wall), 337.98s(cpu)
        *  Thank you very much for using Q-Chem.  Have a nice day.  *
