 Q-Chem 5.0, Q-Chem, Inc., Pleasanton, CA (2017)
 Q-Chem 5.0.1 for Intel X86 EM64T Linux

User input:
--------------------------------------------------------------
$molecule
0  1
--
0  1
C        -0.54444000        -0.68370000        -0.06689000
C        -0.55709000        +0.71878000        +0.05493000
C        -1.74320000        -1.41616000        -0.12552000
C        -2.93952000        -0.70056000        -0.05285000
C        -2.95313000        +0.68255000        +0.06934000
C        -1.77161000        +1.42404000        +0.12810000
H        -3.90354000        +1.20325000        +0.11710000
H        -3.87892000        -1.24211000        -0.08988000
C        -1.83960000        +2.92746000        +0.24839000
H        -1.24214000        +3.42352000        -0.52065000
H        -1.45503000        +3.26427000        +1.21284000
H        -2.87211000        +3.26623000        +0.14638000
H        -1.73878000        -2.44393000        -0.21875000
H        +0.35825000        -1.18166000        -0.11386000
H        +0.33551000        +1.23549000        +0.09097000
--
0  1
C        -0.50728000        -1.15453000        +5.31242000
C        -0.51993000        +0.24795000        +5.43424000
C        -1.70604000        -1.88699000        +5.25379000
C        -2.90236000        -1.17139000        +5.32646000
C        -2.91597000        +0.21172000        +5.44865000
C        -1.73445000        +0.95321000        +5.50741000
H        -3.86638000        +0.73242000        +5.49641000
H        -3.84176000        -1.71294000        +5.28943000
C        -1.80244000        +2.45663000        +5.62770000
H        -1.20498000        +2.95269000        +4.85866000
H        -1.41787000        +2.79344000        +6.59215000
H        -2.83495000        +2.79540000        +5.52569000
H        -1.70162000        -2.91476000        +5.16056000
H        +0.39541000        -1.65249000        +5.26545000
H        +0.37267000        +0.76466000        +5.47028000
$end

$rem
JOBTYPE                   SP
METHOD                    B3LYP
DFT_D                     d3_op
BASIS                     6-311++G(d,p)
SYMMETRY                  False
THRESH                    12
SCF_CONVERGENCE           8
MAX_SUB_FILE_NUM          128
MEM_STATIC                400
MEM_TOTAL                 4000
$end
--------------------------------------------------------------

             Standard Nuclear Orientation (Angstroms)
    I     Atom           X                Y                Z
 ----------------------------------------------------------------
    1      C       2.6965451515    -1.2308689852     1.1901459201
    2      C       2.6986660643     0.1766609464     1.2185233525
    3      C       2.6988331886    -1.9304152419    -0.0295222584
    4      C       2.6977040898    -1.1766523809    -1.2044205969
    5      C       2.6977591084     0.2116517588    -1.1775782237
    6      C       2.6962556437     0.9207026693     0.0251246548
    7      H       2.7025900634     0.7619975112    -2.1123428413
    8      H       2.6934704199    -1.6917640618    -2.1592828988
    9      C       2.7091645876     2.4302139251     0.0011841361
   10      H       3.5146956781     2.8389474571     0.6164182858
   11      H       1.7754368554     2.8393716850     0.3913652646
   12      H       2.8477466257     2.7886063422    -1.0203822823
   13      H       2.7012546347    -2.9620934684    -0.0551487268
   14      H       2.6932590301    -1.7571132557     2.0778822254
   15      H       2.7020255669     0.6683158610     2.1258750067
   16      C      -2.7034566836    -1.2266299540     1.1899408825
   17      C      -2.7013357708     0.1808999776     1.2183183148
   18      C      -2.7011686465    -1.9261762107    -0.0297272960
   19      C      -2.7022977453    -1.1724133497    -1.2046256345
   20      C      -2.7022427267     0.2158907900    -1.1777832613
   21      C      -2.7037461914     0.9249417005     0.0249196172
   22      H      -2.6974117717     0.7662365424    -2.1125478789
   23      H      -2.7065314152    -1.6875250306    -2.1594879364
   24      C      -2.6908372475     2.4344529563     0.0009790985
   25      H      -1.8853061570     2.8431864883     0.6162132482
   26      H      -3.6245649797     2.8436107162     0.3911602269
   27      H      -2.5522552094     2.7928453734    -1.0205873199
   28      H      -2.6987472004    -2.9578544372    -0.0553537644
   29      H      -2.7067428050    -1.7528742245     2.0776771878
   30      H      -2.6979762682     0.6725548922     2.1256699690
 ----------------------------------------------------------------

   13    -543.2876891069      5.16E-09 Convergence criterion met
 Total energy in the final basis set = -543.28768911

                    Orbital Energies (a.u.)
 --------------------------------------------------------------

 Alpha MOs
 -- Occupied --
-10.182 -10.182 -10.171 -10.171 -10.169 -10.169 -10.168 -10.168
-10.168 -10.168 -10.167 -10.166 -10.166 -10.166  -0.855  -0.855
 -0.773  -0.773  -0.745  -0.744  -0.689  -0.689  -0.608  -0.608
 -0.588  -0.588  -0.518  -0.518  -0.463  -0.462  -0.460  -0.460
 -0.423  -0.421  -0.420  -0.420  -0.416  -0.415  -0.388  -0.388
 -0.355  -0.354  -0.348  -0.348  -0.340  -0.340  -0.252  -0.251
 -0.245  -0.244

          Ground-State Mulliken Net Atomic Charges

     Atom                 Charge (a.u.)
  ----------------------------------------
      1 C                    -0.046668
      2 C                    -0.422522
      3 C                    -0.324198
      4 C                    -0.090350
      5 C                    -0.665738
      6 C                     0.956886
      7 H                     0.140950
      8 H                     0.167741
      9 C                    -0.629824
     10 H                     0.146242
     11 H                     0.154029
     12 H                     0.145406
     13 H                     0.148255
     14 H                     0.157616
     15 H                     0.161734
     16 C                    -0.104406
     17 C                    -0.381362
     18 C                    -0.302064
     19 C                    -0.158811
     20 C                    -0.546607
     21 C                     0.903341
     22 H                     0.141679
     23 H                     0.168720
     24 C                    -0.640343
     25 H                     0.148084
     26 H                     0.157939
     27 H                     0.145641
     28 H                     0.148428
     29 H                     0.158926
     30 H                     0.161277
  ----------------------------------------
  Sum of atomic charges =    -0.000000

                    Cartesian Multipole Moments
 -----------------------------------------------------------------
    Charge (ESU x 10^10)
                -0.0000
    Dipole Moment (Debye)
         X      -0.0055      Y       0.6707      Z       0.1327
       Tot       0.6837
    Quadrupole Moments (Debye-Ang)
        XX     -93.8948     XY       0.0403     YY     -77.1070
        XZ      -0.0304     YZ       0.0609     ZZ     -78.3848

 Total job time:  84.65s(wall), 337.28s(cpu)
        *  Thank you very much for using Q-Chem.  Have a nice day.  *
