 Q-Chem 5.0, Q-Chem, Inc., Pleasanton, CA (2017)
 Q-Chem 5.0.1 for Intel X86 EM64T Linux

User input:
--------------------------------------------------------------
$molecule
0  1
C        -0.58116000        -1.02869000        +4.13445000
C        -0.61150000        +0.35838000        +4.25543000
C        -1.77197000        -1.75330000        +4.06296000
C        -2.98881000        -1.07778000        +4.11426000
C        -3.01341000        +0.31208000        +4.23533000
C        -1.82877000        +1.05068000        +4.30602000
H        -3.96650000        +0.82971000        +4.27442000
H        -3.92066000        -1.63015000        +4.05952000
C        -1.85342000        +2.55537000        +4.43149000
H        -1.32905000        +3.02939000        +3.59596000
H        -1.36202000        +2.88406000        +5.35244000
H        -2.87673000        +2.93578000        +4.44349000
H        -1.74997000        -2.83313000        +3.96780000
H        +0.37108000        -1.54636000        +4.09559000
H        +0.32039000        +0.91267000        +4.31048000
@C        -0.55335000        -0.66344000        -0.04955000
@C        -0.58369000        +0.72363000        +0.07143000
@C        -1.74416000        -1.38805000        -0.12104000
@C        -2.96100000        -0.71253000        -0.06974000
@C        -2.98560000        +0.67733000        +0.05133000
@C        -1.80096000        +1.41593000        +0.12202000
@H        -3.93869000        +1.19496000        +0.09042000
@H        -3.89285000        -1.26490000        -0.12448000
@C        -1.82561000        +2.92062000        +0.24749000
@H        -1.30124000        +3.39464000        -0.58804000
@H        -1.33421000        +3.24931000        +1.16844000
@H        -2.84892000        +3.30103000        +0.25949000
@H        -1.72216000        -2.46788000        -0.21620000
@H        +0.39889000        -1.18111000        -0.08841000
@H        +0.34820000        +1.27792000        +0.12648000
$end

$rem
JOBTYPE                   SP
METHOD                    B3LYP
DFT_D                     d3_op
BASIS                     6-311++G(d,p)
SYMMETRY                  False
THRESH                    12
SCF_CONVERGENCE           8
MAX_SUB_FILE_NUM          128
MEM_STATIC                400
MEM_TOTAL                 4000
$end
--------------------------------------------------------------

             Standard Nuclear Orientation (Angstroms)
    I     Atom           X                Y                Z
 ----------------------------------------------------------------
    1      C      -0.5811600000    -1.0286900000     4.1344500000
    2      C      -0.6115000000     0.3583800000     4.2554300000
    3      C      -1.7719700000    -1.7533000000     4.0629600000
    4      C      -2.9888100000    -1.0777800000     4.1142600000
    5      C      -3.0134100000     0.3120800000     4.2353300000
    6      C      -1.8287700000     1.0506800000     4.3060200000
    7      H      -3.9665000000     0.8297100000     4.2744200000
    8      H      -3.9206600000    -1.6301500000     4.0595200000
    9      C      -1.8534200000     2.5553700000     4.4314900000
   10      H      -1.3290500000     3.0293900000     3.5959600000
   11      H      -1.3620200000     2.8840600000     5.3524400000
   12      H      -2.8767300000     2.9357800000     4.4434900000
   13      H      -1.7499700000    -2.8331300000     3.9678000000
   14      H       0.3710800000    -1.5463600000     4.0955900000
   15      H       0.3203900000     0.9126700000     4.3104800000
   16      GH     -0.5533500000    -0.6634400000    -0.0495500000
   17      GH     -0.5836900000     0.7236300000     0.0714300000
   18      GH     -1.7441600000    -1.3880500000    -0.1210400000
   19      GH     -2.9610000000    -0.7125300000    -0.0697400000
   20      GH     -2.9856000000     0.6773300000     0.0513300000
   21      GH     -1.8009600000     1.4159300000     0.1220200000
   22      GH     -3.9386900000     1.1949600000     0.0904200000
   23      GH     -3.8928500000    -1.2649000000    -0.1244800000
   24      GH     -1.8256100000     2.9206200000     0.2474900000
   25      GH     -1.3012400000     3.3946400000    -0.5880400000
   26      GH     -1.3342100000     3.2493100000     1.1684400000
   27      GH     -2.8489200000     3.3010300000     0.2594900000
   28      GH     -1.7221600000    -2.4678800000    -0.2162000000
   29      GH      0.3988900000    -1.1811100000    -0.0884100000
   30      GH      0.3482000000     1.2779200000     0.1264800000
 ----------------------------------------------------------------

   13    -271.6506257978      8.66E-10 Convergence criterion met
 Total energy in the final basis set = -271.65062580

                    Orbital Energies (a.u.)
 --------------------------------------------------------------

 Alpha MOs
 -- Occupied --
-10.185 -10.176 -10.175 -10.173 -10.173 -10.173 -10.170  -0.860
 -0.775  -0.748  -0.689  -0.608  -0.587  -0.515  -0.464  -0.457
 -0.424  -0.423  -0.412  -0.389  -0.359  -0.346  -0.343  -0.257
 -0.248

          Ground-State Mulliken Net Atomic Charges

     Atom                 Charge (a.u.)
  ----------------------------------------
      1 C                    -0.214864
      2 C                    -0.190394
      3 C                    -0.299135
      4 C                    -0.258753
      5 C                    -0.233956
      6 C                     0.621268
      7 H                     0.160192
      8 H                     0.173369
      9 C                    -0.718732
     10 H                     0.164581
     11 H                     0.154667
     12 H                     0.139761
     13 H                     0.153586
     14 H                     0.168814
     15 H                     0.180601
     16 GH                   -0.016067
     17 GH                    0.006941
     18 GH                    0.011832
     19 GH                   -0.012884
     20 GH                   -0.007979
     21 GH                   -0.008649
     22 GH                    0.002195
     23 GH                    0.002118
     24 GH                    0.017386
     25 GH                   -0.000371
     26 GH                   -0.005512
     27 GH                    0.001965
     28 GH                    0.003148
     29 GH                    0.002688
     30 GH                    0.002184
  ----------------------------------------
  Sum of atomic charges =     0.000000

                    Cartesian Multipole Moments
 -----------------------------------------------------------------
    Charge (ESU x 10^10)
                 0.0000
    Dipole Moment (Debye)
         X       0.0352      Y       0.4023      Z       0.0288
       Tot       0.4049
    Quadrupole Moments (Debye-Ang)
        XX     -39.2669     XY      -0.6680     YY     -38.7100
        XZ       0.1542     YZ       2.3787     ZZ     -46.2379

 Total job time:  104.50s(wall), 412.92s(cpu)
        *  Thank you very much for using Q-Chem.  Have a nice day.  *
