 Q-Chem 5.0, Q-Chem, Inc., Pleasanton, CA (2017)
 Q-Chem 5.0.1 for Intel X86 EM64T Linux

User input:
--------------------------------------------------------------
$molecule
0  1
C        -0.51554000        -1.04990000        +4.11701000
C        -0.52819000        +0.35258000        +4.23883000
C        -1.71430000        -1.78236000        +4.05838000
C        -2.91062000        -1.06676000        +4.13105000
C        -2.92423000        +0.31635000        +4.25324000
C        -1.74271000        +1.05784000        +4.31200000
H        -3.87464000        +0.83705000        +4.30100000
H        -3.85002000        -1.60831000        +4.09402000
C        -1.81070000        +2.56126000        +4.43229000
H        -1.21324000        +3.05732000        +3.66325000
H        -1.42613000        +2.89807000        +5.39674000
H        -2.84321000        +2.90003000        +4.33028000
H        -1.70988000        -2.81013000        +3.96515000
H        +0.38715000        -1.54786000        +4.07004000
H        +0.36441000        +0.86929000        +4.27487000
@C        -0.54444000        -0.68370000        -0.06689000
@C        -0.55709000        +0.71878000        +0.05493000
@C        -1.74320000        -1.41616000        -0.12552000
@C        -2.93952000        -0.70056000        -0.05285000
@C        -2.95313000        +0.68255000        +0.06934000
@C        -1.77161000        +1.42404000        +0.12810000
@H        -3.90354000        +1.20325000        +0.11710000
@H        -3.87892000        -1.24211000        -0.08988000
@C        -1.83960000        +2.92746000        +0.24839000
@H        -1.24214000        +3.42352000        -0.52065000
@H        -1.45503000        +3.26427000        +1.21284000
@H        -2.87211000        +3.26623000        +0.14638000
@H        -1.73878000        -2.44393000        -0.21875000
@H        +0.35825000        -1.18166000        -0.11386000
@H        +0.33551000        +1.23549000        +0.09097000
$end

$rem
JOBTYPE                   SP
METHOD                    B3LYP
DFT_D                     d3_op
BASIS                     6-311++G(d,p)
SYMMETRY                  False
THRESH                    12
SCF_CONVERGENCE           8
MAX_SUB_FILE_NUM          128
MEM_STATIC                400
MEM_TOTAL                 4000
$end
--------------------------------------------------------------

             Standard Nuclear Orientation (Angstroms)
    I     Atom           X                Y                Z
 ----------------------------------------------------------------
    1      C      -0.5155400000    -1.0499000000     4.1170100000
    2      C      -0.5281900000     0.3525800000     4.2388300000
    3      C      -1.7143000000    -1.7823600000     4.0583800000
    4      C      -2.9106200000    -1.0667600000     4.1310500000
    5      C      -2.9242300000     0.3163500000     4.2532400000
    6      C      -1.7427100000     1.0578400000     4.3120000000
    7      H      -3.8746400000     0.8370500000     4.3010000000
    8      H      -3.8500200000    -1.6083100000     4.0940200000
    9      C      -1.8107000000     2.5612600000     4.4322900000
   10      H      -1.2132400000     3.0573200000     3.6632500000
   11      H      -1.4261300000     2.8980700000     5.3967400000
   12      H      -2.8432100000     2.9000300000     4.3302800000
   13      H      -1.7098800000    -2.8101300000     3.9651500000
   14      H       0.3871500000    -1.5478600000     4.0700400000
   15      H       0.3644100000     0.8692900000     4.2748700000
   16      GH     -0.5444400000    -0.6837000000    -0.0668900000
   17      GH     -0.5570900000     0.7187800000     0.0549300000
   18      GH     -1.7432000000    -1.4161600000    -0.1255200000
   19      GH     -2.9395200000    -0.7005600000    -0.0528500000
   20      GH     -2.9531300000     0.6825500000     0.0693400000
   21      GH     -1.7716100000     1.4240400000     0.1281000000
   22      GH     -3.9035400000     1.2032500000     0.1171000000
   23      GH     -3.8789200000    -1.2421100000    -0.0898800000
   24      GH     -1.8396000000     2.9274600000     0.2483900000
   25      GH     -1.2421400000     3.4235200000    -0.5206500000
   26      GH     -1.4550300000     3.2642700000     1.2128400000
   27      GH     -2.8721100000     3.2662300000     0.1463800000
   28      GH     -1.7387800000    -2.4439300000    -0.2187500000
   29      GH      0.3582500000    -1.1816600000    -0.1138600000
   30      GH      0.3355100000     1.2354900000     0.0909700000
 ----------------------------------------------------------------

   12    -271.6438533650      9.90E-09 Convergence criterion met
 Total energy in the final basis set = -271.64385336

                    Orbital Energies (a.u.)
 --------------------------------------------------------------

 Alpha MOs
 -- Occupied --
-10.185 -10.174 -10.172 -10.171 -10.170 -10.169 -10.169  -0.858
 -0.776  -0.747  -0.691  -0.611  -0.591  -0.521  -0.465  -0.462
 -0.424  -0.423  -0.418  -0.390  -0.358  -0.350  -0.342  -0.255
 -0.247

          Ground-State Mulliken Net Atomic Charges

     Atom                 Charge (a.u.)
  ----------------------------------------
      1 C                    -0.234412
      2 C                    -0.184586
      3 C                    -0.296649
      4 C                    -0.248612
      5 C                    -0.239238
      6 C                     0.632946
      7 H                     0.156417
      8 H                     0.172666
      9 C                    -0.690673
     10 H                     0.153847
     11 H                     0.159176
     12 H                     0.138047
     13 H                     0.146127
     14 H                     0.162359
     15 H                     0.173051
     16 GH                   -0.002138
     17 GH                   -0.024199
     18 GH                    0.013882
     19 GH                   -0.023079
     20 GH                    0.004815
     21 GH                   -0.001534
     22 GH                    0.003266
     23 GH                    0.001139
     24 GH                    0.017856
     25 GH                   -0.000136
     26 GH                    0.001238
     27 GH                    0.001555
     28 GH                    0.003515
     29 GH                    0.002835
     30 GH                    0.000520
  ----------------------------------------
  Sum of atomic charges =     0.000000

                    Cartesian Multipole Moments
 -----------------------------------------------------------------
    Charge (ESU x 10^10)
                 0.0000
    Dipole Moment (Debye)
         X       0.0617      Y       0.3888      Z       0.0328
       Tot       0.3950
    Quadrupole Moments (Debye-Ang)
        XX     -39.3849     XY      -0.6428     YY     -38.3919
        XZ       0.1758     YZ       2.3339     ZZ     -46.1135

 Total job time:  87.75s(wall), 349.71s(cpu)
        *  Thank you very much for using Q-Chem.  Have a nice day.  *
