 Q-Chem 5.0, Q-Chem, Inc., Pleasanton, CA (2017)
 Q-Chem 5.0.1 for Intel X86 EM64T Linux

User input:
--------------------------------------------------------------
$molecule
0  1
--
0  1
C        -0.54444000        -0.68370000        -0.06689000
C        -0.55709000        +0.71878000        +0.05493000
C        -1.74320000        -1.41616000        -0.12552000
C        -2.93952000        -0.70056000        -0.05285000
C        -2.95313000        +0.68255000        +0.06934000
C        -1.77161000        +1.42404000        +0.12810000
H        -3.90354000        +1.20325000        +0.11710000
H        -3.87892000        -1.24211000        -0.08988000
C        -1.83960000        +2.92746000        +0.24839000
H        -1.24214000        +3.42352000        -0.52065000
H        -1.45503000        +3.26427000        +1.21284000
H        -2.87211000        +3.26623000        +0.14638000
H        -1.73878000        -2.44393000        -0.21875000
H        +0.35825000        -1.18166000        -0.11386000
H        +0.33551000        +1.23549000        +0.09097000
--
0  1
C        -0.51554000        -1.04990000        +4.11701000
C        -0.52819000        +0.35258000        +4.23883000
C        -1.71430000        -1.78236000        +4.05838000
C        -2.91062000        -1.06676000        +4.13105000
C        -2.92423000        +0.31635000        +4.25324000
C        -1.74271000        +1.05784000        +4.31200000
H        -3.87464000        +0.83705000        +4.30100000
H        -3.85002000        -1.60831000        +4.09402000
C        -1.81070000        +2.56126000        +4.43229000
H        -1.21324000        +3.05732000        +3.66325000
H        -1.42613000        +2.89807000        +5.39674000
H        -2.84321000        +2.90003000        +4.33028000
H        -1.70988000        -2.81013000        +3.96515000
H        +0.38715000        -1.54786000        +4.07004000
H        +0.36441000        +0.86929000        +4.27487000
$end

$rem
JOBTYPE                   SP
METHOD                    B3LYP
DFT_D                     d3_op
BASIS                     6-311++G(d,p)
SYMMETRY                  False
THRESH                    12
SCF_CONVERGENCE           8
MAX_SUB_FILE_NUM          128
MEM_STATIC                400
MEM_TOTAL                 4000
$end
--------------------------------------------------------------

             Standard Nuclear Orientation (Angstroms)
    I     Atom           X                Y                Z
 ----------------------------------------------------------------
    1      C       2.0951339369    -1.2327280608     1.1901911572
    2      C       2.0988187316     0.1747986475     1.2185684916
    3      C       2.0966831286    -1.9322766155    -0.0294768656
    4      C       2.0964294412    -1.1785131447    -1.2043753281
    5      C       2.0980270182     0.2097900800    -1.1775331163
    6      C       2.0972735054     0.9188424077     0.0251696304
    7      H       2.1034995861     0.7601299787    -2.1122976442
    8      H       2.0916535337    -1.6936199466    -2.1592377039
    9      C       2.1118613668     2.4283383758     0.0012293456
   10      H       2.9178267568     2.8361762196     0.6164891119
   11      H       1.1785766517     2.8385339917     0.3913806763
   12      H       2.2508743012     2.7865763500    -1.0203326990
   13      H       2.0979584463    -2.9639569003    -0.0551031356
   14      H       2.0912344942    -1.7589682171     2.0779274192
   15      H       2.1026959086     0.6664496621     2.1259201947
   16      C      -2.1048533611    -1.2247613119     1.1898957128
   17      C      -2.1011685664     0.1827653963     1.2182730473
   18      C      -2.1033041694    -1.9243098666    -0.0297723100
   19      C      -2.1035578568    -1.1705463958    -1.2046707724
   20      C      -2.1019602799     0.2177568289    -1.1778285606
   21      C      -2.1027137926     0.9268091566     0.0248741861
   22      H      -2.0964877120     0.7680967276    -2.1125930885
   23      H      -2.1083337643    -1.6856531978    -2.1595331482
   24      C      -2.0881259313     2.4363051247     0.0009339013
   25      H      -1.2821605413     2.8441429685     0.6161936676
   26      H      -3.0214106463     2.8465007406     0.3910852320
   27      H      -1.9491129969     2.7945430989    -1.0206281434
   28      H      -2.1020288517    -2.9559901514    -0.0553985800
   29      H      -2.1087528038    -1.7510014682     2.0776319748
   30      H      -2.0972913894     0.6744164109     2.1256247503
 ----------------------------------------------------------------

   13    -543.2897805459      5.85E-09 Convergence criterion met
 Total energy in the final basis set = -543.28978055

                    Orbital Energies (a.u.)
 --------------------------------------------------------------

 Alpha MOs
 -- Occupied --
-10.181 -10.181 -10.169 -10.169 -10.168 -10.168 -10.167 -10.167
-10.166 -10.166 -10.165 -10.165 -10.165 -10.165  -0.854  -0.853
 -0.773  -0.772  -0.743  -0.743  -0.689  -0.687  -0.607  -0.606
 -0.587  -0.586  -0.517  -0.517  -0.462  -0.461  -0.459  -0.458
 -0.428  -0.419  -0.419  -0.416  -0.415  -0.414  -0.388  -0.387
 -0.358  -0.348  -0.347  -0.346  -0.339  -0.338  -0.255  -0.248
 -0.244  -0.238

          Ground-State Mulliken Net Atomic Charges

     Atom                 Charge (a.u.)
  ----------------------------------------
      1 C                    -0.179351
      2 C                    -0.314642
      3 C                    -0.239535
      4 C                    -0.302660
      5 C                    -0.243199
      6 C                     0.725695
      7 H                     0.154877
      8 H                     0.163142
      9 C                    -0.685867
     10 H                     0.148237
     11 H                     0.158263
     12 H                     0.141750
     13 H                     0.146278
     14 H                     0.158075
     15 H                     0.164678
     16 C                    -0.253122
     17 C                    -0.147732
     18 C                    -0.281826
     19 C                    -0.241409
     20 C                    -0.272537
     21 C                     0.634835
     22 H                     0.151708
     23 H                     0.171435
     24 C                    -0.663466
     25 H                     0.136797
     26 H                     0.157761
     27 H                     0.137124
     28 H                     0.143307
     29 H                     0.159944
     30 H                     0.171438
  ----------------------------------------
  Sum of atomic charges =     0.000000

                    Cartesian Multipole Moments
 -----------------------------------------------------------------
    Charge (ESU x 10^10)
                 0.0000
    Dipole Moment (Debye)
         X      -0.0119      Y       0.5946      Z       0.1176
       Tot       0.6062
    Quadrupole Moments (Debye-Ang)
        XX     -94.1824     XY       0.0485     YY     -77.5014
        XZ      -0.0313     YZ       0.0230     ZZ     -78.5990

 Total job time:  99.46s(wall), 396.47s(cpu)
        *  Thank you very much for using Q-Chem.  Have a nice day.  *
