 Q-Chem 5.0, Q-Chem, Inc., Pleasanton, CA (2017)
 Q-Chem 5.0.1 for Intel X86 EM64T Linux

User input:
--------------------------------------------------------------
$molecule
0  1
C        -0.68799000        -0.98399000        +4.11990000
C        -0.70064000        +0.41849000        +4.24172000
C        -1.88675000        -1.71645000        +4.06127000
C        -3.08307000        -1.00085000        +4.13394000
C        -3.09668000        +0.38226000        +4.25613000
C        -1.91516000        +1.12375000        +4.31489000
H        -4.04709000        +0.90296000        +4.30389000
H        -4.02247000        -1.54240000        +4.09691000
C        -1.98315000        +2.62717000        +4.43518000
H        -1.38569000        +3.12323000        +3.66614000
H        -1.59858000        +2.96398000        +5.39963000
H        -3.01566000        +2.96594000        +4.33317000
H        -1.88233000        -2.74422000        +3.96804000
H        +0.21470000        -1.48195000        +4.07293000
H        +0.19196000        +0.93520000        +4.27776000
@C        -0.54444000        -0.68370000        -0.06689000
@C        -0.55709000        +0.71878000        +0.05493000
@C        -1.74320000        -1.41616000        -0.12552000
@C        -2.93952000        -0.70056000        -0.05285000
@C        -2.95313000        +0.68255000        +0.06934000
@C        -1.77161000        +1.42404000        +0.12810000
@H        -3.90354000        +1.20325000        +0.11710000
@H        -3.87892000        -1.24211000        -0.08988000
@C        -1.83960000        +2.92746000        +0.24839000
@H        -1.24214000        +3.42352000        -0.52065000
@H        -1.45503000        +3.26427000        +1.21284000
@H        -2.87211000        +3.26623000        +0.14638000
@H        -1.73878000        -2.44393000        -0.21875000
@H        +0.35825000        -1.18166000        -0.11386000
@H        +0.33551000        +1.23549000        +0.09097000
$end

$rem
JOBTYPE                   SP
METHOD                    B3LYP
DFT_D                     d3_op
BASIS                     6-311++G(d,p)
SYMMETRY                  False
THRESH                    12
SCF_CONVERGENCE           8
MAX_SUB_FILE_NUM          128
MEM_STATIC                400
MEM_TOTAL                 4000
$end
--------------------------------------------------------------

             Standard Nuclear Orientation (Angstroms)
    I     Atom           X                Y                Z
 ----------------------------------------------------------------
    1      C      -0.6879900000    -0.9839900000     4.1199000000
    2      C      -0.7006400000     0.4184900000     4.2417200000
    3      C      -1.8867500000    -1.7164500000     4.0612700000
    4      C      -3.0830700000    -1.0008500000     4.1339400000
    5      C      -3.0966800000     0.3822600000     4.2561300000
    6      C      -1.9151600000     1.1237500000     4.3148900000
    7      H      -4.0470900000     0.9029600000     4.3038900000
    8      H      -4.0224700000    -1.5424000000     4.0969100000
    9      C      -1.9831500000     2.6271700000     4.4351800000
   10      H      -1.3856900000     3.1232300000     3.6661400000
   11      H      -1.5985800000     2.9639800000     5.3996300000
   12      H      -3.0156600000     2.9659400000     4.3331700000
   13      H      -1.8823300000    -2.7442200000     3.9680400000
   14      H       0.2147000000    -1.4819500000     4.0729300000
   15      H       0.1919600000     0.9352000000     4.2777600000
   16      GH     -0.5444400000    -0.6837000000    -0.0668900000
   17      GH     -0.5570900000     0.7187800000     0.0549300000
   18      GH     -1.7432000000    -1.4161600000    -0.1255200000
   19      GH     -2.9395200000    -0.7005600000    -0.0528500000
   20      GH     -2.9531300000     0.6825500000     0.0693400000
   21      GH     -1.7716100000     1.4240400000     0.1281000000
   22      GH     -3.9035400000     1.2032500000     0.1171000000
   23      GH     -3.8789200000    -1.2421100000    -0.0898800000
   24      GH     -1.8396000000     2.9274600000     0.2483900000
   25      GH     -1.2421400000     3.4235200000    -0.5206500000
   26      GH     -1.4550300000     3.2642700000     1.2128400000
   27      GH     -2.8721100000     3.2662300000     0.1463800000
   28      GH     -1.7387800000    -2.4439300000    -0.2187500000
   29      GH      0.3582500000    -1.1816600000    -0.1138600000
   30      GH      0.3355100000     1.2354900000     0.0909700000
 ----------------------------------------------------------------

   12    -271.6438581801      9.90E-09 Convergence criterion met
 Total energy in the final basis set = -271.64385818

                    Orbital Energies (a.u.)
 --------------------------------------------------------------

 Alpha MOs
 -- Occupied --
-10.185 -10.174 -10.172 -10.171 -10.170 -10.169 -10.169  -0.858
 -0.776  -0.747  -0.691  -0.611  -0.591  -0.521  -0.465  -0.462
 -0.424  -0.423  -0.418  -0.390  -0.358  -0.350  -0.342  -0.255
 -0.247

          Ground-State Mulliken Net Atomic Charges

     Atom                 Charge (a.u.)
  ----------------------------------------
      1 C                    -0.223260
      2 C                    -0.196695
      3 C                    -0.290097
      4 C                    -0.262298
      5 C                    -0.245410
      6 C                     0.643136
      7 H                     0.156334
      8 H                     0.173182
      9 C                    -0.689726
     10 H                     0.157669
     11 H                     0.159496
     12 H                     0.139124
     13 H                     0.145922
     14 H                     0.161767
     15 H                     0.172421
     16 GH                   -0.022661
     17 GH                   -0.009596
     18 GH                    0.010694
     19 GH                   -0.006541
     20 GH                   -0.000729
     21 GH                    0.002101
     22 GH                    0.003370
     23 GH                    0.002170
     24 GH                    0.015061
     25 GH                   -0.000085
     26 GH                   -0.002242
     27 GH                    0.002058
     28 GH                    0.003566
     29 GH                    0.001150
     30 GH                    0.000119
  ----------------------------------------
  Sum of atomic charges =     0.000000

                    Cartesian Multipole Moments
 -----------------------------------------------------------------
    Charge (ESU x 10^10)
                 0.0000
    Dipole Moment (Debye)
         X       0.0631      Y       0.3881      Z       0.0329
       Tot       0.3946
    Quadrupole Moments (Debye-Ang)
        XX     -39.4130     XY      -0.7070     YY     -38.3388
        XZ       0.1756     YZ       2.3349     ZZ     -46.1119

 Total job time:  88.16s(wall), 350.72s(cpu)
        *  Thank you very much for using Q-Chem.  Have a nice day.  *
