 Q-Chem 5.0, Q-Chem, Inc., Pleasanton, CA (2017)
 Q-Chem 5.0.1 for Intel X86 EM64T Linux

User input:
--------------------------------------------------------------
$molecule
0  1
C        -0.72900000        -1.06979000        +5.31613000
C        -0.74165000        +0.33269000        +5.43795000
C        -1.92776000        -1.80225000        +5.25750000
C        -3.12408000        -1.08665000        +5.33017000
C        -3.13769000        +0.29646000        +5.45236000
C        -1.95617000        +1.03795000        +5.51112000
H        -4.08810000        +0.81716000        +5.50012000
H        -4.06348000        -1.62820000        +5.29314000
C        -2.02416000        +2.54137000        +5.63141000
H        -1.42670000        +3.03743000        +4.86237000
H        -1.63959000        +2.87818000        +6.59586000
H        -3.05667000        +2.88014000        +5.52940000
H        -1.92334000        -2.83002000        +5.16427000
H        +0.17369000        -1.56775000        +5.26916000
H        +0.15095000        +0.84940000        +5.47399000
@C        -0.54444000        -0.68370000        -0.06689000
@C        -0.55709000        +0.71878000        +0.05493000
@C        -1.74320000        -1.41616000        -0.12552000
@C        -2.93952000        -0.70056000        -0.05285000
@C        -2.95313000        +0.68255000        +0.06934000
@C        -1.77161000        +1.42404000        +0.12810000
@H        -3.90354000        +1.20325000        +0.11710000
@H        -3.87892000        -1.24211000        -0.08988000
@C        -1.83960000        +2.92746000        +0.24839000
@H        -1.24214000        +3.42352000        -0.52065000
@H        -1.45503000        +3.26427000        +1.21284000
@H        -2.87211000        +3.26623000        +0.14638000
@H        -1.73878000        -2.44393000        -0.21875000
@H        +0.35825000        -1.18166000        -0.11386000
@H        +0.33551000        +1.23549000        +0.09097000
$end

$rem
JOBTYPE                   SP
METHOD                    B3LYP
DFT_D                     d3_op
BASIS                     6-311++G(d,p)
SYMMETRY                  False
THRESH                    12
SCF_CONVERGENCE           8
MAX_SUB_FILE_NUM          128
MEM_STATIC                400
MEM_TOTAL                 4000
$end
--------------------------------------------------------------

             Standard Nuclear Orientation (Angstroms)
    I     Atom           X                Y                Z
 ----------------------------------------------------------------
    1      C      -0.7290000000    -1.0697900000     5.3161300000
    2      C      -0.7416500000     0.3326900000     5.4379500000
    3      C      -1.9277600000    -1.8022500000     5.2575000000
    4      C      -3.1240800000    -1.0866500000     5.3301700000
    5      C      -3.1376900000     0.2964600000     5.4523600000
    6      C      -1.9561700000     1.0379500000     5.5111200000
    7      H      -4.0881000000     0.8171600000     5.5001200000
    8      H      -4.0634800000    -1.6282000000     5.2931400000
    9      C      -2.0241600000     2.5413700000     5.6314100000
   10      H      -1.4267000000     3.0374300000     4.8623700000
   11      H      -1.6395900000     2.8781800000     6.5958600000
   12      H      -3.0566700000     2.8801400000     5.5294000000
   13      H      -1.9233400000    -2.8300200000     5.1642700000
   14      H       0.1736900000    -1.5677500000     5.2691600000
   15      H       0.1509500000     0.8494000000     5.4739900000
   16      GH     -0.5444400000    -0.6837000000    -0.0668900000
   17      GH     -0.5570900000     0.7187800000     0.0549300000
   18      GH     -1.7432000000    -1.4161600000    -0.1255200000
   19      GH     -2.9395200000    -0.7005600000    -0.0528500000
   20      GH     -2.9531300000     0.6825500000     0.0693400000
   21      GH     -1.7716100000     1.4240400000     0.1281000000
   22      GH     -3.9035400000     1.2032500000     0.1171000000
   23      GH     -3.8789200000    -1.2421100000    -0.0898800000
   24      GH     -1.8396000000     2.9274600000     0.2483900000
   25      GH     -1.2421400000     3.4235200000    -0.5206500000
   26      GH     -1.4550300000     3.2642700000     1.2128400000
   27      GH     -2.8721100000     3.2662300000     0.1463800000
   28      GH     -1.7387800000    -2.4439300000    -0.2187500000
   29      GH      0.3582500000    -1.1816600000    -0.1138600000
   30      GH      0.3355100000     1.2354900000     0.0909700000
 ----------------------------------------------------------------

   12    -271.6436953708      9.63E-09 Convergence criterion met
 Total energy in the final basis set = -271.64369537

                    Orbital Energies (a.u.)
 --------------------------------------------------------------

 Alpha MOs
 -- Occupied --
-10.185 -10.174 -10.172 -10.171 -10.170 -10.169 -10.169  -0.858
 -0.776  -0.747  -0.691  -0.611  -0.591  -0.521  -0.465  -0.462
 -0.424  -0.423  -0.418  -0.390  -0.358  -0.350  -0.342  -0.255
 -0.247

          Ground-State Mulliken Net Atomic Charges

     Atom                 Charge (a.u.)
  ----------------------------------------
      1 C                    -0.104919
      2 C                    -0.373024
      3 C                    -0.314355
      4 C                    -0.150490
      5 C                    -0.551429
      6 C                     0.890220
      7 H                     0.144084
      8 H                     0.172044
      9 C                    -0.636299
     10 H                     0.151613
     11 H                     0.158743
     12 H                     0.146775
     13 H                     0.149680
     14 H                     0.161205
     15 H                     0.163983
     16 GH                   -0.008905
     17 GH                    0.009434
     18 GH                    0.010411
     19 GH                   -0.008088
     20 GH                   -0.007419
     21 GH                   -0.004692
     22 GH                   -0.000949
     23 GH                   -0.000322
     24 GH                    0.004092
     25 GH                   -0.000188
     26 GH                   -0.001406
     27 GH                    0.000545
     28 GH                    0.000932
     29 GH                   -0.000863
     30 GH                   -0.000412
  ----------------------------------------
  Sum of atomic charges =     0.000000

                    Cartesian Multipole Moments
 -----------------------------------------------------------------
    Charge (ESU x 10^10)
                 0.0000
    Dipole Moment (Debye)
         X       0.0620      Y       0.3867      Z       0.0329
       Tot       0.3930
    Quadrupole Moments (Debye-Ang)
        XX     -39.3770     XY      -0.7248     YY     -38.3710
        XZ       0.2429     YZ       2.7984     ZZ     -46.0627

 Total job time:  75.70s(wall), 300.89s(cpu)
        *  Thank you very much for using Q-Chem.  Have a nice day.  *
