 Q-Chem 5.0, Q-Chem, Inc., Pleasanton, CA (2017)
 Q-Chem 5.0.1 for Intel X86 EM64T Linux

User input:
--------------------------------------------------------------
$molecule
0  1
C        -0.54444000        -0.68370000        -0.06689000
C        -0.55709000        +0.71878000        +0.05493000
C        -1.74320000        -1.41616000        -0.12552000
C        -2.93952000        -0.70056000        -0.05285000
C        -2.95313000        +0.68255000        +0.06934000
C        -1.77161000        +1.42404000        +0.12810000
H        -3.90354000        +1.20325000        +0.11710000
H        -3.87892000        -1.24211000        -0.08988000
C        -1.83960000        +2.92746000        +0.24839000
H        -1.24214000        +3.42352000        -0.52065000
H        -1.45503000        +3.26427000        +1.21284000
H        -2.87211000        +3.26623000        +0.14638000
H        -1.73878000        -2.44393000        -0.21875000
H        +0.35825000        -1.18166000        -0.11386000
H        +0.33551000        +1.23549000        +0.09097000
@C        -0.50728000        -1.15453000        +5.31242000
@C        -0.51993000        +0.24795000        +5.43424000
@C        -1.70604000        -1.88699000        +5.25379000
@C        -2.90236000        -1.17139000        +5.32646000
@C        -2.91597000        +0.21172000        +5.44865000
@C        -1.73445000        +0.95321000        +5.50741000
@H        -3.86638000        +0.73242000        +5.49641000
@H        -3.84176000        -1.71294000        +5.28943000
@C        -1.80244000        +2.45663000        +5.62770000
@H        -1.20498000        +2.95269000        +4.85866000
@H        -1.41787000        +2.79344000        +6.59215000
@H        -2.83495000        +2.79540000        +5.52569000
@H        -1.70162000        -2.91476000        +5.16056000
@H        +0.39541000        -1.65249000        +5.26545000
@H        +0.37267000        +0.76466000        +5.47028000
$end

$rem
JOBTYPE                   SP
METHOD                    B3LYP
DFT_D                     d3_op
BASIS                     6-311++G(d,p)
SYMMETRY                  False
THRESH                    12
SCF_CONVERGENCE           8
MAX_SUB_FILE_NUM          128
MEM_STATIC                400
MEM_TOTAL                 4000
$end
--------------------------------------------------------------

             Standard Nuclear Orientation (Angstroms)
    I     Atom           X                Y                Z
 ----------------------------------------------------------------
    1      C      -0.5444400000    -0.6837000000    -0.0668900000
    2      C      -0.5570900000     0.7187800000     0.0549300000
    3      C      -1.7432000000    -1.4161600000    -0.1255200000
    4      C      -2.9395200000    -0.7005600000    -0.0528500000
    5      C      -2.9531300000     0.6825500000     0.0693400000
    6      C      -1.7716100000     1.4240400000     0.1281000000
    7      H      -3.9035400000     1.2032500000     0.1171000000
    8      H      -3.8789200000    -1.2421100000    -0.0898800000
    9      C      -1.8396000000     2.9274600000     0.2483900000
   10      H      -1.2421400000     3.4235200000    -0.5206500000
   11      H      -1.4550300000     3.2642700000     1.2128400000
   12      H      -2.8721100000     3.2662300000     0.1463800000
   13      H      -1.7387800000    -2.4439300000    -0.2187500000
   14      H       0.3582500000    -1.1816600000    -0.1138600000
   15      H       0.3355100000     1.2354900000     0.0909700000
   16      GH     -0.5072800000    -1.1545300000     5.3124200000
   17      GH     -0.5199300000     0.2479500000     5.4342400000
   18      GH     -1.7060400000    -1.8869900000     5.2537900000
   19      GH     -2.9023600000    -1.1713900000     5.3264600000
   20      GH     -2.9159700000     0.2117200000     5.4486500000
   21      GH     -1.7344500000     0.9532100000     5.5074100000
   22      GH     -3.8663800000     0.7324200000     5.4964100000
   23      GH     -3.8417600000    -1.7129400000     5.2894300000
   24      GH     -1.8024400000     2.4566300000     5.6277000000
   25      GH     -1.2049800000     2.9526900000     4.8586600000
   26      GH     -1.4178700000     2.7934400000     6.5921500000
   27      GH     -2.8349500000     2.7954000000     5.5256900000
   28      GH     -1.7016200000    -2.9147600000     5.1605600000
   29      GH      0.3954100000    -1.6524900000     5.2654500000
   30      GH      0.3726700000     0.7646600000     5.4702800000
 ----------------------------------------------------------------

   12    -271.6436813214      9.69E-09 Convergence criterion met
 Total energy in the final basis set = -271.64368132

                    Orbital Energies (a.u.)
 --------------------------------------------------------------

 Alpha MOs
 -- Occupied --
-10.185 -10.174 -10.172 -10.171 -10.170 -10.169 -10.169  -0.858
 -0.776  -0.747  -0.691  -0.611  -0.591  -0.521  -0.465  -0.462
 -0.424  -0.423  -0.418  -0.390  -0.358  -0.350  -0.342  -0.255
 -0.247

          Ground-State Mulliken Net Atomic Charges

     Atom                 Charge (a.u.)
  ----------------------------------------
      1 C                    -0.044036
      2 C                    -0.424111
      3 C                    -0.338544
      4 C                    -0.081802
      5 C                    -0.660648
      6 C                     0.944736
      7 H                     0.143803
      8 H                     0.170639
      9 C                    -0.628807
     10 H                     0.146966
     11 H                     0.158759
     12 H                     0.145584
     13 H                     0.149282
     14 H                     0.160656
     15 H                     0.164715
     16 GH                   -0.005972
     17 GH                    0.012730
     18 GH                    0.010522
     19 GH                   -0.009181
     20 GH                   -0.011226
     21 GH                   -0.001762
     22 GH                   -0.001000
     23 GH                   -0.000371
     24 GH                   -0.001539
     25 GH                   -0.000128
     26 GH                   -0.000184
     27 GH                    0.000929
     28 GH                    0.000834
     29 GH                   -0.000590
     30 GH                   -0.000254
  ----------------------------------------
  Sum of atomic charges =     0.000000

                    Cartesian Multipole Moments
 -----------------------------------------------------------------
    Charge (ESU x 10^10)
                 0.0000
    Dipole Moment (Debye)
         X       0.0621      Y       0.3875      Z       0.0373
       Tot       0.3942
    Quadrupole Moments (Debye-Ang)
        XX     -39.3557     XY      -0.6308     YY     -38.0727
        XZ      -0.0968     YZ       0.7299     ZZ     -46.4138

 Total job time:  75.27s(wall), 299.94s(cpu)
        *  Thank you very much for using Q-Chem.  Have a nice day.  *
