 Q-Chem 5.0, Q-Chem, Inc., Pleasanton, CA (2017)
 Q-Chem 5.0.1 for Intel X86 EM64T Linux

User input:
--------------------------------------------------------------
$molecule
0  1
--
0  1
C        -0.54444000        -0.68370000        -0.06689000
C        -0.55709000        +0.71878000        +0.05493000
C        -1.74320000        -1.41616000        -0.12552000
C        -2.93952000        -0.70056000        -0.05285000
C        -2.95313000        +0.68255000        +0.06934000
C        -1.77161000        +1.42404000        +0.12810000
H        -3.90354000        +1.20325000        +0.11710000
H        -3.87892000        -1.24211000        -0.08988000
C        -1.83960000        +2.92746000        +0.24839000
C        -1.78103000        -2.92226000        -0.24590000
H        -1.39752000        -3.25223000        -1.21323000
H        -2.80572000        -3.28175000        -0.13627000
H        -1.16958000        -3.40777000        +0.51926000
H        -1.24214000        +3.42352000        -0.52065000
H        -1.45503000        +3.26427000        +1.21284000
H        -2.87211000        +3.26623000        +0.14638000
H        +0.35825000        -1.18166000        -0.11386000
H        +0.33551000        +1.23549000        +0.09097000
--
0  1
C        -1.82443000        +0.01010000        +3.87269000
C        -1.83708000        +1.41258000        +3.99451000
C        -3.02319000        -0.72236000        +3.81406000
C        -4.21951000        -0.00676000        +3.88673000
C        -4.23312000        +1.37635000        +4.00892000
C        -3.05160000        +2.11784000        +4.06768000
H        -5.18353000        +1.89705000        +4.05668000
H        -5.15891000        -0.54831000        +3.84970000
C        -3.11959000        +3.62126000        +4.18797000
C        -3.06102000        -2.22846000        +3.69368000
H        -2.67751000        -2.55843000        +2.72635000
H        -4.08571000        -2.58795000        +3.80331000
H        -2.44957000        -2.71397000        +4.45884000
H        -2.52213000        +4.11732000        +3.41893000
H        -2.73502000        +3.95807000        +5.15242000
H        -4.15210000        +3.96003000        +4.08596000
H        -0.92174000        -0.48786000        +3.82572000
H        -0.94448000        +1.92929000        +4.03055000
$end

$rem
JOBTYPE                   SP
METHOD                    B3LYP
DFT_D                     d3_op
BASIS                     6-311++G(d,p)
SYMMETRY                  False
THRESH                    12
SCF_CONVERGENCE           8
MAX_SUB_FILE_NUM          128
MEM_STATIC                400
MEM_TOTAL                 4000
$end
--------------------------------------------------------------

             Standard Nuclear Orientation (Angstroms)
    I     Atom           X                Y                Z
 ----------------------------------------------------------------
    1      C       2.6969145553     0.6987467704     0.9750940667
    2      C       1.7934611971     1.7776661707     0.9344093942
    3      C       2.8136954243    -0.1890275438    -0.1089629713
    4      C       1.9979580124     0.0384906399    -1.2186267862
    5      C       1.1050829388     1.1011542387    -1.2589886367
    6      C       0.9779853025     1.9916305637    -0.1912116124
    7      H       0.4921426385     1.2479961316    -2.1418421480
    8      H       2.0640014915    -0.6353000790    -2.0664264733
    9      C       0.0015188321     3.1389505787    -0.2888540014
   10      C       3.7609363676    -1.3667346211    -0.1084161945
   11      H       4.8018845810    -1.0380302627    -0.1166448999
   12      H       3.5853087787    -1.9898409679    -0.9871282199
   13      H       3.6334839412    -1.9918716275     0.7792889876
   14      H       0.4781432315     4.0973719813    -0.0681413068
   15      H      -0.8173449832     3.0223226361     0.4234372583
   16      H      -0.4162250793     3.1921276190    -1.2957851212
   17      H       3.2822663393     0.5573231303     1.8131765338
   18      H       1.7288239953     2.4191975641     1.7401899904
   19      C      -1.0864578831    -1.0952724333     1.3031359925
   20      C      -1.9899112413    -0.0163530330     1.2624513200
   21      C      -0.9696770142    -1.9830467476     0.2190789545
   22      C      -1.7854144260    -1.7555285639    -0.8905848604
   23      C      -2.6782894997    -0.6928649651    -0.9309467108
   24      C      -2.8053871360     0.1976113600     0.1368303134
   25      H      -3.2912297999    -0.5460230722    -1.8138002222
   26      H      -1.7193709470    -2.4293192827    -1.7383845475
   27      C      -3.7818536064     1.3449313749     0.0391879244
   28      C      -0.0224360709    -3.1607538248     0.2196257313
   29      H       1.0185121426    -2.8320494664     0.2113970259
   30      H      -0.1980636598    -3.7838601717    -0.6590862941
   31      H      -0.1498884973    -3.7858908313     1.1073309134
   32      H      -3.3052292069     2.3033527776     0.2599006190
   33      H      -4.6007174216     1.2283034324     0.7514791841
   34      H      -4.1995975177     1.3981084153    -0.9677431954
   35      H      -0.5011060991    -1.2366960734     2.1412184596
   36      H      -2.0545484432     0.6251783603     2.0682319162
 ----------------------------------------------------------------

   14    -621.9579057108      5.42E-09 Convergence criterion met
 Total energy in the final basis set = -621.95790571

                    Orbital Energies (a.u.)
 --------------------------------------------------------------

 Alpha MOs
 -- Occupied --
-10.177 -10.177 -10.176 -10.176 -10.166 -10.165 -10.165 -10.165
-10.165 -10.164 -10.164 -10.164 -10.164 -10.164 -10.163 -10.163
 -0.856  -0.854  -0.785  -0.784  -0.742  -0.741  -0.719  -0.717
 -0.656  -0.655  -0.609  -0.608  -0.574  -0.573  -0.493  -0.492
 -0.469  -0.468  -0.457  -0.456  -0.428  -0.421  -0.418  -0.417
 -0.415  -0.410  -0.402  -0.401  -0.395  -0.394  -0.374  -0.373
 -0.346  -0.340  -0.339  -0.337  -0.336  -0.335  -0.251  -0.246
 -0.234  -0.231

          Ground-State Mulliken Net Atomic Charges

     Atom                 Charge (a.u.)
  ----------------------------------------
      1 C                    -0.326240
      2 C                    -0.384477
      3 C                     0.404899
      4 C                    -0.346428
      5 C                    -0.307609
      6 C                     0.729956
      7 H                     0.143889
      8 H                     0.154542
      9 C                    -0.659161
     10 C                    -0.648394
     11 H                     0.158873
     12 H                     0.133037
     13 H                     0.157257
     14 H                     0.148886
     15 H                     0.162129
     16 H                     0.136806
     17 H                     0.161534
     18 H                     0.166898
     19 C                    -0.469877
     20 C                    -0.263116
     21 C                     0.641378
     22 C                    -0.292478
     23 C                    -0.550829
     24 C                     0.627903
     25 H                     0.144939
     26 H                     0.164895
     27 C                    -0.598395
     28 C                    -0.675776
     29 H                     0.231111
     30 H                     0.128046
     31 H                     0.149753
     32 H                     0.153039
     33 H                     0.162509
     34 H                     0.138639
     35 H                     0.149534
     36 H                     0.172329
  ----------------------------------------
  Sum of atomic charges =     0.000000

                    Cartesian Multipole Moments
 -----------------------------------------------------------------
    Charge (ESU x 10^10)
                 0.0000
    Dipole Moment (Debye)
         X       0.0809      Y       0.0627      Z       0.1259
       Tot       0.1623
    Quadrupole Moments (Debye-Ang)
        XX     -99.2662     XY      -6.7882     YY     -95.9828
        XZ       3.7493     YZ       2.9304     ZZ     -94.3928

 Total job time:  180.53s(wall), 718.10s(cpu)
        *  Thank you very much for using Q-Chem.  Have a nice day.  *
