 Q-Chem 5.0, Q-Chem, Inc., Pleasanton, CA (2017)
 Q-Chem 5.0.1 for Intel X86 EM64T Linux

User input:
--------------------------------------------------------------
$molecule
0  1
C        -1.82443000        +0.01010000        +3.87269000
C        -1.83708000        +1.41258000        +3.99451000
C        -3.02319000        -0.72236000        +3.81406000
C        -4.21951000        -0.00676000        +3.88673000
C        -4.23312000        +1.37635000        +4.00892000
C        -3.05160000        +2.11784000        +4.06768000
H        -5.18353000        +1.89705000        +4.05668000
H        -5.15891000        -0.54831000        +3.84970000
C        -3.11959000        +3.62126000        +4.18797000
C        -3.06102000        -2.22846000        +3.69368000
H        -2.67751000        -2.55843000        +2.72635000
H        -4.08571000        -2.58795000        +3.80331000
H        -2.44957000        -2.71397000        +4.45884000
H        -2.52213000        +4.11732000        +3.41893000
H        -2.73502000        +3.95807000        +5.15242000
H        -4.15210000        +3.96003000        +4.08596000
H        -0.92174000        -0.48786000        +3.82572000
H        -0.94448000        +1.92929000        +4.03055000
@C        -0.54444000        -0.68370000        -0.06689000
@C        -0.55709000        +0.71878000        +0.05493000
@C        -1.74320000        -1.41616000        -0.12552000
@C        -2.93952000        -0.70056000        -0.05285000
@C        -2.95313000        +0.68255000        +0.06934000
@C        -1.77161000        +1.42404000        +0.12810000
@H        -3.90354000        +1.20325000        +0.11710000
@H        -3.87892000        -1.24211000        -0.08988000
@C        -1.83960000        +2.92746000        +0.24839000
@C        -1.78103000        -2.92226000        -0.24590000
@H        -1.39752000        -3.25223000        -1.21323000
@H        -2.80572000        -3.28175000        -0.13627000
@H        -1.16958000        -3.40777000        +0.51926000
@H        -1.24214000        +3.42352000        -0.52065000
@H        -1.45503000        +3.26427000        +1.21284000
@H        -2.87211000        +3.26623000        +0.14638000
@H        +0.35825000        -1.18166000        -0.11386000
@H        +0.33551000        +1.23549000        +0.09097000
$end

$rem
JOBTYPE                   SP
METHOD                    B3LYP
DFT_D                     d3_op
BASIS                     6-311++G(d,p)
SYMMETRY                  False
THRESH                    12
SCF_CONVERGENCE           8
MAX_SUB_FILE_NUM          128
MEM_STATIC                400
MEM_TOTAL                 4000
$end
--------------------------------------------------------------

             Standard Nuclear Orientation (Angstroms)
    I     Atom           X                Y                Z
 ----------------------------------------------------------------
    1      C      -1.8244300000     0.0101000000     3.8726900000
    2      C      -1.8370800000     1.4125800000     3.9945100000
    3      C      -3.0231900000    -0.7223600000     3.8140600000
    4      C      -4.2195100000    -0.0067600000     3.8867300000
    5      C      -4.2331200000     1.3763500000     4.0089200000
    6      C      -3.0516000000     2.1178400000     4.0676800000
    7      H      -5.1835300000     1.8970500000     4.0566800000
    8      H      -5.1589100000    -0.5483100000     3.8497000000
    9      C      -3.1195900000     3.6212600000     4.1879700000
   10      C      -3.0610200000    -2.2284600000     3.6936800000
   11      H      -2.6775100000    -2.5584300000     2.7263500000
   12      H      -4.0857100000    -2.5879500000     3.8033100000
   13      H      -2.4495700000    -2.7139700000     4.4588400000
   14      H      -2.5221300000     4.1173200000     3.4189300000
   15      H      -2.7350200000     3.9580700000     5.1524200000
   16      H      -4.1521000000     3.9600300000     4.0859600000
   17      H      -0.9217400000    -0.4878600000     3.8257200000
   18      H      -0.9444800000     1.9292900000     4.0305500000
   19      GH     -0.5444400000    -0.6837000000    -0.0668900000
   20      GH     -0.5570900000     0.7187800000     0.0549300000
   21      GH     -1.7432000000    -1.4161600000    -0.1255200000
   22      GH     -2.9395200000    -0.7005600000    -0.0528500000
   23      GH     -2.9531300000     0.6825500000     0.0693400000
   24      GH     -1.7716100000     1.4240400000     0.1281000000
   25      GH     -3.9035400000     1.2032500000     0.1171000000
   26      GH     -3.8789200000    -1.2421100000    -0.0898800000
   27      GH     -1.8396000000     2.9274600000     0.2483900000
   28      GH     -1.7810300000    -2.9222600000    -0.2459000000
   29      GH     -1.3975200000    -3.2522300000    -1.2132300000
   30      GH     -2.8057200000    -3.2817500000    -0.1362700000
   31      GH     -1.1695800000    -3.4077700000     0.5192600000
   32      GH     -1.2421400000     3.4235200000    -0.5206500000
   33      GH     -1.4550300000     3.2642700000     1.2128400000
   34      GH     -2.8721100000     3.2662300000     0.1463800000
   35      GH      0.3582500000    -1.1816600000    -0.1138600000
   36      GH      0.3355100000     1.2354900000     0.0909700000
 ----------------------------------------------------------------

   12    -310.9760748314      9.83E-09 Convergence criterion met
 Total energy in the final basis set = -310.97607483

                    Orbital Energies (a.u.)
 --------------------------------------------------------------

 Alpha MOs
 -- Occupied --
-10.180 -10.180 -10.168 -10.168 -10.168 -10.167 -10.167 -10.167
 -0.858  -0.787  -0.745  -0.721  -0.658  -0.612  -0.577  -0.496
 -0.472  -0.460  -0.424  -0.421  -0.417  -0.404  -0.397  -0.376
 -0.345  -0.342  -0.339  -0.252  -0.236

          Ground-State Mulliken Net Atomic Charges

     Atom                 Charge (a.u.)
  ----------------------------------------
      1 C                    -0.401853
      2 C                    -0.207594
      3 C                     0.583846
      4 C                    -0.369805
      5 C                    -0.502836
      6 C                     0.568305
      7 H                     0.153772
      8 H                     0.163144
      9 C                    -0.629447
     10 C                    -0.633502
     11 H                     0.195273
     12 H                     0.136128
     13 H                     0.151295
     14 H                     0.159161
     15 H                     0.163971
     16 H                     0.138633
     17 H                     0.160401
     18 H                     0.164969
     19 GH                   -0.081471
     20 GH                   -0.007857
     21 GH                   -0.047796
     22 GH                    0.030964
     23 GH                    0.004639
     24 GH                    0.130913
     25 GH                   -0.010580
     26 GH                    0.006068
     27 GH                   -0.016389
     28 GH                    0.001877
     29 GH                   -0.000064
     30 GH                   -0.004339
     31 GH                    0.004563
     32 GH                   -0.001277
     33 GH                   -0.005902
     34 GH                    0.005738
     35 GH                   -0.004800
     36 GH                    0.001852
  ----------------------------------------
  Sum of atomic charges =     0.000000

                    Cartesian Multipole Moments
 -----------------------------------------------------------------
    Charge (ESU x 10^10)
                 0.0000
    Dipole Moment (Debye)
         X       0.0941      Y       0.0031      Z      -0.0141
       Tot       0.0952
    Quadrupole Moments (Debye-Ang)
        XX     -46.5854     XY       0.0548     YY     -44.7624
        XZ       0.3699     YZ       0.6697     ZZ     -52.7709

 Total job time:  151.25s(wall), 601.58s(cpu)
        *  Thank you very much for using Q-Chem.  Have a nice day.  *
