 Q-Chem 5.0, Q-Chem, Inc., Pleasanton, CA (2017)
 Q-Chem 5.0.1 for Intel X86 EM64T Linux

User input:
--------------------------------------------------------------
$molecule
0  1
--
0  1
C        -0.54444000        -0.68370000        -0.06689000
C        -0.55709000        +0.71878000        +0.05493000
C        -1.74320000        -1.41616000        -0.12552000
C        -2.93952000        -0.70056000        -0.05285000
C        -2.95313000        +0.68255000        +0.06934000
C        -1.77161000        +1.42404000        +0.12810000
H        -3.90354000        +1.20325000        +0.11710000
H        -3.87892000        -1.24211000        -0.08988000
C        -1.83960000        +2.92746000        +0.24839000
C        -1.78103000        -2.92226000        -0.24590000
H        -1.39752000        -3.25223000        -1.21323000
H        -2.80572000        -3.28175000        -0.13627000
H        -1.16958000        -3.40777000        +0.51926000
H        -1.24214000        +3.42352000        -0.52065000
H        -1.45503000        +3.26427000        +1.21284000
H        -2.87211000        +3.26623000        +0.14638000
H        +0.35825000        -1.18166000        -0.11386000
H        +0.33551000        +1.23549000        +0.09097000
--
0  1
C        -2.19014000        +0.20833000        +4.99828000
C        -2.20279000        +1.61081000        +5.12010000
C        -3.38890000        -0.52413000        +4.93965000
C        -4.58522000        +0.19147000        +5.01232000
C        -4.59883000        +1.57458000        +5.13451000
C        -3.41731000        +2.31607000        +5.19327000
H        -5.54924000        +2.09528000        +5.18227000
H        -5.52462000        -0.35008000        +4.97529000
C        -3.48530000        +3.81949000        +5.31356000
C        -3.42673000        -2.03023000        +4.81927000
H        -3.04322000        -2.36020000        +3.85194000
H        -4.45142000        -2.38972000        +4.92890000
H        -2.81528000        -2.51574000        +5.58443000
H        -2.88784000        +4.31555000        +4.54452000
H        -3.10073000        +4.15630000        +6.27801000
H        -4.51781000        +4.15826000        +5.21155000
H        -1.28745000        -0.28963000        +4.95131000
H        -1.31019000        +2.12752000        +5.15614000
$end

$rem
JOBTYPE                   SP
METHOD                    B3LYP
DFT_D                     d3_op
BASIS                     6-311++G(d,p)
SYMMETRY                  False
THRESH                    12
SCF_CONVERGENCE           8
MAX_SUB_FILE_NUM          128
MEM_STATIC                400
MEM_TOTAL                 4000
$end
--------------------------------------------------------------

             Standard Nuclear Orientation (Angstroms)
    I     Atom           X                Y                Z
 ----------------------------------------------------------------
    1      C       3.3426476489     0.0865388749     1.0361685328
    2      C       2.7433745234     1.3598764393     0.9983075567
    3      C       3.2652228412    -0.7831161410    -0.0659504347
    4      C       2.5691480462    -0.3371412560    -1.1907313524
    5      C       1.9759796942     0.9177857996    -1.2283915665
    6      C       2.0446278057     1.7929499240    -0.1427466612
    7      H       1.4484036968     1.2304075554    -2.1231652141
    8      H       2.4893352178    -0.9910210495    -2.0528166796
    9      C       1.3938670039     3.1519370471    -0.2377645476
   10      C       3.8831077565    -2.1624150334    -0.0694803592
   11      H       4.9730765399    -2.1084220886    -0.0422725842
   12      H       3.5834185458    -2.7054430479    -0.9675607261
   13      H       3.5735856817    -2.7498873632     0.7989280903
   14      H       2.0902756633     3.9541817673     0.0188964835
   15      H       0.5500241642     3.2346558198     0.4496841632
   16      H       1.0352580869     3.3265829154    -1.2537106674
   17      H       3.8463352752    -0.2130774861     1.8856085778
   18      H       2.8177136775     1.9829200253     1.8176446337
   19      C      -1.9578791949    -0.9175780553     1.2731442885
   20      C      -2.5571523204     0.3557595091     1.2352833124
   21      C      -2.0353040025    -1.7872330712     0.1710253210
   22      C      -2.7313787976    -1.3412581861    -0.9537555967
   23      C      -3.3245471496    -0.0863311306    -0.9914158107
   24      C      -3.2558990381     0.7888329938     0.0942290945
   25      H      -3.8521231470     0.2262906252    -1.8861894584
   26      H      -2.8111916260    -1.9951379797    -1.8158409239
   27      C      -3.9066598398     2.1478201169    -0.0007887919
   28      C      -1.4174190873    -3.1665319635     0.1674953965
   29      H      -0.3274503039    -3.1125390188     0.1947031715
   30      H      -1.7171082980    -3.7095599781    -0.7305849704
   31      H      -1.7269411620    -3.7540042934     1.0359038460
   32      H      -3.2102511805     2.9500648372     0.2558722392
   33      H      -4.7505026796     2.2305388896     0.6866599189
   34      H      -4.2652687568     2.3224659852    -1.0167349117
   35      H      -1.4541915686    -1.2171944162     2.1225843335
   36      H      -2.4828131662     0.9788030952     2.0546203894
 ----------------------------------------------------------------

   13    -621.9532541692      6.50E-09 Convergence criterion met
 Total energy in the final basis set = -621.95325417

                    Orbital Energies (a.u.)
 --------------------------------------------------------------

 Alpha MOs
 -- Occupied --
-10.178 -10.178 -10.178 -10.177 -10.166 -10.166 -10.166 -10.166
-10.166 -10.165 -10.165 -10.165 -10.165 -10.164 -10.164 -10.164
 -0.856  -0.856  -0.785  -0.785  -0.743  -0.743  -0.719  -0.719
 -0.656  -0.656  -0.610  -0.610  -0.575  -0.574  -0.494  -0.493
 -0.470  -0.470  -0.458  -0.457  -0.424  -0.422  -0.418  -0.418
 -0.415  -0.414  -0.402  -0.402  -0.395  -0.395  -0.374  -0.374
 -0.344  -0.342  -0.341  -0.340  -0.337  -0.336  -0.250  -0.249
 -0.234  -0.234

          Ground-State Mulliken Net Atomic Charges

     Atom                 Charge (a.u.)
  ----------------------------------------
      1 C                    -0.163627
      2 C                    -0.350364
      3 C                     0.559997
      4 C                    -0.482867
      5 C                    -0.409073
      6 C                     0.632328
      7 H                     0.151040
      8 H                     0.141304
      9 C                    -0.667169
     10 C                    -0.638764
     11 H                     0.155968
     12 H                     0.145252
     13 H                     0.148958
     14 H                     0.142568
     15 H                     0.165104
     16 H                     0.139060
     17 H                     0.161567
     18 H                     0.166916
     19 C                    -0.285201
     20 C                    -0.191809
     21 C                     0.655226
     22 C                    -0.540225
     23 C                    -0.516352
     24 C                     0.620503
     25 H                     0.146107
     26 H                     0.152307
     27 C                    -0.623785
     28 C                    -0.645755
     29 H                     0.170559
     30 H                     0.139980
     31 H                     0.145631
     32 H                     0.149021
     33 H                     0.158925
     34 H                     0.144693
     35 H                     0.160468
     36 H                     0.161509
  ----------------------------------------
  Sum of atomic charges =     0.000000

                    Cartesian Multipole Moments
 -----------------------------------------------------------------
    Charge (ESU x 10^10)
                 0.0000
    Dipole Moment (Debye)
         X       0.0702      Y       0.0363      Z       0.1513
       Tot       0.1707
    Quadrupole Moments (Debye-Ang)
        XX    -102.3144     XY      -5.3740     YY     -92.2648
        XZ       4.1163     YZ       1.8059     ZZ     -93.8537

 Total job time:  143.22s(wall), 569.92s(cpu)
        *  Thank you very much for using Q-Chem.  Have a nice day.  *
