 Q-Chem 5.0, Q-Chem, Inc., Pleasanton, CA (2017)
 Q-Chem 5.0.1 for Intel X86 EM64T Linux

User input:
--------------------------------------------------------------
$molecule
0  1
--
0  1
C        -0.58454000        -0.67556000        -0.07544000
C        -0.59851000        +0.70920000        +0.05808000
C        -1.77633000        -1.40990000        -0.13252000
C        -2.97828000        -0.70388000        -0.05611000
C        -2.99244000        +0.68477000        +0.07719000
C        -1.80513000        +1.41687000        +0.13452000
H        -3.94378000        +1.20441000        +0.13594000
H        -3.91864000        -1.24474000        -0.10022000
C        -1.81546000        +2.92210000        +0.24949000
C        -1.75732000        -2.91589000        -0.24640000
H        -1.03160000        -3.25185000        -0.99235000
H        -2.73712000        -3.30600000        -0.53105000
H        -1.48213000        -3.37940000        +0.70725000
H        -1.54006000        +3.39064000        -0.70147000
H        -1.10219000        +3.26991000        +1.00208000
H        -2.80465000        +3.29345000        +0.52612000
H        +0.36601000        -1.19708000        -0.13515000
H        +0.34176000        +1.25035000        +0.10232000
--
0  1
C        -0.54655000        -1.07737000        +4.10512000
C        -0.56052000        +0.30739000        +4.23864000
C        -1.73834000        -1.81171000        +4.04804000
C        -2.94029000        -1.10569000        +4.12445000
C        -2.95445000        +0.28296000        +4.25775000
C        -1.76714000        +1.01506000        +4.31508000
H        -3.90579000        +0.80260000        +4.31650000
H        -3.88065000        -1.64655000        +4.08034000
C        -1.77747000        +2.52029000        +4.43005000
C        -1.71933000        -3.31770000        +3.93416000
H        -0.99361000        -3.65366000        +3.18821000
H        -2.69913000        -3.70781000        +3.64951000
H        -1.44414000        -3.78121000        +4.88781000
H        -1.50207000        +2.98883000        +3.47909000
H        -1.06420000        +2.86810000        +5.18264000
H        -2.76666000        +2.89164000        +4.70668000
H        +0.40400000        -1.59889000        +4.04541000
H        +0.37975000        +0.84854000        +4.28288000
$end

$rem
JOBTYPE                   SP
METHOD                    B3LYP
DFT_D                     d3_op
BASIS                     6-311++G(d,p)
SYMMETRY                  False
THRESH                    12
SCF_CONVERGENCE           8
MAX_SUB_FILE_NUM          128
MEM_STATIC                400
MEM_TOTAL                 4000
$end
--------------------------------------------------------------

             Standard Nuclear Orientation (Angstroms)
    I     Atom           X                Y                Z
 ----------------------------------------------------------------
    1      C       2.0692771601    -0.7826366744     1.1967449823
    2      C       2.1275393710     0.6073951060     1.1963287161
    3      C       2.0361192039    -1.5066661015    -0.0022373799
    4      C       2.0688610338    -0.7856345941    -1.1972386639
    5      C       2.1278777373     0.6082215425    -1.1978020373
    6      C       2.1605224641     1.3301086658    -0.0033249642
    7      H       2.1501191451     1.1398795199    -2.1440420716
    8      H       2.0470801552    -1.3185998656    -2.1428737806
    9      C       2.2536854724     2.8368738204     0.0013210494
   10      C       1.9416900767    -3.0141152460     0.0017790080
   11      H       2.6274770035    -3.4562734021     0.7299084597
   12      H       2.1792521271    -3.4304919537    -0.9797576363
   13      H       0.9308143958    -3.3445810813     0.2643472239
   14      H       3.2573847960     3.1675411365     0.2893255757
   15      H       1.5493513485     3.2782211094     0.7121259521
   16      H       2.0400964198     3.2519854747    -0.9860916639
   17      H       2.0477355978    -1.3162813691     2.1421829749
   18      H       2.1492322096     1.1406663332     2.1418758551
   19      C      -2.1269979542    -0.6058554680     1.1967303218
   20      C      -2.0687357433     0.7841763124     1.1963140557
   21      C      -2.1601559104    -1.3298848951    -0.0022520403
   22      C      -2.1274140805    -0.6088533877    -1.1972533243
   23      C      -2.0683973769     0.7850027489    -1.1978166977
   24      C      -2.0357526502     1.5068898722    -0.0033396247
   25      H      -2.0461559692     1.3166607263    -2.1440567320
   26      H      -2.1491949591    -1.1418186592    -2.1428884410
   27      C      -1.9425896419     3.0136550268     0.0013063890
   28      C      -2.2545850375    -2.8373340396     0.0017643476
   29      H      -1.5687981107    -3.2794921957     0.7298937993
   30      H      -2.0170229872    -3.2537107473    -0.9797722967
   31      H      -3.2654607185    -3.1677998749     0.2643325635
   32      H      -0.9388903183     3.3443223429     0.2893109153
   33      H      -2.6469237657     3.4550023158     0.7121112917
   34      H      -2.1561786945     3.4287666811    -0.9861063243
   35      H      -2.1485395164    -1.1395001627     2.1421683145
   36      H      -2.0470429047     1.3174475396     2.1418611947
 ----------------------------------------------------------------

   13    -621.9657209590      7.68E-09 Convergence criterion met
 Total energy in the final basis set = -621.96572096

                    Orbital Energies (a.u.)
 --------------------------------------------------------------

 Alpha MOs
 -- Occupied --
-10.176 -10.176 -10.176 -10.176 -10.167 -10.167 -10.166 -10.166
-10.166 -10.166 -10.166 -10.166 -10.166 -10.166 -10.165 -10.165
 -0.856  -0.856  -0.785  -0.784  -0.741  -0.740  -0.719  -0.717
 -0.655  -0.654  -0.605  -0.604  -0.572  -0.571  -0.491  -0.490
 -0.470  -0.469  -0.450  -0.449  -0.429  -0.421  -0.417  -0.415
 -0.414  -0.409  -0.401  -0.399  -0.396  -0.395  -0.373  -0.372
 -0.348  -0.340  -0.339  -0.337  -0.334  -0.333  -0.254  -0.244
 -0.237  -0.228

          Ground-State Mulliken Net Atomic Charges

     Atom                 Charge (a.u.)
  ----------------------------------------
      1 C                    -0.402516
      2 C                    -0.314759
      3 C                     0.586862
      4 C                    -0.435946
      5 C                    -0.349514
      6 C                     0.603580
      7 H                     0.157491
      8 H                     0.166597
      9 C                    -0.556944
     10 C                    -0.683710
     11 H                     0.140205
     12 H                     0.136669
     13 H                     0.180001
     14 H                     0.161807
     15 H                     0.129489
     16 H                     0.134995
     17 H                     0.172515
     18 H                     0.173143
     19 C                    -0.316179
     20 C                    -0.400829
     21 C                     0.614728
     22 C                    -0.350585
     23 C                    -0.436238
     24 C                     0.573719
     25 H                     0.166100
     26 H                     0.158040
     27 C                    -0.678752
     28 C                    -0.557818
     29 H                     0.129163
     30 H                     0.134871
     31 H                     0.162205
     32 H                     0.178762
     33 H                     0.140805
     34 H                     0.136307
     35 H                     0.172609
     36 H                     0.173127
  ----------------------------------------
  Sum of atomic charges =     0.000000

                    Cartesian Multipole Moments
 -----------------------------------------------------------------
    Charge (ESU x 10^10)
                 0.0000
    Dipole Moment (Debye)
         X      -0.0048      Y       0.0004      Z       0.0769
       Tot       0.0771
    Quadrupole Moments (Debye-Ang)
        XX    -106.7505     XY       1.0130     YY     -90.7590
        XZ      -0.0002     YZ       0.0079     ZZ     -92.4311

 Total job time:  175.64s(wall), 699.04s(cpu)
        *  Thank you very much for using Q-Chem.  Have a nice day.  *
