 Q-Chem 5.0, Q-Chem, Inc., Pleasanton, CA (2017)
 Q-Chem 5.0.1 for Intel X86 EM64T Linux

User input:
--------------------------------------------------------------
$molecule
0  1
C        -2.19014000        +0.20833000        +4.99828000
C        -2.20279000        +1.61081000        +5.12010000
C        -3.38890000        -0.52413000        +4.93965000
C        -4.58522000        +0.19147000        +5.01232000
C        -4.59883000        +1.57458000        +5.13451000
C        -3.41731000        +2.31607000        +5.19327000
H        -5.54924000        +2.09528000        +5.18227000
H        -5.52462000        -0.35008000        +4.97529000
C        -3.48530000        +3.81949000        +5.31356000
C        -3.42673000        -2.03023000        +4.81927000
H        -3.04322000        -2.36020000        +3.85194000
H        -4.45142000        -2.38972000        +4.92890000
H        -2.81528000        -2.51574000        +5.58443000
H        -2.88784000        +4.31555000        +4.54452000
H        -3.10073000        +4.15630000        +6.27801000
H        -4.51781000        +4.15826000        +5.21155000
H        -1.28745000        -0.28963000        +4.95131000
H        -1.31019000        +2.12752000        +5.15614000
@C        -0.54444000        -0.68370000        -0.06689000
@C        -0.55709000        +0.71878000        +0.05493000
@C        -1.74320000        -1.41616000        -0.12552000
@C        -2.93952000        -0.70056000        -0.05285000
@C        -2.95313000        +0.68255000        +0.06934000
@C        -1.77161000        +1.42404000        +0.12810000
@H        -3.90354000        +1.20325000        +0.11710000
@H        -3.87892000        -1.24211000        -0.08988000
@C        -1.83960000        +2.92746000        +0.24839000
@C        -1.78103000        -2.92226000        -0.24590000
@H        -1.39752000        -3.25223000        -1.21323000
@H        -2.80572000        -3.28175000        -0.13627000
@H        -1.16958000        -3.40777000        +0.51926000
@H        -1.24214000        +3.42352000        -0.52065000
@H        -1.45503000        +3.26427000        +1.21284000
@H        -2.87211000        +3.26623000        +0.14638000
@H        +0.35825000        -1.18166000        -0.11386000
@H        +0.33551000        +1.23549000        +0.09097000
$end

$rem
JOBTYPE                   SP
METHOD                    B3LYP
DFT_D                     d3_op
BASIS                     6-311++G(d,p)
SYMMETRY                  False
THRESH                    12
SCF_CONVERGENCE           8
MAX_SUB_FILE_NUM          128
MEM_STATIC                400
MEM_TOTAL                 4000
$end
--------------------------------------------------------------

             Standard Nuclear Orientation (Angstroms)
    I     Atom           X                Y                Z
 ----------------------------------------------------------------
    1      C      -2.1901400000     0.2083300000     4.9982800000
    2      C      -2.2027900000     1.6108100000     5.1201000000
    3      C      -3.3889000000    -0.5241300000     4.9396500000
    4      C      -4.5852200000     0.1914700000     5.0123200000
    5      C      -4.5988300000     1.5745800000     5.1345100000
    6      C      -3.4173100000     2.3160700000     5.1932700000
    7      H      -5.5492400000     2.0952800000     5.1822700000
    8      H      -5.5246200000    -0.3500800000     4.9752900000
    9      C      -3.4853000000     3.8194900000     5.3135600000
   10      C      -3.4267300000    -2.0302300000     4.8192700000
   11      H      -3.0432200000    -2.3602000000     3.8519400000
   12      H      -4.4514200000    -2.3897200000     4.9289000000
   13      H      -2.8152800000    -2.5157400000     5.5844300000
   14      H      -2.8878400000     4.3155500000     4.5445200000
   15      H      -3.1007300000     4.1563000000     6.2780100000
   16      H      -4.5178100000     4.1582600000     5.2115500000
   17      H      -1.2874500000    -0.2896300000     4.9513100000
   18      H      -1.3101900000     2.1275200000     5.1561400000
   19      GH     -0.5444400000    -0.6837000000    -0.0668900000
   20      GH     -0.5570900000     0.7187800000     0.0549300000
   21      GH     -1.7432000000    -1.4161600000    -0.1255200000
   22      GH     -2.9395200000    -0.7005600000    -0.0528500000
   23      GH     -2.9531300000     0.6825500000     0.0693400000
   24      GH     -1.7716100000     1.4240400000     0.1281000000
   25      GH     -3.9035400000     1.2032500000     0.1171000000
   26      GH     -3.8789200000    -1.2421100000    -0.0898800000
   27      GH     -1.8396000000     2.9274600000     0.2483900000
   28      GH     -1.7810300000    -2.9222600000    -0.2459000000
   29      GH     -1.3975200000    -3.2522300000    -1.2132300000
   30      GH     -2.8057200000    -3.2817500000    -0.1362700000
   31      GH     -1.1695800000    -3.4077700000     0.5192600000
   32      GH     -1.2421400000     3.4235200000    -0.5206500000
   33      GH     -1.4550300000     3.2642700000     1.2128400000
   34      GH     -2.8721100000     3.2662300000     0.1463800000
   35      GH      0.3582500000    -1.1816600000    -0.1138600000
   36      GH      0.3355100000     1.2354900000     0.0909700000
 ----------------------------------------------------------------

   11    -310.9760308503      9.27E-09 Convergence criterion met
 Total energy in the final basis set = -310.97603085

                    Orbital Energies (a.u.)
 --------------------------------------------------------------

 Alpha MOs
 -- Occupied --
-10.180 -10.180 -10.168 -10.168 -10.168 -10.167 -10.167 -10.167
 -0.859  -0.787  -0.745  -0.721  -0.658  -0.612  -0.577  -0.496
 -0.472  -0.460  -0.425  -0.421  -0.417  -0.404  -0.397  -0.376
 -0.345  -0.342  -0.339  -0.252  -0.236

          Ground-State Mulliken Net Atomic Charges

     Atom                 Charge (a.u.)
  ----------------------------------------
      1 C                    -0.262319
      2 C                    -0.175516
      3 C                     0.620444
      4 C                    -0.543851
      5 C                    -0.514320
      6 C                     0.611684
      7 H                     0.148296
      8 H                     0.154789
      9 C                    -0.627763
     10 C                    -0.637131
     11 H                     0.172275
     12 H                     0.141389
     13 H                     0.147337
     14 H                     0.151551
     15 H                     0.159382
     16 H                     0.145014
     17 H                     0.164204
     18 H                     0.162731
     19 GH                   -0.000353
     20 GH                   -0.016799
     21 GH                    0.002803
     22 GH                   -0.009204
     23 GH                   -0.004111
     24 GH                    0.019828
     25 GH                   -0.000462
     26 GH                   -0.001594
     27 GH                   -0.010333
     28 GH                    0.001893
     29 GH                    0.000018
     30 GH                   -0.000138
     31 GH                    0.001588
     32 GH                   -0.000967
     33 GH                   -0.000808
     34 GH                    0.001979
     35 GH                   -0.000689
     36 GH                   -0.000848
  ----------------------------------------
  Sum of atomic charges =     0.000000

                    Cartesian Multipole Moments
 -----------------------------------------------------------------
    Charge (ESU x 10^10)
                -0.0000
    Dipole Moment (Debye)
         X       0.0928      Y       0.0026      Z      -0.0042
       Tot       0.0930
    Quadrupole Moments (Debye-Ang)
        XX     -46.5875     XY       0.0755     YY     -44.6988
        XZ       0.4404     YZ       0.6876     ZZ     -52.7564

 Total job time:  119.88s(wall), 476.94s(cpu)
        *  Thank you very much for using Q-Chem.  Have a nice day.  *
