 Q-Chem 5.0, Q-Chem, Inc., Pleasanton, CA (2017)
 Q-Chem 5.0.1 for Intel X86 EM64T Linux

User input:
--------------------------------------------------------------
$molecule
0  1
C        -0.58454000        -0.67556000        -0.07544000
C        -0.59851000        +0.70920000        +0.05808000
C        -1.77633000        -1.40990000        -0.13252000
C        -2.97828000        -0.70388000        -0.05611000
C        -2.99244000        +0.68477000        +0.07719000
C        -1.80513000        +1.41687000        +0.13452000
H        -3.94378000        +1.20441000        +0.13594000
H        -3.91864000        -1.24474000        -0.10022000
C        -1.81546000        +2.92210000        +0.24949000
C        -1.75732000        -2.91589000        -0.24640000
H        -1.03160000        -3.25185000        -0.99235000
H        -2.73712000        -3.30600000        -0.53105000
H        -1.48213000        -3.37940000        +0.70725000
H        -1.54006000        +3.39064000        -0.70147000
H        -1.10219000        +3.26991000        +1.00208000
H        -2.80465000        +3.29345000        +0.52612000
H        +0.36601000        -1.19708000        -0.13515000
H        +0.34176000        +1.25035000        +0.10232000
@C        -0.54655000        -1.07737000        +4.10512000
@C        -0.56052000        +0.30739000        +4.23864000
@C        -1.73834000        -1.81171000        +4.04804000
@C        -2.94029000        -1.10569000        +4.12445000
@C        -2.95445000        +0.28296000        +4.25775000
@C        -1.76714000        +1.01506000        +4.31508000
@H        -3.90579000        +0.80260000        +4.31650000
@H        -3.88065000        -1.64655000        +4.08034000
@C        -1.77747000        +2.52029000        +4.43005000
@C        -1.71933000        -3.31770000        +3.93416000
@H        -0.99361000        -3.65366000        +3.18821000
@H        -2.69913000        -3.70781000        +3.64951000
@H        -1.44414000        -3.78121000        +4.88781000
@H        -1.50207000        +2.98883000        +3.47909000
@H        -1.06420000        +2.86810000        +5.18264000
@H        -2.76666000        +2.89164000        +4.70668000
@H        +0.40400000        -1.59889000        +4.04541000
@H        +0.37975000        +0.84854000        +4.28288000
$end

$rem
JOBTYPE                   SP
METHOD                    B3LYP
DFT_D                     d3_op
BASIS                     6-311++G(d,p)
SYMMETRY                  False
THRESH                    12
SCF_CONVERGENCE           8
MAX_SUB_FILE_NUM          128
MEM_STATIC                400
MEM_TOTAL                 4000
$end
--------------------------------------------------------------

             Standard Nuclear Orientation (Angstroms)
    I     Atom           X                Y                Z
 ----------------------------------------------------------------
    1      C      -0.5845400000    -0.6755600000    -0.0754400000
    2      C      -0.5985100000     0.7092000000     0.0580800000
    3      C      -1.7763300000    -1.4099000000    -0.1325200000
    4      C      -2.9782800000    -0.7038800000    -0.0561100000
    5      C      -2.9924400000     0.6847700000     0.0771900000
    6      C      -1.8051300000     1.4168700000     0.1345200000
    7      H      -3.9437800000     1.2044100000     0.1359400000
    8      H      -3.9186400000    -1.2447400000    -0.1002200000
    9      C      -1.8154600000     2.9221000000     0.2494900000
   10      C      -1.7573200000    -2.9158900000    -0.2464000000
   11      H      -1.0316000000    -3.2518500000    -0.9923500000
   12      H      -2.7371200000    -3.3060000000    -0.5310500000
   13      H      -1.4821300000    -3.3794000000     0.7072500000
   14      H      -1.5400600000     3.3906400000    -0.7014700000
   15      H      -1.1021900000     3.2699100000     1.0020800000
   16      H      -2.8046500000     3.2934500000     0.5261200000
   17      H       0.3660100000    -1.1970800000    -0.1351500000
   18      H       0.3417600000     1.2503500000     0.1023200000
   19      GH     -0.5465500000    -1.0773700000     4.1051200000
   20      GH     -0.5605200000     0.3073900000     4.2386400000
   21      GH     -1.7383400000    -1.8117100000     4.0480400000
   22      GH     -2.9402900000    -1.1056900000     4.1244500000
   23      GH     -2.9544500000     0.2829600000     4.2577500000
   24      GH     -1.7671400000     1.0150600000     4.3150800000
   25      GH     -3.9057900000     0.8026000000     4.3165000000
   26      GH     -3.8806500000    -1.6465500000     4.0803400000
   27      GH     -1.7774700000     2.5202900000     4.4300500000
   28      GH     -1.7193300000    -3.3177000000     3.9341600000
   29      GH     -0.9936100000    -3.6536600000     3.1882100000
   30      GH     -2.6991300000    -3.7078100000     3.6495100000
   31      GH     -1.4441400000    -3.7812100000     4.8878100000
   32      GH     -1.5020700000     2.9888300000     3.4790900000
   33      GH     -1.0642000000     2.8681000000     5.1826400000
   34      GH     -2.7666600000     2.8916400000     4.7066800000
   35      GH      0.4040000000    -1.5988900000     4.0454100000
   36      GH      0.3797500000     0.8485400000     4.2828800000
 ----------------------------------------------------------------

   13    -310.9812120779      9.61E-10 Convergence criterion met
 Total energy in the final basis set = -310.98121208

                    Orbital Energies (a.u.)
 --------------------------------------------------------------

 Alpha MOs
 -- Occupied --
-10.180 -10.180 -10.171 -10.170 -10.170 -10.170 -10.167 -10.167
 -0.860  -0.787  -0.744  -0.721  -0.657  -0.608  -0.575  -0.494
 -0.473  -0.453  -0.425  -0.419  -0.417  -0.402  -0.398  -0.375
 -0.346  -0.342  -0.337  -0.254  -0.237

          Ground-State Mulliken Net Atomic Charges

     Atom                 Charge (a.u.)
  ----------------------------------------
      1 C                    -0.381046
      2 C                    -0.326037
      3 C                     0.614648
      4 C                    -0.459975
      5 C                    -0.354680
      6 C                     0.630435
      7 H                     0.160080
      8 H                     0.168678
      9 C                    -0.596510
     10 C                    -0.697119
     11 H                     0.142084
     12 H                     0.138282
     13 H                     0.178515
     14 H                     0.162871
     15 H                     0.141169
     16 H                     0.136891
     17 H                     0.177015
     18 H                     0.175652
     19 GH                    0.009406
     20 GH                   -0.013138
     21 GH                   -0.023921
     22 GH                   -0.005926
     23 GH                    0.024451
     24 GH                   -0.053516
     25 GH                    0.003815
     26 GH                    0.002030
     27 GH                    0.016303
     28 GH                    0.018247
     29 GH                   -0.001838
     30 GH                    0.000674
     31 GH                   -0.000737
     32 GH                    0.009152
     33 GH                   -0.000404
     34 GH                   -0.000287
     35 GH                    0.003046
     36 GH                    0.001691
  ----------------------------------------
  Sum of atomic charges =     0.000000

                    Cartesian Multipole Moments
 -----------------------------------------------------------------
    Charge (ESU x 10^10)
                 0.0000
    Dipole Moment (Debye)
         X       0.0597      Y       0.0013      Z       0.0080
       Tot       0.0603
    Quadrupole Moments (Debye-Ang)
        XX     -46.3160     XY      -0.0015     YY     -44.8252
        XZ      -0.0771     YZ       0.6169     ZZ     -52.7378

 Total job time:  163.93s(wall), 652.20s(cpu)
        *  Thank you very much for using Q-Chem.  Have a nice day.  *
