 Q-Chem 5.0, Q-Chem, Inc., Pleasanton, CA (2017)
 Q-Chem 5.0.1 for Intel X86 EM64T Linux

User input:
--------------------------------------------------------------
$molecule
0  1
--
0  1
C        +0.22270000        +1.04488000        +0.58595000
C        +0.62626000        -0.41353000        +0.99871000
C        -1.18200000        +1.23223000        +0.04377000
C        -0.37457000        -1.51643000        +0.72333000
O        -2.09172000        +0.78832000        +0.93966000
O        -1.47336000        +1.75939000        -0.99882000
O        -0.91364000        -1.42792000        -0.50620000
O        -0.62208000        -2.40877000        +1.49911000
C        -1.86134000        -2.44741000        -0.86560000
C        -3.47068000        +0.87492000        +0.53920000
C        +1.33008000        +1.39974000        -0.43491000
C        +2.63070000        +1.71700000        +0.32855000
C        +3.04336000        +0.29351000        +0.80300000
C        +1.94423000        -0.59299000        +0.15262000
O        +1.62840000        +0.13663000        -1.04376000
H        +0.27811000        +1.68786000        +1.46900000
H        +0.83923000        -0.48042000        +2.06408000
H        -2.68749000        -2.46677000        -0.15296000
H        -3.76076000        +1.91522000        +0.38406000
H        +3.37234000        +2.13782000        -0.35195000
H        +2.48236000        +2.42488000        +1.14651000
H        +4.02182000        +0.00994000        +0.41161000
H        +3.07359000        +0.18738000        +1.88928000
H        -2.21148000        -2.17765000        -1.85937000
H        -1.38062000        -3.42697000        -0.88096000
H        -4.03855000        +0.43623000        +1.35671000
H        -3.63120000        +0.31700000        -0.38495000
H        +1.03270000        +2.19943000        -1.08064000
H        +2.24339000        -1.61496000        +0.04786000
--
0  1
C        +0.24670000        +2.40413000        +4.98048000
C        +0.65026000        +0.94572000        +5.39324000
C        -1.15800000        +2.59148000        +4.43830000
C        -0.35057000        -0.15718000        +5.11786000
O        -2.06772000        +2.14757000        +5.33419000
O        -1.44936000        +3.11864000        +3.39571000
O        -0.88964000        -0.06867000        +3.88833000
O        -0.59808000        -1.04952000        +5.89364000
C        -1.83734000        -1.08816000        +3.52893000
C        -3.44668000        +2.23417000        +4.93373000
C        +1.35408000        +2.75899000        +3.95962000
C        +2.65470000        +3.07625000        +4.72308000
C        +3.06736000        +1.65276000        +5.19753000
C        +1.96823000        +0.76626000        +4.54715000
O        +1.65240000        +1.49588000        +3.35077000
H        +0.30211000        +3.04711000        +5.86353000
H        +0.86323000        +0.87883000        +6.45861000
H        -2.66349000        -1.10752000        +4.24157000
H        -3.73676000        +3.27447000        +4.77859000
H        +3.39634000        +3.49707000        +4.04258000
H        +2.50636000        +3.78413000        +5.54104000
H        +4.04582000        +1.36919000        +4.80614000
H        +3.09759000        +1.54663000        +6.28381000
H        -2.18748000        -0.81840000        +2.53516000
H        -1.35662000        -2.06772000        +3.51357000
H        -4.01455000        +1.79548000        +5.75124000
H        -3.60720000        +1.67625000        +4.00958000
H        +1.05670000        +3.55868000        +3.31389000
H        +2.26739000        -0.25571000        +4.44239000
$end

$rem
JOBTYPE                   SP
METHOD                    B3LYP
DFT_D                     d3_op
BASIS                     6-311++G(d,p)
SYMMETRY                  False
THRESH                    12
SCF_CONVERGENCE           8
MAX_SUB_FILE_NUM          128
MEM_STATIC                400
MEM_TOTAL                 4000
$end
--------------------------------------------------------------

             Standard Nuclear Orientation (Angstroms)
    I     Atom           X                Y                Z
 ----------------------------------------------------------------
    1      C      -1.4796492925     0.6729345096     0.8834347077
    2      C      -1.6024718568     0.7724720359    -0.6770774255
    3      C      -2.0673639264    -0.5662824308     1.5324140206
    4      C      -2.3839926777    -0.3153357435    -1.3840305251
    5      O      -1.5136310564    -1.6791778878     1.0012746143
    6      O      -2.8611125531    -0.5818673829     2.4376777669
    7      O      -3.5426933180    -0.6034063816    -0.7638671276
    8      O      -2.0340951380    -0.8298074030    -2.4195290076
    9      C      -4.3640949975    -1.6118852370    -1.3761850100
   10      C      -2.0059620747    -2.9341016930     1.5034447695
   11      C      -2.1593422513     1.9872880939     1.3360530468
   12      C      -1.1902481397     3.1606766732     1.0928385152
   13      C      -1.2421758452     3.2631054705    -0.4591043681
   14      C      -2.2983841277     2.1800112804    -0.8172861522
   15      O      -3.1602371914     2.1987556417     0.3317469122
   16      H      -0.4195342425     0.6629555350     1.1523721571
   17      H      -0.6236484245     0.7765260341    -1.1532412453
   18      H      -3.8098015585    -2.5469025706    -1.4723919287
   19      H      -1.7905062961    -3.0324850900     2.5684980220
   20      H      -1.5736618427     4.0677290004     1.5623591432
   21      H      -0.1887347637     2.9741346144     1.4856876335
   22      H      -1.5976091454     4.2427113187    -0.7831747306
   23      H      -0.2796257538     3.0798772892    -0.9408786134
   24      H      -5.2163837702    -1.7319205246    -0.7112469168
   25      H      -4.6918706471    -1.2882329240    -2.3654664388
   26      H      -1.4835292013    -3.6997297628     0.9341246446
   27      H      -3.0838356646    -3.0061360819     1.3482217351
   28      H      -2.4863453498     1.9347039072     2.3535057830
   29      H      -2.7449390770     2.3370343133    -1.7768831971
   30      C       3.0755487939     0.1034689744     0.5903308343
   31      C       2.9527262296     0.2030065007    -0.9701812989
   32      C       2.4878341600    -1.1357479660     1.2393101472
   33      C       2.1712054088    -0.8848012787    -1.6771343985
   34      O       3.0415670300    -2.2486434230     0.7081707408
   35      O       1.6940855334    -1.1513329181     2.1445738934
   36      O       1.0125047685    -1.1728719168    -1.0569710011
   37      O       2.5211029485    -1.3992729382    -2.7126328811
   38      C       0.1911030890    -2.1813507722    -1.6692888834
   39      C       2.5492360117    -3.5035672282     1.2103408960
   40      C       2.3958558352     1.4178225587     1.0429491734
   41      C       3.3649499468     2.5912111380     0.7997346418
   42      C       3.3130222413     2.6936399354    -0.7522082415
   43      C       2.2568139588     1.6105457452    -1.1103900257
   44      O       1.3949608951     1.6292901065     0.0386430387
   45      H       4.1356638440     0.0934899998     0.8592682837
   46      H       3.9315496619     0.2070604989    -1.4463451188
   47      H       0.7453965279    -3.1163681058    -1.7654958021
   48      H       2.7646917904    -3.6019506252     2.2753941485
   49      H       2.9815362438     3.4982634652     1.2692552698
   50      H       4.3664633227     2.4046690792     1.1925837600
   51      H       2.9575889411     3.6732457836    -1.0762786041
   52      H       4.2755723326     2.5104117540    -1.2339824869
   53      H      -0.6611856837    -2.3013860597    -1.0043507903
   54      H      -0.1366725606    -1.8576984592    -2.6585703122
   55      H       3.0716688852    -4.2691952980     0.6410207711
   56      H       1.4713624219    -3.5756016171     1.0551178616
   57      H       2.0688527367     1.3652383720     2.0604019095
   58      H       1.8102590095     1.7675687781    -2.0699870705
 ----------------------------------------------------------------

   15   -1531.7262034225      4.93E-09 Convergence criterion met
 Total energy in the final basis set = -1531.72620342

                    Orbital Energies (a.u.)
 --------------------------------------------------------------

 Alpha MOs
 -- Occupied --
-19.181 -19.170 -19.170 -19.168 -19.152 -19.126 -19.123 -19.115
-19.113 -19.109 -10.316 -10.306 -10.301 -10.299 -10.253 -10.244
-10.236 -10.230 -10.229 -10.228 -10.218 -10.215 -10.212 -10.208
-10.192 -10.191 -10.190 -10.187 -10.168 -10.165  -1.124  -1.115
 -1.112  -1.107  -1.081  -1.052  -1.037  -1.027  -1.025  -1.022
 -0.842  -0.819  -0.794  -0.787  -0.772  -0.766  -0.743  -0.733
 -0.725  -0.722  -0.663  -0.648  -0.618  -0.607  -0.600  -0.585
 -0.583  -0.573  -0.568  -0.561  -0.556  -0.543  -0.526  -0.515
 -0.511  -0.501  -0.500  -0.492  -0.489  -0.486  -0.480  -0.479
 -0.476  -0.474  -0.469  -0.466  -0.464  -0.451  -0.447  -0.432
 -0.431  -0.426  -0.423  -0.416  -0.415  -0.409  -0.401  -0.392
 -0.389  -0.379  -0.378  -0.376  -0.371  -0.370  -0.367  -0.364
 -0.358  -0.355  -0.351  -0.347  -0.343  -0.341  -0.325  -0.324
 -0.320  -0.317  -0.308  -0.304  -0.297  -0.293  -0.282  -0.281
 -0.275  -0.263

          Ground-State Mulliken Net Atomic Charges

     Atom                 Charge (a.u.)
  ----------------------------------------
      1 C                     0.309330
      2 C                     0.902230
      3 C                    -0.629815
      4 C                    -1.056272
      5 O                     0.002043
      6 O                    -0.158364
      7 O                     0.048656
      8 O                    -0.078509
      9 C                    -0.185262
     10 C                    -0.288641
     11 C                    -0.612730
     12 C                    -0.218137
     13 C                    -0.397409
     14 C                    -0.333964
     15 O                    -0.099658
     16 H                     0.263797
     17 H                     0.439815
     18 H                     0.184703
     19 H                     0.201451
     20 H                     0.201620
     21 H                     0.114353
     22 H                     0.195306
     23 H                     0.072123
     24 H                     0.179527
     25 H                     0.172728
     26 H                     0.118223
     27 H                     0.194625
     28 H                     0.270378
     29 H                     0.256907
     30 C                    -0.046521
     31 C                     0.199216
     32 C                    -0.542696
     33 C                    -0.503747
     34 O                     0.055524
     35 O                    -0.104688
     36 O                     0.007099
     37 O                    -0.134080
     38 C                    -0.440668
     39 C                    -0.167874
     40 C                    -0.156710
     41 C                    -0.712912
     42 C                    -0.509558
     43 C                    -0.073467
     44 O                     0.249393
     45 H                     0.248331
     46 H                     0.297422
     47 H                     0.218693
     48 H                     0.168258
     49 H                     0.176925
     50 H                     0.144347
     51 H                     0.180094
     52 H                     0.133421
     53 H                     0.109536
     54 H                     0.249230
     55 H                     0.171272
     56 H                     0.188411
     57 H                     0.272598
     58 H                     0.254098
  ----------------------------------------
  Sum of atomic charges =     0.000000

                    Cartesian Multipole Moments
 -----------------------------------------------------------------
    Charge (ESU x 10^10)
                 0.0000
    Dipole Moment (Debye)
         X       3.5479      Y      -0.2062      Z       0.5202
       Tot       3.5918
    Quadrupole Moments (Debye-Ang)
        XX    -174.3561     XY      16.1303     YY    -156.8786
        XZ      16.8101     YZ      -8.1874     ZZ    -194.4092

 Total job time:  8154.63s(wall), 8135.21s(cpu)
        *  Thank you very much for using Q-Chem.  Have a nice day.  *
