 Q-Chem 5.0, Q-Chem, Inc., Pleasanton, CA (2017)
 Q-Chem 5.0.1 for Intel X86 EM64T Linux

User input:
--------------------------------------------------------------
$molecule
0  1
C        +0.22270000        +1.04488000        +0.58595000
C        +0.62626000        -0.41353000        +0.99871000
C        -1.18200000        +1.23223000        +0.04377000
C        -0.37457000        -1.51643000        +0.72333000
O        -2.09172000        +0.78832000        +0.93966000
O        -1.47336000        +1.75939000        -0.99882000
O        -0.91364000        -1.42792000        -0.50620000
O        -0.62208000        -2.40877000        +1.49911000
C        -1.86134000        -2.44741000        -0.86560000
C        -3.47068000        +0.87492000        +0.53920000
C        +1.33008000        +1.39974000        -0.43491000
C        +2.63070000        +1.71700000        +0.32855000
C        +3.04336000        +0.29351000        +0.80300000
C        +1.94423000        -0.59299000        +0.15262000
O        +1.62840000        +0.13663000        -1.04376000
H        +0.27811000        +1.68786000        +1.46900000
H        +0.83923000        -0.48042000        +2.06408000
H        -2.68749000        -2.46677000        -0.15296000
H        -3.76076000        +1.91522000        +0.38406000
H        +3.37234000        +2.13782000        -0.35195000
H        +2.48236000        +2.42488000        +1.14651000
H        +4.02182000        +0.00994000        +0.41161000
H        +3.07359000        +0.18738000        +1.88928000
H        -2.21148000        -2.17765000        -1.85937000
H        -1.38062000        -3.42697000        -0.88096000
H        -4.03855000        +0.43623000        +1.35671000
H        -3.63120000        +0.31700000        -0.38495000
H        +1.03270000        +2.19943000        -1.08064000
H        +2.24339000        -1.61496000        +0.04786000
@C        +0.24670000        +2.40413000        +4.98048000
@C        +0.65026000        +0.94572000        +5.39324000
@C        -1.15800000        +2.59148000        +4.43830000
@C        -0.35057000        -0.15718000        +5.11786000
@O        -2.06772000        +2.14757000        +5.33419000
@O        -1.44936000        +3.11864000        +3.39571000
@O        -0.88964000        -0.06867000        +3.88833000
@O        -0.59808000        -1.04952000        +5.89364000
@C        -1.83734000        -1.08816000        +3.52893000
@C        -3.44668000        +2.23417000        +4.93373000
@C        +1.35408000        +2.75899000        +3.95962000
@C        +2.65470000        +3.07625000        +4.72308000
@C        +3.06736000        +1.65276000        +5.19753000
@C        +1.96823000        +0.76626000        +4.54715000
@O        +1.65240000        +1.49588000        +3.35077000
@H        +0.30211000        +3.04711000        +5.86353000
@H        +0.86323000        +0.87883000        +6.45861000
@H        -2.66349000        -1.10752000        +4.24157000
@H        -3.73676000        +3.27447000        +4.77859000
@H        +3.39634000        +3.49707000        +4.04258000
@H        +2.50636000        +3.78413000        +5.54104000
@H        +4.04582000        +1.36919000        +4.80614000
@H        +3.09759000        +1.54663000        +6.28381000
@H        -2.18748000        -0.81840000        +2.53516000
@H        -1.35662000        -2.06772000        +3.51357000
@H        -4.01455000        +1.79548000        +5.75124000
@H        -3.60720000        +1.67625000        +4.00958000
@H        +1.05670000        +3.55868000        +3.31389000
@H        +2.26739000        -0.25571000        +4.44239000
$end

$rem
JOBTYPE                   SP
METHOD                    B3LYP
DFT_D                     d3_op
BASIS                     6-311++G(d,p)
SYMMETRY                  False
THRESH                    12
SCF_CONVERGENCE           8
MAX_SUB_FILE_NUM          128
MEM_STATIC                400
MEM_TOTAL                 4000
$end
--------------------------------------------------------------

             Standard Nuclear Orientation (Angstroms)
    I     Atom           X                Y                Z
 ----------------------------------------------------------------
    1      C       0.2227000000     1.0448800000     0.5859500000
    2      C       0.6262600000    -0.4135300000     0.9987100000
    3      C      -1.1820000000     1.2322300000     0.0437700000
    4      C      -0.3745700000    -1.5164300000     0.7233300000
    5      O      -2.0917200000     0.7883200000     0.9396600000
    6      O      -1.4733600000     1.7593900000    -0.9988200000
    7      O      -0.9136400000    -1.4279200000    -0.5062000000
    8      O      -0.6220800000    -2.4087700000     1.4991100000
    9      C      -1.8613400000    -2.4474100000    -0.8656000000
   10      C      -3.4706800000     0.8749200000     0.5392000000
   11      C       1.3300800000     1.3997400000    -0.4349100000
   12      C       2.6307000000     1.7170000000     0.3285500000
   13      C       3.0433600000     0.2935100000     0.8030000000
   14      C       1.9442300000    -0.5929900000     0.1526200000
   15      O       1.6284000000     0.1366300000    -1.0437600000
   16      H       0.2781100000     1.6878600000     1.4690000000
   17      H       0.8392300000    -0.4804200000     2.0640800000
   18      H      -2.6874900000    -2.4667700000    -0.1529600000
   19      H      -3.7607600000     1.9152200000     0.3840600000
   20      H       3.3723400000     2.1378200000    -0.3519500000
   21      H       2.4823600000     2.4248800000     1.1465100000
   22      H       4.0218200000     0.0099400000     0.4116100000
   23      H       3.0735900000     0.1873800000     1.8892800000
   24      H      -2.2114800000    -2.1776500000    -1.8593700000
   25      H      -1.3806200000    -3.4269700000    -0.8809600000
   26      H      -4.0385500000     0.4362300000     1.3567100000
   27      H      -3.6312000000     0.3170000000    -0.3849500000
   28      H       1.0327000000     2.1994300000    -1.0806400000
   29      H       2.2433900000    -1.6149600000     0.0478600000
   30      GH      0.2467000000     2.4041300000     4.9804800000
   31      GH      0.6502600000     0.9457200000     5.3932400000
   32      GH     -1.1580000000     2.5914800000     4.4383000000
   33      GH     -0.3505700000    -0.1571800000     5.1178600000
   34      GH     -2.0677200000     2.1475700000     5.3341900000
   35      GH     -1.4493600000     3.1186400000     3.3957100000
   36      GH     -0.8896400000    -0.0686700000     3.8883300000
   37      GH     -0.5980800000    -1.0495200000     5.8936400000
   38      GH     -1.8373400000    -1.0881600000     3.5289300000
   39      GH     -3.4466800000     2.2341700000     4.9337300000
   40      GH      1.3540800000     2.7589900000     3.9596200000
   41      GH      2.6547000000     3.0762500000     4.7230800000
   42      GH      3.0673600000     1.6527600000     5.1975300000
   43      GH      1.9682300000     0.7662600000     4.5471500000
   44      GH      1.6524000000     1.4958800000     3.3507700000
   45      GH      0.3021100000     3.0471100000     5.8635300000
   46      GH      0.8632300000     0.8788300000     6.4586100000
   47      GH     -2.6634900000    -1.1075200000     4.2415700000
   48      GH     -3.7367600000     3.2744700000     4.7785900000
   49      GH      3.3963400000     3.4970700000     4.0425800000
   50      GH      2.5063600000     3.7841300000     5.5410400000
   51      GH      4.0458200000     1.3691900000     4.8061400000
   52      GH      3.0975900000     1.5466300000     6.2838100000
   53      GH     -2.1874800000    -0.8184000000     2.5351600000
   54      GH     -1.3566200000    -2.0677200000     3.5135700000
   55      GH     -4.0145500000     1.7954800000     5.7512400000
   56      GH     -3.6072000000     1.6762500000     4.0095800000
   57      GH      1.0567000000     3.5586800000     3.3138900000
   58      GH      2.2673900000    -0.2557100000     4.4423900000
 ----------------------------------------------------------------

   14    -765.8595631708      6.74E-09 Convergence criterion met
 Total energy in the final basis set = -765.85956317

                    Orbital Energies (a.u.)
 --------------------------------------------------------------

 Alpha MOs
 -- Occupied --
-19.176 -19.174 -19.136 -19.120 -19.116 -10.310 -10.306 -10.242
-10.232 -10.232 -10.230 -10.207 -10.206 -10.182 -10.180  -1.120
 -1.113  -1.065  -1.031  -1.027  -0.833  -0.785  -0.778  -0.740
 -0.729  -0.659  -0.610  -0.596  -0.580  -0.567  -0.551  -0.520
 -0.506  -0.496  -0.489  -0.484  -0.475  -0.473  -0.462  -0.439
 -0.427  -0.425  -0.418  -0.399  -0.385  -0.376  -0.371  -0.369
 -0.362  -0.356  -0.337  -0.334  -0.320  -0.313  -0.290  -0.282
 -0.276

          Ground-State Mulliken Net Atomic Charges

     Atom                 Charge (a.u.)
  ----------------------------------------
      1 C                     0.048671
      2 C                     1.093527
      3 C                    -0.521404
      4 C                    -1.106597
      5 O                     0.026255
      6 O                    -0.149289
      7 O                     0.037226
      8 O                    -0.076506
      9 C                    -0.186960
     10 C                    -0.307779
     11 C                    -0.531013
     12 C                    -0.259279
     13 C                    -0.449861
     14 C                    -0.298993
     15 O                    -0.090736
     16 H                     0.208712
     17 H                     0.390307
     18 H                     0.188785
     19 H                     0.193786
     20 H                     0.214026
     21 H                     0.115525
     22 H                     0.206171
     23 H                     0.095953
     24 H                     0.178164
     25 H                     0.173283
     26 H                     0.132045
     27 H                     0.193974
     28 H                     0.278245
     29 H                     0.268890
     30 GH                    0.023421
     31 GH                    0.002059
     32 GH                   -0.018748
     33 GH                    0.016337
     34 GH                    0.002641
     35 GH                   -0.014316
     36 GH                    0.016162
     37 GH                    0.001302
     38 GH                   -0.048210
     39 GH                    0.006178
     40 GH                   -0.064574
     41 GH                   -0.002059
     42 GH                    0.001765
     43 GH                   -0.040668
     44 GH                    0.017212
     45 GH                   -0.000223
     46 GH                    0.000368
     47 GH                   -0.003554
     48 GH                    0.000830
     49 GH                    0.001799
     50 GH                   -0.000129
     51 GH                    0.002773
     52 GH                   -0.000396
     53 GH                    0.038210
     54 GH                    0.003126
     55 GH                   -0.000300
     56 GH                   -0.008639
     57 GH                    0.004535
     58 GH                   -0.002032
  ----------------------------------------
  Sum of atomic charges =     0.000000

                    Cartesian Multipole Moments
 -----------------------------------------------------------------
    Charge (ESU x 10^10)
                 0.0000
    Dipole Moment (Debye)
         X      -0.0044      Y       0.7232      Z       1.2193
       Tot       1.4177
    Quadrupole Moments (Debye-Ang)
        XX     -75.2518     XY       2.9684     YY     -89.6877
        XZ       3.3355     YZ      10.6734     ZZ     -95.7961

 Total job time:  7107.17s(wall), 7090.00s(cpu)
        *  Thank you very much for using Q-Chem.  Have a nice day.  *
