 Q-Chem 5.0, Q-Chem, Inc., Pleasanton, CA (2017)
 Q-Chem 5.0.1 for Intel X86 EM64T Linux

User input:
--------------------------------------------------------------
$molecule
0  1
--
0  1
C        -0.54444000        -0.68370000        -0.06689000
C        -0.55709000        +0.71878000        +0.05493000
C        +0.74969000        -1.43776000        -0.09374000
C        +0.72843000        +1.48436000        +0.06598000
O        +1.53645000        -1.09176000        +0.94813000
O        +1.04702000        -2.28405000        -0.90088000
O        +1.53784000        +1.08301000        -0.93877000
O        +1.01035000        +2.37097000        +0.83478000
C        +2.83449000        +1.70121000        -0.99358000
C        +2.82316000        -1.73208000        +1.00475000
C        -1.74320000        -1.41616000        -0.12552000
C        -2.93952000        -0.70056000        -0.05285000
C        -2.95313000        +0.68255000        +0.06934000
C        -1.77161000        +1.42404000        +0.12810000
H        +2.73835000        +2.77989000        -1.12464000
H        +2.70778000        -2.81319000        +1.09555000
H        -3.90354000        +1.20325000        +0.11710000
H        +3.38998000        +1.50093000        -0.07544000
H        +3.33184000        +1.25269000        -1.85067000
H        +3.31095000        -1.32281000        +1.88650000
H        +3.39889000        -1.50934000        +0.10459000
H        -3.87892000        -1.24211000        -0.08988000
H        -1.78886000        +2.45164000        +0.22176000
H        -1.73878000        -2.44393000        -0.21875000
--
0  1
C        -0.51278000        -1.08478000        +4.51548000
C        -0.52543000        +0.31770000        +4.63730000
C        +0.78135000        -1.83884000        +4.48863000
C        +0.76009000        +1.08328000        +4.64835000
O        +1.56811000        -1.49284000        +5.53050000
O        +1.07868000        -2.68513000        +3.68149000
O        +1.56950000        +0.68193000        +3.64360000
O        +1.04201000        +1.96989000        +5.41715000
C        +2.86615000        +1.30013000        +3.58879000
C        +2.85482000        -2.13316000        +5.58712000
C        -1.71154000        -1.81724000        +4.45685000
C        -2.90786000        -1.10164000        +4.52952000
C        -2.92147000        +0.28147000        +4.65171000
C        -1.73995000        +1.02296000        +4.71047000
H        +2.77001000        +2.37881000        +3.45773000
H        +2.73944000        -3.21427000        +5.67792000
H        -3.87188000        +0.80217000        +4.69947000
H        +3.42164000        +1.09985000        +4.50693000
H        +3.36350000        +0.85161000        +2.73170000
H        +3.34261000        -1.72389000        +6.46887000
H        +3.43055000        -1.91042000        +4.68696000
H        -3.84726000        -1.64319000        +4.49249000
H        -1.75720000        +2.05056000        +4.80413000
H        -1.70712000        -2.84501000        +4.36362000
$end

$rem
JOBTYPE                   SP
METHOD                    B3LYP
DFT_D                     d3_op
BASIS                     6-311++G(d,p)
SYMMETRY                  False
THRESH                    12
SCF_CONVERGENCE           8
MAX_SUB_FILE_NUM          128
MEM_STATIC                400
MEM_TOTAL                 4000
$end
--------------------------------------------------------------

             Standard Nuclear Orientation (Angstroms)
    I     Atom           X                Y                Z
 ----------------------------------------------------------------
    1      C      -2.2555801185     0.8000356608     0.8693516364
    2      C      -2.3621168928     0.8203051880    -0.5342826989
    3      C      -2.1413817053    -0.4974293359     1.6093808033
    4      C      -2.4561312781    -0.4617472095    -1.2999846349
    5      O      -1.1577231411    -1.2665727777     1.0945657011
    6      O      -2.7967845176    -0.8106571009     2.5729275812
    7      O      -3.3709327494    -1.2882226628    -0.7469696928
    8      O      -1.8366231728    -0.7281229245    -2.3009158535
    9      C      -3.5059646138    -2.5830244342    -1.3566674597
   10      C      -0.9796420483    -2.5548634420     1.7089210052
   11      C      -2.2126001593     1.9947393987     1.6094843056
   12      C      -2.2739454262     3.1949575917     0.8993724280
   13      C      -2.3770020421     3.2161134563    -0.4851999477
   14      C      -2.4215639675     2.0386864731    -1.2341522841
   15      H      -3.8109436144    -2.4845083080    -2.3993814893
   16      H      -0.7170833475    -2.4425186871     2.7619155926
   17      H      -2.4278552631     4.1692706451    -1.0005580747
   18      H      -2.5595247009    -3.1250747115    -1.3108933800
   19      H      -4.2719942647    -3.0953909457    -0.7789048675
   20      H      -0.1685657450    -3.0272905736     1.1594740877
   21      H      -1.8954643621    -3.1435188659     1.6306877155
   22      H      -2.2367075011     4.1314494213     1.4459219441
   23      H      -2.4953961864     2.0615863254    -2.2632567095
   24      H      -2.1385033554     1.9846738563     2.6387708986
   25      C       2.3313633423     0.8375510626     0.5250775869
   26      C       2.2248265680     0.8578205897    -0.8785567484
   27      C       2.4455617555    -0.4599139341     1.2651067537
   28      C       2.1308121826    -0.4242318077    -1.6442586844
   29      O       3.4292203197    -1.2290573760     0.7502916516
   30      O       1.7901589432    -0.7731416992     2.2286535317
   31      O       1.2160107113    -1.2507072611    -1.0912437423
   32      O       2.7503202879    -0.6906075227    -2.6451899030
   33      C       1.0809788470    -2.5455090325    -1.7009415092
   34      C       3.6073014124    -2.5173480403     1.3646469557
   35      C       2.3743433015     2.0322548004     1.2652102561
   36      C       2.3129980346     3.2324729935     0.5550983785
   37      C       2.2099414187     3.2536288580    -0.8294739972
   38      C       2.1653794933     2.0762018749    -1.5784263336
   39      H       0.7759998464    -2.4469929062    -2.7436555388
   40      H       3.8698601133    -2.4050032854     2.4176415431
   41      H       2.1590881977     4.2067860469    -1.3448321242
   42      H       2.0274187598    -3.0875593098    -1.6551674295
   43      H       0.3149491961    -3.0578755440    -1.1231789170
   44      H       4.4183777158    -2.9897751718     0.8152000382
   45      H       2.6914790987    -3.1060034642     1.2864136660
   46      H       2.3502359597     4.1689648230     1.1016478946
   47      H       2.0915472744     2.0991017271    -2.6075307590
   48      H       2.4484401053     2.0221892580     2.2944968491
 ----------------------------------------------------------------

   15   -1376.4290075314      6.92E-09 Convergence criterion met
 Total energy in the final basis set = -1376.42900753

                    Orbital Energies (a.u.)
 --------------------------------------------------------------

 Alpha MOs
 -- Occupied --
-19.178 -19.177 -19.170 -19.168 -19.121 -19.121 -19.115 -19.114
-10.313 -10.313 -10.307 -10.306 -10.234 -10.234 -10.227 -10.225
-10.211 -10.211 -10.210 -10.210 -10.195 -10.195 -10.195 -10.194
-10.194 -10.194 -10.194 -10.193  -1.121  -1.120  -1.111  -1.109
 -1.032  -1.032  -1.025  -1.024  -0.884  -0.883  -0.796  -0.796
 -0.784  -0.783  -0.741  -0.740  -0.729  -0.727  -0.653  -0.652
 -0.643  -0.642  -0.593  -0.592  -0.576  -0.575  -0.552  -0.549
 -0.521  -0.519  -0.513  -0.510  -0.492  -0.491  -0.487  -0.486
 -0.483  -0.478  -0.477  -0.472  -0.468  -0.468  -0.465  -0.463
 -0.440  -0.436  -0.430  -0.424  -0.413  -0.413  -0.404  -0.403
 -0.386  -0.386  -0.385  -0.382  -0.382  -0.378  -0.366  -0.366
 -0.363  -0.357  -0.322  -0.320  -0.310  -0.308  -0.299  -0.298
 -0.293  -0.290  -0.274  -0.271  -0.269  -0.266

          Ground-State Mulliken Net Atomic Charges

     Atom                 Charge (a.u.)
  ----------------------------------------
      1 C                     0.853163
      2 C                     0.728750
      3 C                    -0.643331
      4 C                    -0.766979
      5 O                     0.104694
      6 O                    -0.165129
      7 O                     0.102834
      8 O                    -0.130283
      9 C                    -0.161424
     10 C                    -0.368559
     11 C                    -0.248453
     12 C                    -0.317033
     13 C                    -0.275487
     14 C                    -0.489236
     15 H                     0.169743
     16 H                     0.221869
     17 H                     0.180123
     18 H                     0.181445
     19 H                     0.172275
     20 H                     0.081078
     21 H                     0.189424
     22 H                     0.177492
     23 H                     0.198126
     24 H                     0.208296
     25 C                     0.706006
     26 C                     0.898779
     27 C                    -0.831642
     28 C                    -0.613582
     29 O                     0.110982
     30 O                    -0.119839
     31 O                     0.084328
     32 O                    -0.166879
     33 C                    -0.374012
     34 C                    -0.152172
     35 C                    -0.478850
     36 C                    -0.273279
     37 C                    -0.320210
     38 C                    -0.252852
     39 H                     0.223635
     40 H                     0.168559
     41 H                     0.177491
     42 H                     0.194420
     43 H                     0.077637
     44 H                     0.172432
     45 H                     0.180064
     46 H                     0.180297
     47 H                     0.208681
     48 H                     0.196608
  ----------------------------------------
  Sum of atomic charges =    -0.000000

                    Cartesian Multipole Moments
 -----------------------------------------------------------------
    Charge (ESU x 10^10)
                -0.0000
    Dipole Moment (Debye)
         X       0.1957      Y       0.2242      Z       0.2009
       Tot       0.3591
    Quadrupole Moments (Debye-Ang)
        XX    -169.3142     XY      -0.9448     YY    -125.5278
        XZ      18.7626     YZ       0.5931     ZZ    -174.8201

 Total job time:  1349.36s(wall), 2685.63s(cpu)
        *  Thank you very much for using Q-Chem.  Have a nice day.  *
