 Q-Chem 5.0, Q-Chem, Inc., Pleasanton, CA (2017)
 Q-Chem 5.0.1 for Intel X86 EM64T Linux

User input:
--------------------------------------------------------------
$molecule
0  1
C        -0.54444000        -0.68370000        -0.06689000
C        -0.55709000        +0.71878000        +0.05493000
C        +0.74969000        -1.43776000        -0.09374000
C        +0.72843000        +1.48436000        +0.06598000
O        +1.53645000        -1.09176000        +0.94813000
O        +1.04702000        -2.28405000        -0.90088000
O        +1.53784000        +1.08301000        -0.93877000
O        +1.01035000        +2.37097000        +0.83478000
C        +2.83449000        +1.70121000        -0.99358000
C        +2.82316000        -1.73208000        +1.00475000
C        -1.74320000        -1.41616000        -0.12552000
C        -2.93952000        -0.70056000        -0.05285000
C        -2.95313000        +0.68255000        +0.06934000
C        -1.77161000        +1.42404000        +0.12810000
H        +2.73835000        +2.77989000        -1.12464000
H        +2.70778000        -2.81319000        +1.09555000
H        -3.90354000        +1.20325000        +0.11710000
H        +3.38998000        +1.50093000        -0.07544000
H        +3.33184000        +1.25269000        -1.85067000
H        +3.31095000        -1.32281000        +1.88650000
H        +3.39889000        -1.50934000        +0.10459000
H        -3.87892000        -1.24211000        -0.08988000
H        -1.78886000        +2.45164000        +0.22176000
H        -1.73878000        -2.44393000        -0.21875000
@C        -0.51278000        -1.08478000        +4.51548000
@C        -0.52543000        +0.31770000        +4.63730000
@C        +0.78135000        -1.83884000        +4.48863000
@C        +0.76009000        +1.08328000        +4.64835000
@O        +1.56811000        -1.49284000        +5.53050000
@O        +1.07868000        -2.68513000        +3.68149000
@O        +1.56950000        +0.68193000        +3.64360000
@O        +1.04201000        +1.96989000        +5.41715000
@C        +2.86615000        +1.30013000        +3.58879000
@C        +2.85482000        -2.13316000        +5.58712000
@C        -1.71154000        -1.81724000        +4.45685000
@C        -2.90786000        -1.10164000        +4.52952000
@C        -2.92147000        +0.28147000        +4.65171000
@C        -1.73995000        +1.02296000        +4.71047000
@H        +2.77001000        +2.37881000        +3.45773000
@H        +2.73944000        -3.21427000        +5.67792000
@H        -3.87188000        +0.80217000        +4.69947000
@H        +3.42164000        +1.09985000        +4.50693000
@H        +3.36350000        +0.85161000        +2.73170000
@H        +3.34261000        -1.72389000        +6.46887000
@H        +3.43055000        -1.91042000        +4.68696000
@H        -3.84726000        -1.64319000        +4.49249000
@H        -1.75720000        +2.05056000        +4.80413000
@H        -1.70712000        -2.84501000        +4.36362000
$end

$rem
JOBTYPE                   SP
METHOD                    B3LYP
DFT_D                     d3_op
BASIS                     6-311++G(d,p)
SYMMETRY                  False
THRESH                    12
SCF_CONVERGENCE           8
MAX_SUB_FILE_NUM          128
MEM_STATIC                400
MEM_TOTAL                 4000
$end
--------------------------------------------------------------

             Standard Nuclear Orientation (Angstroms)
    I     Atom           X                Y                Z
 ----------------------------------------------------------------
    1      C      -0.5444400000    -0.6837000000    -0.0668900000
    2      C      -0.5570900000     0.7187800000     0.0549300000
    3      C       0.7496900000    -1.4377600000    -0.0937400000
    4      C       0.7284300000     1.4843600000     0.0659800000
    5      O       1.5364500000    -1.0917600000     0.9481300000
    6      O       1.0470200000    -2.2840500000    -0.9008800000
    7      O       1.5378400000     1.0830100000    -0.9387700000
    8      O       1.0103500000     2.3709700000     0.8347800000
    9      C       2.8344900000     1.7012100000    -0.9935800000
   10      C       2.8231600000    -1.7320800000     1.0047500000
   11      C      -1.7432000000    -1.4161600000    -0.1255200000
   12      C      -2.9395200000    -0.7005600000    -0.0528500000
   13      C      -2.9531300000     0.6825500000     0.0693400000
   14      C      -1.7716100000     1.4240400000     0.1281000000
   15      H       2.7383500000     2.7798900000    -1.1246400000
   16      H       2.7077800000    -2.8131900000     1.0955500000
   17      H      -3.9035400000     1.2032500000     0.1171000000
   18      H       3.3899800000     1.5009300000    -0.0754400000
   19      H       3.3318400000     1.2526900000    -1.8506700000
   20      H       3.3109500000    -1.3228100000     1.8865000000
   21      H       3.3988900000    -1.5093400000     0.1045900000
   22      H      -3.8789200000    -1.2421100000    -0.0898800000
   23      H      -1.7888600000     2.4516400000     0.2217600000
   24      H      -1.7387800000    -2.4439300000    -0.2187500000
   25      GH     -0.5127800000    -1.0847800000     4.5154800000
   26      GH     -0.5254300000     0.3177000000     4.6373000000
   27      GH      0.7813500000    -1.8388400000     4.4886300000
   28      GH      0.7600900000     1.0832800000     4.6483500000
   29      GH      1.5681100000    -1.4928400000     5.5305000000
   30      GH      1.0786800000    -2.6851300000     3.6814900000
   31      GH      1.5695000000     0.6819300000     3.6436000000
   32      GH      1.0420100000     1.9698900000     5.4171500000
   33      GH      2.8661500000     1.3001300000     3.5887900000
   34      GH      2.8548200000    -2.1331600000     5.5871200000
   35      GH     -1.7115400000    -1.8172400000     4.4568500000
   36      GH     -2.9078600000    -1.1016400000     4.5295200000
   37      GH     -2.9214700000     0.2814700000     4.6517100000
   38      GH     -1.7399500000     1.0229600000     4.7104700000
   39      GH      2.7700100000     2.3788100000     3.4577300000
   40      GH      2.7394400000    -3.2142700000     5.6779200000
   41      GH     -3.8718800000     0.8021700000     4.6994700000
   42      GH      3.4216400000     1.0998500000     4.5069300000
   43      GH      3.3635000000     0.8516100000     2.7317000000
   44      GH      3.3426100000    -1.7238900000     6.4688700000
   45      GH      3.4305500000    -1.9104200000     4.6869600000
   46      GH     -3.8472600000    -1.6431900000     4.4924900000
   47      GH     -1.7572000000     2.0505600000     4.8041300000
   48      GH     -1.7071200000    -2.8450100000     4.3636200000
 ----------------------------------------------------------------

   14    -688.2115568195      5.74E-09 Convergence criterion met
 Total energy in the final basis set = -688.21155682

                    Orbital Energies (a.u.)
 --------------------------------------------------------------

 Alpha MOs
 -- Occupied --
-19.178 -19.178 -19.122 -19.122 -10.314 -10.314 -10.233 -10.233
-10.215 -10.214 -10.198 -10.198 -10.197 -10.197  -1.123  -1.116
 -1.033  -1.032  -0.887  -0.800  -0.787  -0.744  -0.733  -0.656
 -0.646  -0.596  -0.579  -0.555  -0.524  -0.516  -0.493  -0.492
 -0.485  -0.479  -0.472  -0.468  -0.440  -0.431  -0.416  -0.408
 -0.389  -0.387  -0.384  -0.369  -0.366  -0.324  -0.315  -0.301
 -0.297  -0.275  -0.272

          Ground-State Mulliken Net Atomic Charges

     Atom                 Charge (a.u.)
  ----------------------------------------
      1 C                     0.906128
      2 C                     0.750922
      3 C                    -0.637647
      4 C                    -0.807315
      5 O                     0.087096
      6 O                    -0.159300
      7 O                     0.097310
      8 O                    -0.113462
      9 C                    -0.159303
     10 C                    -0.386940
     11 C                    -0.259499
     12 C                    -0.314594
     13 C                    -0.282742
     14 C                    -0.500779
     15 H                     0.169210
     16 H                     0.207573
     17 H                     0.184526
     18 H                     0.186233
     19 H                     0.171661
     20 H                     0.113795
     21 H                     0.195581
     22 H                     0.182110
     23 H                     0.201617
     24 H                     0.207406
     25 GH                   -0.051818
     26 GH                   -0.070713
     27 GH                    0.078909
     28 GH                   -0.016851
     29 GH                    0.000131
     30 GH                   -0.003632
     31 GH                   -0.010168
     32 GH                    0.001240
     33 GH                    0.005213
     34 GH                   -0.012086
     35 GH                    0.031475
     36 GH                    0.006563
     37 GH                   -0.005028
     38 GH                    0.007536
     39 GH                    0.002166
     40 GH                    0.000691
     41 GH                   -0.000196
     42 GH                    0.001748
     43 GH                   -0.008505
     44 GH                   -0.000849
     45 GH                    0.003793
     46 GH                    0.000391
     47 GH                    0.000914
     48 GH                   -0.000509
  ----------------------------------------
  Sum of atomic charges =     0.000000

                    Cartesian Multipole Moments
 -----------------------------------------------------------------
    Charge (ESU x 10^10)
                 0.0000
    Dipole Moment (Debye)
         X      -0.0497      Y      -0.1141      Z       0.0863
       Tot       0.1515
    Quadrupole Moments (Debye-Ang)
        XX     -61.3785     XY      -0.0420     YY     -84.3417
        XZ       0.0641     YZ      -9.7062     ZZ     -87.0113

 Total job time:  1268.69s(wall), 2521.32s(cpu)
        *  Thank you very much for using Q-Chem.  Have a nice day.  *
