 Q-Chem 5.0, Q-Chem, Inc., Pleasanton, CA (2017)
 Q-Chem 5.0.1 for Intel X86 EM64T Linux

User input:
--------------------------------------------------------------
$molecule
0  1
C        +0.22270000        +1.04488000        +0.58595000
C        +0.62626000        -0.41353000        +0.99871000
C        -1.18200000        +1.23223000        +0.04377000
C        -0.37457000        -1.51643000        +0.72333000
O        -2.09172000        +0.78832000        +0.93966000
O        -1.47336000        +1.75939000        -0.99882000
O        -0.91364000        -1.42792000        -0.50620000
O        -0.62208000        -2.40877000        +1.49911000
C        -1.86134000        -2.44741000        -0.86560000
C        -3.47068000        +0.87492000        +0.53920000
C        +1.33008000        +1.39974000        -0.43491000
C        +2.63070000        +1.71700000        +0.32855000
C        +3.04336000        +0.29351000        +0.80300000
C        +1.94423000        -0.59299000        +0.15262000
O        +1.62840000        +0.13663000        -1.04376000
H        +0.27811000        +1.68786000        +1.46900000
H        +0.83923000        -0.48042000        +2.06408000
H        -2.68749000        -2.46677000        -0.15296000
H        -3.76076000        +1.91522000        +0.38406000
H        +3.37234000        +2.13782000        -0.35195000
H        +2.48236000        +2.42488000        +1.14651000
H        +4.02182000        +0.00994000        +0.41161000
H        +3.07359000        +0.18738000        +1.88928000
H        -2.21148000        -2.17765000        -1.85937000
H        -1.38062000        -3.42697000        -0.88096000
H        -4.03855000        +0.43623000        +1.35671000
H        -3.63120000        +0.31700000        -0.38495000
C        +2.35450000        -2.01267000        -0.16812000
H        +3.26311000        -2.00678000        -0.77366000
H        +2.54990000        -2.57059000        +0.75079000
H        +1.57335000        -2.52896000        -0.72872000
H        +1.03270000        +2.19943000        -1.08064000
@C        +0.24670000        +2.40413000        +4.98048000
@C        +0.65026000        +0.94572000        +5.39324000
@C        -1.15800000        +2.59148000        +4.43830000
@C        -0.35057000        -0.15718000        +5.11786000
@O        -2.06772000        +2.14757000        +5.33419000
@O        -1.44936000        +3.11864000        +3.39571000
@O        -0.88964000        -0.06867000        +3.88833000
@O        -0.59808000        -1.04952000        +5.89364000
@C        -1.83734000        -1.08816000        +3.52893000
@C        -3.44668000        +2.23417000        +4.93373000
@C        +1.35408000        +2.75899000        +3.95962000
@C        +2.65470000        +3.07625000        +4.72308000
@C        +3.06736000        +1.65276000        +5.19753000
@C        +1.96823000        +0.76626000        +4.54715000
@O        +1.65240000        +1.49588000        +3.35077000
@H        +0.30211000        +3.04711000        +5.86353000
@H        +0.86323000        +0.87883000        +6.45861000
@H        -2.66349000        -1.10752000        +4.24157000
@H        -3.73676000        +3.27447000        +4.77859000
@H        +3.39634000        +3.49707000        +4.04258000
@H        +2.50636000        +3.78413000        +5.54104000
@H        +4.04582000        +1.36919000        +4.80614000
@H        +3.09759000        +1.54663000        +6.28381000
@H        -2.18748000        -0.81840000        +2.53516000
@H        -1.35662000        -2.06772000        +3.51357000
@H        -4.01455000        +1.79548000        +5.75124000
@H        -3.60720000        +1.67625000        +4.00958000
@C        +2.37850000        -0.65342000        +4.22641000
@H        +3.28711000        -0.64753000        +3.62087000
@H        +2.57390000        -1.21134000        +5.14532000
@H        +1.59735000        -1.16971000        +3.66581000
@H        +1.05670000        +3.55868000        +3.31389000
$end

$rem
JOBTYPE                   SP
METHOD                    B3LYP
DFT_D                     d3_op
BASIS                     6-311++G(d,p)
SYMMETRY                  False
THRESH                    12
SCF_CONVERGENCE           8
MAX_SUB_FILE_NUM          128
MEM_STATIC                400
MEM_TOTAL                 4000
$end
--------------------------------------------------------------

             Standard Nuclear Orientation (Angstroms)
    I     Atom           X                Y                Z
 ----------------------------------------------------------------
    1      C       0.2227000000     1.0448800000     0.5859500000
    2      C       0.6262600000    -0.4135300000     0.9987100000
    3      C      -1.1820000000     1.2322300000     0.0437700000
    4      C      -0.3745700000    -1.5164300000     0.7233300000
    5      O      -2.0917200000     0.7883200000     0.9396600000
    6      O      -1.4733600000     1.7593900000    -0.9988200000
    7      O      -0.9136400000    -1.4279200000    -0.5062000000
    8      O      -0.6220800000    -2.4087700000     1.4991100000
    9      C      -1.8613400000    -2.4474100000    -0.8656000000
   10      C      -3.4706800000     0.8749200000     0.5392000000
   11      C       1.3300800000     1.3997400000    -0.4349100000
   12      C       2.6307000000     1.7170000000     0.3285500000
   13      C       3.0433600000     0.2935100000     0.8030000000
   14      C       1.9442300000    -0.5929900000     0.1526200000
   15      O       1.6284000000     0.1366300000    -1.0437600000
   16      H       0.2781100000     1.6878600000     1.4690000000
   17      H       0.8392300000    -0.4804200000     2.0640800000
   18      H      -2.6874900000    -2.4667700000    -0.1529600000
   19      H      -3.7607600000     1.9152200000     0.3840600000
   20      H       3.3723400000     2.1378200000    -0.3519500000
   21      H       2.4823600000     2.4248800000     1.1465100000
   22      H       4.0218200000     0.0099400000     0.4116100000
   23      H       3.0735900000     0.1873800000     1.8892800000
   24      H      -2.2114800000    -2.1776500000    -1.8593700000
   25      H      -1.3806200000    -3.4269700000    -0.8809600000
   26      H      -4.0385500000     0.4362300000     1.3567100000
   27      H      -3.6312000000     0.3170000000    -0.3849500000
   28      C       2.3545000000    -2.0126700000    -0.1681200000
   29      H       3.2631100000    -2.0067800000    -0.7736600000
   30      H       2.5499000000    -2.5705900000     0.7507900000
   31      H       1.5733500000    -2.5289600000    -0.7287200000
   32      H       1.0327000000     2.1994300000    -1.0806400000
   33      GH      0.2467000000     2.4041300000     4.9804800000
   34      GH      0.6502600000     0.9457200000     5.3932400000
   35      GH     -1.1580000000     2.5914800000     4.4383000000
   36      GH     -0.3505700000    -0.1571800000     5.1178600000
   37      GH     -2.0677200000     2.1475700000     5.3341900000
   38      GH     -1.4493600000     3.1186400000     3.3957100000
   39      GH     -0.8896400000    -0.0686700000     3.8883300000
   40      GH     -0.5980800000    -1.0495200000     5.8936400000
   41      GH     -1.8373400000    -1.0881600000     3.5289300000
   42      GH     -3.4466800000     2.2341700000     4.9337300000
   43      GH      1.3540800000     2.7589900000     3.9596200000
   44      GH      2.6547000000     3.0762500000     4.7230800000
   45      GH      3.0673600000     1.6527600000     5.1975300000
   46      GH      1.9682300000     0.7662600000     4.5471500000
   47      GH      1.6524000000     1.4958800000     3.3507700000
   48      GH      0.3021100000     3.0471100000     5.8635300000
   49      GH      0.8632300000     0.8788300000     6.4586100000
   50      GH     -2.6634900000    -1.1075200000     4.2415700000
   51      GH     -3.7367600000     3.2744700000     4.7785900000
   52      GH      3.3963400000     3.4970700000     4.0425800000
   53      GH      2.5063600000     3.7841300000     5.5410400000
   54      GH      4.0458200000     1.3691900000     4.8061400000
   55      GH      3.0975900000     1.5466300000     6.2838100000
   56      GH     -2.1874800000    -0.8184000000     2.5351600000
   57      GH     -1.3566200000    -2.0677200000     3.5135700000
   58      GH     -4.0145500000     1.7954800000     5.7512400000
   59      GH     -3.6072000000     1.6762500000     4.0095800000
   60      GH      2.3785000000    -0.6534200000     4.2264100000
   61      GH      3.2871100000    -0.6475300000     3.6208700000
   62      GH      2.5739000000    -1.2113400000     5.1453200000
   63      GH      1.5973500000    -1.1697100000     3.6658100000
   64      GH      1.0567000000     3.5586800000     3.3138900000
 ----------------------------------------------------------------

   14    -805.1977066750      6.73E-09 Convergence criterion met
 Total energy in the final basis set = -805.19770667

                    Orbital Energies (a.u.)
 --------------------------------------------------------------

 Alpha MOs
 -- Occupied --
-19.175 -19.173 -19.131 -19.119 -19.116 -10.309 -10.306 -10.246
-10.232 -10.230 -10.228 -10.205 -10.204 -10.180 -10.178 -10.171
 -1.120  -1.113  -1.063  -1.030  -1.027  -0.832  -0.796  -0.784
 -0.746  -0.729  -0.697  -0.655  -0.606  -0.590  -0.569  -0.562
 -0.534  -0.518  -0.510  -0.492  -0.490  -0.483  -0.476  -0.472
 -0.461  -0.443  -0.434  -0.425  -0.416  -0.405  -0.397  -0.389
 -0.381  -0.374  -0.369  -0.361  -0.355  -0.351  -0.333  -0.332
 -0.320  -0.313  -0.289  -0.281  -0.274

          Ground-State Mulliken Net Atomic Charges

     Atom                 Charge (a.u.)
  ----------------------------------------
      1 C                     0.116775
      2 C                     0.292253
      3 C                    -0.448342
      4 C                    -0.252987
      5 O                     0.029301
      6 O                    -0.146065
      7 O                     0.099405
      8 O                    -0.064200
      9 C                    -0.166433
     10 C                    -0.321977
     11 C                    -0.581486
     12 C                    -0.319784
     13 C                    -0.086816
     14 C                    -0.599042
     15 O                     0.037211
     16 H                     0.224445
     17 H                    -0.035516
     18 H                     0.195618
     19 H                     0.195385
     20 H                     0.207292
     21 H                     0.140523
     22 H                     0.205325
     23 H                     0.109883
     24 H                     0.179628
     25 H                     0.173608
     26 H                     0.127789
     27 H                     0.194808
     28 C                    -0.315146
     29 H                     0.191816
     30 H                     0.166996
     31 H                     0.194343
     32 H                     0.282124
     33 GH                    0.020080
     34 GH                    0.006486
     35 GH                   -0.024913
     36 GH                    0.005997
     37 GH                    0.002708
     38 GH                   -0.013922
     39 GH                    0.014419
     40 GH                    0.002798
     41 GH                   -0.053126
     42 GH                    0.003873
     43 GH                   -0.041799
     44 GH                   -0.010535
     45 GH                    0.001136
     46 GH                   -0.093599
     47 GH                    0.011862
     48 GH                   -0.000407
     49 GH                    0.000357
     50 GH                   -0.004732
     51 GH                    0.000827
     52 GH                    0.002921
     53 GH                   -0.000076
     54 GH                   -0.000585
     55 GH                    0.000180
     56 GH                    0.047358
     57 GH                    0.006446
     58 GH                   -0.000385
     59 GH                   -0.007680
     60 GH                    0.070093
     61 GH                    0.014318
     62 GH                   -0.002268
     63 GH                    0.014013
     64 GH                    0.001422
  ----------------------------------------
  Sum of atomic charges =     0.000000

                    Cartesian Multipole Moments
 -----------------------------------------------------------------
    Charge (ESU x 10^10)
                 0.0000
    Dipole Moment (Debye)
         X       0.0567      Y       0.4820      Z       1.1190
       Tot       1.2197
    Quadrupole Moments (Debye-Ang)
        XX     -81.7828     XY       2.5780     YY     -96.2177
        XZ       3.0612     YZ      10.8345     ZZ    -102.2039

 Total job time:  9355.14s(wall), 9328.66s(cpu)
        *  Thank you very much for using Q-Chem.  Have a nice day.  *
