 Q-Chem 5.0, Q-Chem, Inc., Pleasanton, CA (2017)
 Q-Chem 5.0.1 for Intel X86 EM64T Linux

User input:
--------------------------------------------------------------
$molecule
0  1
--
0  1
C        +0.22270000        +1.04488000        +0.58595000
C        +0.62626000        -0.41353000        +0.99871000
C        -1.18200000        +1.23223000        +0.04377000
C        -0.37457000        -1.51643000        +0.72333000
O        -2.09172000        +0.78832000        +0.93966000
O        -1.47336000        +1.75939000        -0.99882000
O        -0.91364000        -1.42792000        -0.50620000
O        -0.62208000        -2.40877000        +1.49911000
C        -1.86134000        -2.44741000        -0.86560000
C        -3.47068000        +0.87492000        +0.53920000
C        +1.33008000        +1.39974000        -0.43491000
C        +2.63070000        +1.71700000        +0.32855000
C        +3.04336000        +0.29351000        +0.80300000
C        +1.94423000        -0.59299000        +0.15262000
O        +1.62840000        +0.13663000        -1.04376000
H        +0.27811000        +1.68786000        +1.46900000
H        +0.83923000        -0.48042000        +2.06408000
H        -2.68749000        -2.46677000        -0.15296000
H        -3.76076000        +1.91522000        +0.38406000
H        +3.37234000        +2.13782000        -0.35195000
H        +2.48236000        +2.42488000        +1.14651000
H        +4.02182000        +0.00994000        +0.41161000
H        +3.07359000        +0.18738000        +1.88928000
H        -2.21148000        -2.17765000        -1.85937000
H        -1.38062000        -3.42697000        -0.88096000
H        -4.03855000        +0.43623000        +1.35671000
H        -3.63120000        +0.31700000        -0.38495000
C        +2.35450000        -2.01267000        -0.16812000
H        +3.26311000        -2.00678000        -0.77366000
H        +2.54990000        -2.57059000        +0.75079000
H        +1.57335000        -2.52896000        -0.72872000
H        +1.03270000        +2.19943000        -1.08064000
--
0  1
C        +0.24670000        +2.40413000        +4.98048000
C        +0.65026000        +0.94572000        +5.39324000
C        -1.15800000        +2.59148000        +4.43830000
C        -0.35057000        -0.15718000        +5.11786000
O        -2.06772000        +2.14757000        +5.33419000
O        -1.44936000        +3.11864000        +3.39571000
O        -0.88964000        -0.06867000        +3.88833000
O        -0.59808000        -1.04952000        +5.89364000
C        -1.83734000        -1.08816000        +3.52893000
C        -3.44668000        +2.23417000        +4.93373000
C        +1.35408000        +2.75899000        +3.95962000
C        +2.65470000        +3.07625000        +4.72308000
C        +3.06736000        +1.65276000        +5.19753000
C        +1.96823000        +0.76626000        +4.54715000
O        +1.65240000        +1.49588000        +3.35077000
H        +0.30211000        +3.04711000        +5.86353000
H        +0.86323000        +0.87883000        +6.45861000
H        -2.66349000        -1.10752000        +4.24157000
H        -3.73676000        +3.27447000        +4.77859000
H        +3.39634000        +3.49707000        +4.04258000
H        +2.50636000        +3.78413000        +5.54104000
H        +4.04582000        +1.36919000        +4.80614000
H        +3.09759000        +1.54663000        +6.28381000
H        -2.18748000        -0.81840000        +2.53516000
H        -1.35662000        -2.06772000        +3.51357000
H        -4.01455000        +1.79548000        +5.75124000
H        -3.60720000        +1.67625000        +4.00958000
C        +2.37850000        -0.65342000        +4.22641000
H        +3.28711000        -0.64753000        +3.62087000
H        +2.57390000        -1.21134000        +5.14532000
H        +1.59735000        -1.16971000        +3.66581000
H        +1.05670000        +3.55868000        +3.31389000
$end

$rem
JOBTYPE                   SP
METHOD                    B3LYP
DFT_D                     d3_op
BASIS                     6-311++G(d,p)
SYMMETRY                  False
THRESH                    12
SCF_CONVERGENCE           8
MAX_SUB_FILE_NUM          128
MEM_STATIC                400
MEM_TOTAL                 4000
$end
--------------------------------------------------------------

             Standard Nuclear Orientation (Angstroms)
    I     Atom           X                Y                Z
 ----------------------------------------------------------------
    1      C      -1.4202384043     0.2221972425     1.1453333815
    2      C      -1.6013887744     0.5871908963    -0.3693135726
    3      C      -1.8916578051    -1.1554204582     1.5721524111
    4      C      -2.3218748049    -0.4165460706    -1.2452674665
    5      O      -1.2737192131    -2.1085534057     0.8393803185
    6      O      -2.6518262896    -1.3947562586     2.4747289858
    7      O      -3.4346868216    -0.9016112907    -0.6651505353
    8      O      -1.9685660960    -0.7093767114    -2.3627600419
    9      C      -4.1977636748    -1.8475234746    -1.4330225081
   10      C      -1.6537203154    -3.4679005088     1.1171807303
   11      C      -2.1814120120     1.3768390633     1.8394430474
   12      C      -1.3116234928     2.6482237234     1.7926836493
   13      C      -1.4220527343     3.0201826352     0.2856445626
   14      C      -2.4051977332     1.9372303207    -0.2412362085
   15      O      -3.2278089207     1.6828442231     0.9085540268
   16      H      -0.3541018497     0.2491498498     1.3880209479
   17      H      -0.6418040972     0.7537599185    -0.8554161728
   18      H      -3.5783255627    -2.7033817914    -1.7060744602
   19      H      -1.3966130718    -3.7363833062     2.1429739691
   20      H      -1.7463923321     3.4239718631     2.4246571394
   21      H      -0.2865702648     2.4753128177     2.1266374035
   22      H      -1.8604535549     4.0102704258     0.1495823118
   23      H      -0.4648163741     3.0027516813    -0.2393091313
   24      H      -5.0163329529    -2.1512952738    -0.7844746525
   25      H      -4.5812291417    -1.3804920613    -2.3417036052
   26      H      -1.0942917452    -4.0761237938     0.4098251171
   27      H      -2.7276648960    -3.5969090012     0.9719413898
   28      C      -3.2447635317     2.3406234390    -1.4324919262
   29      H      -3.7683464709     3.2741205111    -1.2163215353
   30      H      -2.6135386748     2.4889123103    -2.3119332632
   31      H      -3.9891056018     1.5767577303    -1.6637647271
   32      H      -2.4699412275     1.1184923771     2.8368968433
   33      C       3.1527541571     0.0787895776     0.6686744273
   34      C       2.9716037869     0.4437832314    -0.8459725268
   35      C       2.6813347563    -1.2988281232     1.0954934569
   36      C       2.2511177564    -0.5599537356    -1.7219264207
   37      O       3.2992733482    -2.2519610706     0.3627213643
   38      O       1.9211662718    -1.5381639235     1.9980700316
   39      O       1.1383057398    -1.0450189556    -1.1418094895
   40      O       2.6044264653    -0.8527843763    -2.8394189961
   41      C       0.3752288866    -1.9909311395    -1.9096814623
   42      C       2.9192722460    -3.6113081737     0.6405217761
   43      C       2.3915805494     1.2334313983     1.3627840932
   44      C       3.2613690686     2.5048160585     1.3160246951
   45      C       3.1509398271     2.8767749703    -0.1910143916
   46      C       2.1677948282     1.7938226558    -0.7178951627
   47      O       1.3451836407     1.5394365582     0.4318950726
   48      H       4.2188907117     0.1057421849     0.9113619937
   49      H       3.9311884642     0.6103522536    -1.3320751269
   50      H       0.9946669986    -2.8467894564    -2.1827334144
   51      H       3.1763794895    -3.8797909712     1.6663150149
   52      H       2.8266002293     3.2805641982     1.9479981852
   53      H       4.2864222966     2.3319051527     1.6499784493
   54      H       2.7125390065     3.8668627609    -0.3270766424
   55      H       4.1081761873     2.8593440164    -0.7159680855
   56      H      -0.4433403915    -2.2947029387    -1.2611336067
   57      H      -0.0082365803    -1.5238997262    -2.8183625594
   58      H       3.4787008161    -4.2195314587    -0.0668338371
   59      H       1.8453276654    -3.7403166661     0.4952824356
   60      C       1.3282290297     2.1972157740    -1.9091508804
   61      H       0.8046460905     3.1307128462    -1.6929804895
   62      H       1.9594538865     2.3455046454    -2.7885922174
   63      H       0.5838869596     1.4333500654    -2.1404236813
   64      H       2.1030513339     0.9750847122     2.3602378891
 ----------------------------------------------------------------

   15   -1610.4005872174      5.06E-09 Convergence criterion met
 Total energy in the final basis set = -1610.40058722

                    Orbital Energies (a.u.)
 --------------------------------------------------------------

 Alpha MOs
 -- Occupied --
-19.179 -19.170 -19.169 -19.167 -19.145 -19.125 -19.118 -19.114
-19.114 -19.108 -10.315 -10.305 -10.302 -10.298 -10.256 -10.240
-10.235 -10.234 -10.229 -10.228 -10.215 -10.212 -10.210 -10.209
-10.189 -10.188 -10.188 -10.186 -10.179 -10.164 -10.164 -10.163
 -1.123  -1.116  -1.111  -1.106  -1.078  -1.051  -1.036  -1.027
 -1.024  -1.021  -0.840  -0.819  -0.806  -0.792  -0.784  -0.771
 -0.747  -0.740  -0.727  -0.722  -0.704  -0.687  -0.661  -0.645
 -0.613  -0.599  -0.597  -0.580  -0.569  -0.566  -0.564  -0.554
 -0.540  -0.525  -0.524  -0.516  -0.511  -0.503  -0.499  -0.494
 -0.488  -0.484  -0.482  -0.480  -0.476  -0.473  -0.468  -0.466
 -0.464  -0.453  -0.447  -0.440  -0.434  -0.428  -0.427  -0.418
 -0.416  -0.411  -0.408  -0.401  -0.397  -0.396  -0.390  -0.385
 -0.381  -0.376  -0.374  -0.370  -0.369  -0.365  -0.364  -0.360
 -0.353  -0.349  -0.343  -0.341  -0.339  -0.335  -0.323  -0.322
 -0.318  -0.316  -0.307  -0.304  -0.295  -0.290  -0.282  -0.280
 -0.274  -0.261

          Ground-State Mulliken Net Atomic Charges

     Atom                 Charge (a.u.)
  ----------------------------------------
      1 C                     0.308717
      2 C                     0.355656
      3 C                    -0.506117
      4 C                    -0.256690
      5 O                     0.005612
      6 O                    -0.154571
      7 O                     0.113294
      8 O                    -0.075908
      9 C                    -0.164209
     10 C                    -0.301087
     11 C                    -0.626086
     12 C                    -0.331409
     13 C                     0.014867
     14 C                    -0.662897
     15 O                     0.029985
     16 H                     0.293671
     17 H                    -0.223107
     18 H                     0.191757
     19 H                     0.203457
     20 H                     0.195976
     21 H                     0.123220
     22 H                     0.196589
     23 H                     0.039750
     24 H                     0.180753
     25 H                     0.173331
     26 H                     0.115970
     27 H                     0.195458
     28 C                    -0.320764
     29 H                     0.190002
     30 H                     0.158964
     31 H                     0.190149
     32 H                     0.275658
     33 C                    -0.033044
     34 C                     0.306362
     35 C                    -0.677934
     36 C                    -0.739605
     37 O                     0.057631
     38 O                    -0.091395
     39 O                     0.049382
     40 O                    -0.084286
     41 C                    -0.375883
     42 C                    -0.165312
     43 C                    -0.067982
     44 C                    -0.760948
     45 C                    -0.240377
     46 C                    -0.303637
     47 O                     0.269410
     48 H                     0.250170
     49 H                     0.289853
     50 H                     0.215539
     51 H                     0.168914
     52 H                     0.175188
     53 H                     0.144978
     54 H                     0.171804
     55 H                     0.149055
     56 H                     0.118641
     57 H                     0.251492
     58 H                     0.169896
     59 H                     0.184571
     60 C                    -0.337298
     61 H                     0.222476
     62 H                     0.202461
     63 H                     0.271612
     64 H                     0.278274
  ----------------------------------------
  Sum of atomic charges =     0.000000

                    Cartesian Multipole Moments
 -----------------------------------------------------------------
    Charge (ESU x 10^10)
                 0.0000
    Dipole Moment (Debye)
         X       3.2562      Y       0.0856      Z       0.0126
       Tot       3.2574
    Quadrupole Moments (Debye-Ang)
        XX    -187.9043     XY      10.0597     YY    -166.4248
        XZ      19.3568     YZ      -0.3849     ZZ    -209.8299

 Total job time:  8083.47s(wall), 8064.72s(cpu)
        *  Thank you very much for using Q-Chem.  Have a nice day.  *
