 Q-Chem 5.0, Q-Chem, Inc., Pleasanton, CA (2017)
 Q-Chem 5.0.1 for Intel X86 EM64T Linux

User input:
--------------------------------------------------------------
$molecule
0  1
C        +0.24670000        +2.40413000        +4.98048000
C        +0.65026000        +0.94572000        +5.39324000
C        -1.15800000        +2.59148000        +4.43830000
C        -0.35057000        -0.15718000        +5.11786000
O        -2.06772000        +2.14757000        +5.33419000
O        -1.44936000        +3.11864000        +3.39571000
O        -0.88964000        -0.06867000        +3.88833000
O        -0.59808000        -1.04952000        +5.89364000
C        -1.83734000        -1.08816000        +3.52893000
C        -3.44668000        +2.23417000        +4.93373000
C        +1.35408000        +2.75899000        +3.95962000
C        +2.65470000        +3.07625000        +4.72308000
C        +3.06736000        +1.65276000        +5.19753000
C        +1.96823000        +0.76626000        +4.54715000
O        +1.65240000        +1.49588000        +3.35077000
H        +0.30211000        +3.04711000        +5.86353000
H        +0.86323000        +0.87883000        +6.45861000
H        -2.66349000        -1.10752000        +4.24157000
H        -3.73676000        +3.27447000        +4.77859000
H        +3.39634000        +3.49707000        +4.04258000
H        +2.50636000        +3.78413000        +5.54104000
H        +4.04582000        +1.36919000        +4.80614000
H        +3.09759000        +1.54663000        +6.28381000
H        -2.18748000        -0.81840000        +2.53516000
H        -1.35662000        -2.06772000        +3.51357000
H        -4.01455000        +1.79548000        +5.75124000
H        -3.60720000        +1.67625000        +4.00958000
C        +0.92428000        +3.75002000        +2.90023000
C        +2.37850000        -0.65342000        +4.22641000
H        +3.28711000        -0.64753000        +3.62087000
H        +2.57390000        -1.21134000        +5.14532000
H        +1.59735000        -1.16971000        +3.66581000
H        +1.74245000        +3.94111000        +2.23767000
H        +0.62319000        +4.66403000        +3.36803000
H        +0.10325000        +3.34578000        +2.34579000
@C        +0.22270000        +1.04488000        +0.58595000
@C        +0.62626000        -0.41353000        +0.99871000
@C        -1.18200000        +1.23223000        +0.04377000
@C        -0.37457000        -1.51643000        +0.72333000
@O        -2.09172000        +0.78832000        +0.93966000
@O        -1.47336000        +1.75939000        -0.99882000
@O        -0.91364000        -1.42792000        -0.50620000
@O        -0.62208000        -2.40877000        +1.49911000
@C        -1.86134000        -2.44741000        -0.86560000
@C        -3.47068000        +0.87492000        +0.53920000
@C        +1.33008000        +1.39974000        -0.43491000
@C        +2.63070000        +1.71700000        +0.32855000
@C        +3.04336000        +0.29351000        +0.80300000
@C        +1.94423000        -0.59299000        +0.15262000
@O        +1.62840000        +0.13663000        -1.04376000
@H        +0.27811000        +1.68786000        +1.46900000
@H        +0.83923000        -0.48042000        +2.06408000
@H        -2.68749000        -2.46677000        -0.15296000
@H        -3.76076000        +1.91522000        +0.38406000
@H        +3.37234000        +2.13782000        -0.35195000
@H        +2.48236000        +2.42488000        +1.14651000
@H        +4.02182000        +0.00994000        +0.41161000
@H        +3.07359000        +0.18738000        +1.88928000
@H        -2.21148000        -2.17765000        -1.85937000
@H        -1.38062000        -3.42697000        -0.88096000
@H        -4.03855000        +0.43623000        +1.35671000
@H        -3.63120000        +0.31700000        -0.38495000
@C        +0.90028000        +2.39077000        -1.49430000
@C        +2.35450000        -2.01267000        -0.16812000
@H        +3.26311000        -2.00678000        -0.77366000
@H        +2.54990000        -2.57059000        +0.75079000
@H        +1.57335000        -2.52896000        -0.72872000
@H        +1.71845000        +2.58186000        -2.15686000
@H        +0.59919000        +3.30478000        -1.02650000
@H        +0.07925000        +1.98653000        -2.04874000
$end

$rem
JOBTYPE                   SP
METHOD                    B3LYP
DFT_D                     d3_op
BASIS                     6-311++G(d,p)
SYMMETRY                  False
THRESH                    12
SCF_CONVERGENCE           8
MAX_SUB_FILE_NUM          128
MEM_STATIC                400
MEM_TOTAL                 4000
$end
--------------------------------------------------------------

             Standard Nuclear Orientation (Angstroms)
    I     Atom           X                Y                Z
 ----------------------------------------------------------------
    1      C       0.2467000000     2.4041300000     4.9804800000
    2      C       0.6502600000     0.9457200000     5.3932400000
    3      C      -1.1580000000     2.5914800000     4.4383000000
    4      C      -0.3505700000    -0.1571800000     5.1178600000
    5      O      -2.0677200000     2.1475700000     5.3341900000
    6      O      -1.4493600000     3.1186400000     3.3957100000
    7      O      -0.8896400000    -0.0686700000     3.8883300000
    8      O      -0.5980800000    -1.0495200000     5.8936400000
    9      C      -1.8373400000    -1.0881600000     3.5289300000
   10      C      -3.4466800000     2.2341700000     4.9337300000
   11      C       1.3540800000     2.7589900000     3.9596200000
   12      C       2.6547000000     3.0762500000     4.7230800000
   13      C       3.0673600000     1.6527600000     5.1975300000
   14      C       1.9682300000     0.7662600000     4.5471500000
   15      O       1.6524000000     1.4958800000     3.3507700000
   16      H       0.3021100000     3.0471100000     5.8635300000
   17      H       0.8632300000     0.8788300000     6.4586100000
   18      H      -2.6634900000    -1.1075200000     4.2415700000
   19      H      -3.7367600000     3.2744700000     4.7785900000
   20      H       3.3963400000     3.4970700000     4.0425800000
   21      H       2.5063600000     3.7841300000     5.5410400000
   22      H       4.0458200000     1.3691900000     4.8061400000
   23      H       3.0975900000     1.5466300000     6.2838100000
   24      H      -2.1874800000    -0.8184000000     2.5351600000
   25      H      -1.3566200000    -2.0677200000     3.5135700000
   26      H      -4.0145500000     1.7954800000     5.7512400000
   27      H      -3.6072000000     1.6762500000     4.0095800000
   28      C       0.9242800000     3.7500200000     2.9002300000
   29      C       2.3785000000    -0.6534200000     4.2264100000
   30      H       3.2871100000    -0.6475300000     3.6208700000
   31      H       2.5739000000    -1.2113400000     5.1453200000
   32      H       1.5973500000    -1.1697100000     3.6658100000
   33      H       1.7424500000     3.9411100000     2.2376700000
   34      H       0.6231900000     4.6640300000     3.3680300000
   35      H       0.1032500000     3.3457800000     2.3457900000
   36      GH      0.2227000000     1.0448800000     0.5859500000
   37      GH      0.6262600000    -0.4135300000     0.9987100000
   38      GH     -1.1820000000     1.2322300000     0.0437700000
   39      GH     -0.3745700000    -1.5164300000     0.7233300000
   40      GH     -2.0917200000     0.7883200000     0.9396600000
   41      GH     -1.4733600000     1.7593900000    -0.9988200000
   42      GH     -0.9136400000    -1.4279200000    -0.5062000000
   43      GH     -0.6220800000    -2.4087700000     1.4991100000
   44      GH     -1.8613400000    -2.4474100000    -0.8656000000
   45      GH     -3.4706800000     0.8749200000     0.5392000000
   46      GH      1.3300800000     1.3997400000    -0.4349100000
   47      GH      2.6307000000     1.7170000000     0.3285500000
   48      GH      3.0433600000     0.2935100000     0.8030000000
   49      GH      1.9442300000    -0.5929900000     0.1526200000
   50      GH      1.6284000000     0.1366300000    -1.0437600000
   51      GH      0.2781100000     1.6878600000     1.4690000000
   52      GH      0.8392300000    -0.4804200000     2.0640800000
   53      GH     -2.6874900000    -2.4667700000    -0.1529600000
   54      GH     -3.7607600000     1.9152200000     0.3840600000
   55      GH      3.3723400000     2.1378200000    -0.3519500000
   56      GH      2.4823600000     2.4248800000     1.1465100000
   57      GH      4.0218200000     0.0099400000     0.4116100000
   58      GH      3.0735900000     0.1873800000     1.8892800000
   59      GH     -2.2114800000    -2.1776500000    -1.8593700000
   60      GH     -1.3806200000    -3.4269700000    -0.8809600000
   61      GH     -4.0385500000     0.4362300000     1.3567100000
   62      GH     -3.6312000000     0.3170000000    -0.3849500000
   63      GH      0.9002800000     2.3907700000    -1.4943000000
   64      GH      2.3545000000    -2.0126700000    -0.1681200000
   65      GH      3.2631100000    -2.0067800000    -0.7736600000
   66      GH      2.5499000000    -2.5705900000     0.7507900000
   67      GH      1.5733500000    -2.5289600000    -0.7287200000
   68      GH      1.7184500000     2.5818600000    -2.1568600000
   69      GH      0.5991900000     3.3047800000    -1.0265000000
   70      GH      0.0792500000     1.9865300000    -2.0487400000
 ----------------------------------------------------------------

   14    -844.5188310414      5.83E-09 Convergence criterion met
 Total energy in the final basis set = -844.51883104

                    Orbital Energies (a.u.)
 --------------------------------------------------------------

 Alpha MOs
 -- Occupied --
-19.176 -19.174 -19.125 -19.117 -19.116 -10.311 -10.306 -10.243
-10.232 -10.231 -10.231 -10.204 -10.203 -10.177 -10.175 -10.169
-10.136  -1.121  -1.114  -1.061  -1.034  -1.027  -0.832  -0.804
 -0.784  -0.748  -0.730  -0.720  -0.674  -0.644  -0.603  -0.579
 -0.570  -0.561  -0.525  -0.514  -0.508  -0.493  -0.489  -0.479
 -0.476  -0.471  -0.459  -0.442  -0.435  -0.433  -0.414  -0.411
 -0.403  -0.399  -0.395  -0.374  -0.372  -0.364  -0.358  -0.355
 -0.349  -0.346  -0.333  -0.328  -0.321  -0.313  -0.284  -0.272
 -0.270

          Ground-State Mulliken Net Atomic Charges

     Atom                 Charge (a.u.)
  ----------------------------------------
      1 C                    -0.269269
      2 C                     0.238225
      3 C                    -0.544987
      4 C                    -0.742417
      5 O                     0.079535
      6 O                    -0.055289
      7 O                     0.003079
      8 O                    -0.084918
      9 C                    -0.336147
     10 C                    -0.154067
     11 C                     0.021186
     12 C                    -0.254983
     13 C                    -0.212313
     14 C                    -0.165664
     15 O                     0.316023
     16 H                     0.252539
     17 H                     0.280437
     18 H                     0.241645
     19 H                     0.167692
     20 H                     0.176031
     21 H                     0.152518
     22 H                     0.170497
     23 H                     0.149398
     24 H                     0.088418
     25 H                     0.218619
     26 H                     0.170260
     27 H                     0.178554
     28 C                    -0.737010
     29 C                    -0.441125
     30 H                     0.209357
     31 H                     0.199280
     32 H                     0.216019
     33 H                     0.132479
     34 H                     0.167309
     35 H                     0.185891
     36 GH                   -0.005590
     37 GH                    0.220184
     38 GH                    0.065859
     39 GH                    0.067890
     40 GH                   -0.027950
     41 GH                    0.000314
     42 GH                   -0.002174
     43 GH                   -0.021647
     44 GH                    0.003314
     45 GH                    0.010822
     46 GH                   -0.148337
     47 GH                   -0.010953
     48 GH                   -0.019421
     49 GH                   -0.070428
     50 GH                   -0.001199
     51 GH                    0.041064
     52 GH                   -0.058322
     53 GH                    0.002099
     54 GH                    0.002080
     55 GH                   -0.007922
     56 GH                   -0.004754
     57 GH                   -0.003864
     58 GH                   -0.047506
     59 GH                    0.000076
     60 GH                   -0.000372
     61 GH                    0.006142
     62 GH                   -0.000107
     63 GH                    0.000445
     64 GH                   -0.001510
     65 GH                    0.000039
     66 GH                   -0.002966
     67 GH                    0.000415
     68 GH                    0.000124
     69 GH                   -0.003350
     70 GH                    0.000704
  ----------------------------------------
  Sum of atomic charges =     0.000000

                    Cartesian Multipole Moments
 -----------------------------------------------------------------
    Charge (ESU x 10^10)
                 0.0000
    Dipole Moment (Debye)
         X      -0.3304      Y       0.5083      Z       0.8949
       Tot       1.0809
    Quadrupole Moments (Debye-Ang)
        XX     -89.0743     XY       1.3554     YY    -102.2215
        XZ       2.0436     YZ      14.2672     ZZ    -100.4672

 Total job time:  3994.41s(wall), 7948.46s(cpu)
        *  Thank you very much for using Q-Chem.  Have a nice day.  *
