 Q-Chem 5.0, Q-Chem, Inc., Pleasanton, CA (2017)
 Q-Chem 5.0.1 for Intel X86 EM64T Linux

User input:
--------------------------------------------------------------
$molecule
0  1
--
0  1
C        +0.22270000        +1.04488000        +0.58595000
C        +0.62626000        -0.41353000        +0.99871000
C        -1.18200000        +1.23223000        +0.04377000
C        -0.37457000        -1.51643000        +0.72333000
O        -2.09172000        +0.78832000        +0.93966000
O        -1.47336000        +1.75939000        -0.99882000
O        -0.91364000        -1.42792000        -0.50620000
O        -0.62208000        -2.40877000        +1.49911000
C        -1.86134000        -2.44741000        -0.86560000
C        -3.47068000        +0.87492000        +0.53920000
C        +1.33008000        +1.39974000        -0.43491000
C        +2.63070000        +1.71700000        +0.32855000
C        +3.04336000        +0.29351000        +0.80300000
C        +1.94423000        -0.59299000        +0.15262000
O        +1.62840000        +0.13663000        -1.04376000
H        +0.27811000        +1.68786000        +1.46900000
H        +0.83923000        -0.48042000        +2.06408000
H        -2.68749000        -2.46677000        -0.15296000
H        -3.76076000        +1.91522000        +0.38406000
H        +3.37234000        +2.13782000        -0.35195000
H        +2.48236000        +2.42488000        +1.14651000
H        +4.02182000        +0.00994000        +0.41161000
H        +3.07359000        +0.18738000        +1.88928000
H        -2.21148000        -2.17765000        -1.85937000
H        -1.38062000        -3.42697000        -0.88096000
H        -4.03855000        +0.43623000        +1.35671000
H        -3.63120000        +0.31700000        -0.38495000
C        +0.90028000        +2.39077000        -1.49430000
C        +2.35450000        -2.01267000        -0.16812000
H        +3.26311000        -2.00678000        -0.77366000
H        +2.54990000        -2.57059000        +0.75079000
H        +1.57335000        -2.52896000        -0.72872000
H        +1.71845000        +2.58186000        -2.15686000
H        +0.59919000        +3.30478000        -1.02650000
H        +0.07925000        +1.98653000        -2.04874000
--
0  1
C        +0.24670000        +2.40413000        +4.98048000
C        +0.65026000        +0.94572000        +5.39324000
C        -1.15800000        +2.59148000        +4.43830000
C        -0.35057000        -0.15718000        +5.11786000
O        -2.06772000        +2.14757000        +5.33419000
O        -1.44936000        +3.11864000        +3.39571000
O        -0.88964000        -0.06867000        +3.88833000
O        -0.59808000        -1.04952000        +5.89364000
C        -1.83734000        -1.08816000        +3.52893000
C        -3.44668000        +2.23417000        +4.93373000
C        +1.35408000        +2.75899000        +3.95962000
C        +2.65470000        +3.07625000        +4.72308000
C        +3.06736000        +1.65276000        +5.19753000
C        +1.96823000        +0.76626000        +4.54715000
O        +1.65240000        +1.49588000        +3.35077000
H        +0.30211000        +3.04711000        +5.86353000
H        +0.86323000        +0.87883000        +6.45861000
H        -2.66349000        -1.10752000        +4.24157000
H        -3.73676000        +3.27447000        +4.77859000
H        +3.39634000        +3.49707000        +4.04258000
H        +2.50636000        +3.78413000        +5.54104000
H        +4.04582000        +1.36919000        +4.80614000
H        +3.09759000        +1.54663000        +6.28381000
H        -2.18748000        -0.81840000        +2.53516000
H        -1.35662000        -2.06772000        +3.51357000
H        -4.01455000        +1.79548000        +5.75124000
H        -3.60720000        +1.67625000        +4.00958000
C        +0.92428000        +3.75002000        +2.90023000
C        +2.37850000        -0.65342000        +4.22641000
H        +3.28711000        -0.64753000        +3.62087000
H        +2.57390000        -1.21134000        +5.14532000
H        +1.59735000        -1.16971000        +3.66581000
H        +1.74245000        +3.94111000        +2.23767000
H        +0.62319000        +4.66403000        +3.36803000
H        +0.10325000        +3.34578000        +2.34579000
$end

$rem
JOBTYPE                   SP
METHOD                    B3LYP
DFT_D                     d3_op
BASIS                     6-311++G(d,p)
SYMMETRY                  False
THRESH                    12
SCF_CONVERGENCE           8
MAX_SUB_FILE_NUM          128
MEM_STATIC                400
MEM_TOTAL                 4000
$end
--------------------------------------------------------------

             Standard Nuclear Orientation (Angstroms)
    I     Atom           X                Y                Z
 ----------------------------------------------------------------
    1      C      -1.4228408882     0.2620722400     0.8730060371
    2      C      -1.5529901068     0.4122917640    -0.6828495136
    3      C      -1.8831470326    -1.0555875118     1.4680961958
    4      C      -2.2195852673    -0.7190985498    -1.4374951875
    5      O      -1.2190311138    -2.0842938307     0.8954018494
    6      O      -2.6724751507    -1.1881472198     2.3676356720
    7      O      -3.3440649287    -1.1477335151    -0.8358374248
    8      O      -1.8180745432    -1.1529374972    -2.4910317983
    9      C      -4.0584837571    -2.2081539788    -1.4929353536
   10      C      -1.5826563821    -3.4019477207     1.3436912019
   11      C      -2.2325310543     1.4815268470     1.3747066648
   12      C      -1.3866925680     2.7556942892     1.1844645878
   13      C      -1.4466140182     2.9155952043    -0.3623243362
   14      C      -2.3874364908     1.7469294998    -0.7698003447
   15      O      -3.2483195063     1.6316733070     0.3743217997
   16      H      -0.3675117684     0.3481996922     1.1471106920
   17      H      -0.5789489695     0.5345643016    -1.1531015942
   18      H      -3.4123790138    -3.0777295802    -1.6238602780
   19      H      -1.3597964838    -3.5214524783     2.4050540026
   20      H      -1.8604700029     3.5994895866     1.6881947241
   21      H      -0.3719832485     2.6553365934     1.5749139975
   22      H      -1.8988177189     3.8667178943    -0.6484353113
   23      H      -0.4698227991     2.8502851892    -0.8458480526
   24      H      -4.8951687439    -2.4406468034    -0.8380669627
   25      H      -4.4159628820    -1.8791502661    -2.4700897293
   26      H      -0.9847340257    -4.0870533254     0.7467263628
   27      H      -2.6475157608    -3.5760335077     1.1797910443
   28      C      -2.8737161171     1.2828901527     2.7306568306
   29      C      -3.1885265605     1.9630807676    -2.0340077060
   30      H      -3.7382097148     2.9041440830    -1.9666743408
   31      H      -2.5271228268     2.0054509058    -2.9026856365
   32      H      -3.9083433521     1.1566637054    -2.1842686625
   33      H      -3.4117590318     2.1665651033     3.0036617650
   34      H      -2.1145296819     1.0882180921     3.4591107095
   35      H      -3.5483037961     0.4534163794     2.6881283109
   36      C       3.1669810075     0.1678071086     0.5820085558
   37      C       3.0368317889     0.3180266326    -0.9738469949
   38      C       2.7066748631    -1.1498526432     1.1770987145
   39      C       2.3702366284    -0.8133636812    -1.7284926688
   40      O       3.3707907819    -2.1785589621     0.6044043681
   41      O       1.9173467450    -1.2824123512     2.0766381907
   42      O       1.2457569670    -1.2419986465    -1.1268349060
   43      O       2.7717473525    -1.2472026286    -2.7820292796
   44      C       0.5313381386    -2.3024191102    -1.7839328349
   45      C       3.0071655136    -3.4962128521     1.0526937207
   46      C       2.3572908414     1.3872617157     1.0837091836
   47      C       3.2031293277     2.6614291578     0.8934671065
   48      C       3.1432078775     2.8213300729    -0.6533218175
   49      C       2.2023854049     1.6526643684    -1.0607978260
   50      O       1.3415023894     1.5374081757     0.0833243184
   51      H       4.2223101273     0.2539345609     0.8561132107
   52      H       4.0108729262     0.4402991702    -1.4440990755
   53      H       1.1774428819    -3.1719947116    -1.9148577593
   54      H       3.2300254119    -3.6157176097     2.1140565213
   55      H       2.7293518928     3.5052244552     1.3971972428
   56      H       4.2178386472     2.5610714620     1.2839165162
   57      H       2.6910041768     3.7724527629    -0.9394327926
   58      H       4.1199990967     2.7560200579    -1.1368455339
   59      H      -0.3053468482    -2.5349119348    -1.1290644440
   60      H       0.1738590137    -1.9734153974    -2.7610872106
   61      H       3.6050878700    -4.1813184568     0.4557288815
   62      H       1.9423061349    -3.6702986391     0.8887935630
   63      C       1.7161057786     1.1886250213     2.4396593493
   64      C       1.4012953352     1.8688156362    -2.3250051873
   65      H       0.8516121809     2.8098789517    -2.2576718221
   66      H       2.0626990689     1.9111857744    -3.1936831178
   67      H       0.6814785436     1.0623985740    -2.4752661438
   68      H       1.1780628639     2.0722999719     2.7126642837
   69      H       2.4752922138     0.9939529608     3.1681132282
   70      H       1.0415180996     0.3591512481     2.3971308296
 ----------------------------------------------------------------

   15   -1689.0402446452      5.18E-09 Convergence criterion met
 Total energy in the final basis set = -1689.04024465

                    Orbital Energies (a.u.)
 --------------------------------------------------------------

 Alpha MOs
 -- Occupied --
-19.180 -19.171 -19.169 -19.169 -19.138 -19.123 -19.114 -19.114
-19.113 -19.108 -10.317 -10.304 -10.302 -10.301 -10.252 -10.243
-10.235 -10.231 -10.230 -10.229 -10.218 -10.211 -10.209 -10.208
-10.189 -10.186 -10.185 -10.184 -10.176 -10.162 -10.162 -10.158
-10.150 -10.126  -1.124  -1.117  -1.111  -1.109  -1.075  -1.049
 -1.039  -1.028  -1.026  -1.024  -0.840  -0.819  -0.815  -0.793
 -0.791  -0.771  -0.749  -0.743  -0.735  -0.725  -0.723  -0.711
 -0.680  -0.665  -0.652  -0.633  -0.608  -0.595  -0.589  -0.572
 -0.571  -0.565  -0.563  -0.553  -0.531  -0.520  -0.518  -0.510
 -0.509  -0.501  -0.499  -0.492  -0.486  -0.486  -0.482  -0.480
 -0.475  -0.471  -0.470  -0.465  -0.463  -0.451  -0.449  -0.441
 -0.439  -0.433  -0.428  -0.427  -0.420  -0.414  -0.411  -0.407
 -0.405  -0.402  -0.398  -0.392  -0.391  -0.382  -0.380  -0.375
 -0.373  -0.368  -0.367  -0.364  -0.362  -0.358  -0.355  -0.353
 -0.349  -0.342  -0.339  -0.336  -0.335  -0.330  -0.324  -0.321
 -0.318  -0.315  -0.309  -0.304  -0.288  -0.284  -0.280  -0.275
 -0.261  -0.259

          Ground-State Mulliken Net Atomic Charges

     Atom                 Charge (a.u.)
  ----------------------------------------
      1 C                     0.173731
      2 C                     0.644661
      3 C                     0.016169
      4 C                    -0.138986
      5 O                     0.050003
      6 O                    -0.106667
      7 O                     0.111537
      8 O                    -0.054706
      9 C                    -0.166471
     10 C                    -0.266318
     11 C                    -1.334048
     12 C                    -0.002268
     13 C                     0.202616
     14 C                    -1.538550
     15 O                     0.207027
     16 H                    -0.017495
     17 H                    -0.021740
     18 H                     0.193240
     19 H                     0.202520
     20 H                     0.195787
     21 H                     0.115362
     22 H                     0.199518
     23 H                     0.033194
     24 H                     0.173752
     25 H                     0.178635
     26 H                     0.123383
     27 H                     0.198467
     28 C                    -0.342035
     29 C                    -0.092291
     30 H                     0.184587
     31 H                     0.162605
     32 H                     0.190708
     33 H                     0.138885
     34 H                     0.145102
     35 H                     0.212105
     36 C                    -0.247886
     37 C                     0.267614
     38 C                    -0.541998
     39 C                    -0.731705
     40 O                     0.082591
     41 O                    -0.072813
     42 O                     0.030182
     43 O                    -0.079369
     44 C                    -0.359378
     45 C                    -0.153131
     46 C                    -0.001125
     47 C                    -0.264357
     48 C                    -0.234876
     49 C                    -0.241797
     50 O                     0.294476
     51 H                     0.256374
     52 H                     0.284532
     53 H                     0.217290
     54 H                     0.168016
     55 H                     0.176992
     56 H                     0.156713
     57 H                     0.173183
     58 H                     0.153426
     59 H                     0.117120
     60 H                     0.248112
     61 H                     0.171750
     62 H                     0.172783
     63 C                    -0.773762
     64 C                    -0.467187
     65 H                     0.233510
     66 H                     0.200404
     67 H                     0.246433
     68 H                     0.151337
     69 H                     0.168242
     70 H                     0.226284
  ----------------------------------------
  Sum of atomic charges =     0.000000

                    Cartesian Multipole Moments
 -----------------------------------------------------------------
    Charge (ESU x 10^10)
                -0.0000
    Dipole Moment (Debye)
         X       3.0007      Y      -0.4848      Z       0.4244
       Tot       3.0690
    Quadrupole Moments (Debye-Ang)
        XX    -202.1633     XY      12.4436     YY    -181.5686
        XZ      17.6578     YZ      -6.8871     ZZ    -221.1575

 Total job time:  4148.16s(wall), 8260.84s(cpu)
        *  Thank you very much for using Q-Chem.  Have a nice day.  *
