 Q-Chem 5.0, Q-Chem, Inc., Pleasanton, CA (2017)
 Q-Chem 5.0.1 for Intel X86 EM64T Linux

User input:
--------------------------------------------------------------
$molecule
0  1
--
0  1
C        -0.54444000        -0.68370000        -0.06689000
C        -0.55709000        +0.71878000        +0.05493000
C        +0.74969000        -1.43776000        -0.09374000
C        +0.72843000        +1.48436000        +0.06598000
O        +1.53645000        -1.09176000        +0.94813000
O        +1.04702000        -2.28405000        -0.90088000
O        +1.53784000        +1.08301000        -0.93877000
O        +1.01035000        +2.37097000        +0.83478000
C        +2.83449000        +1.70121000        -0.99358000
C        +2.82316000        -1.73208000        +1.00475000
C        -1.74320000        -1.41616000        -0.12552000
C        -2.93952000        -0.70056000        -0.05285000
C        -2.95313000        +0.68255000        +0.06934000
C        -1.77161000        +1.42404000        +0.12810000
H        +2.73835000        +2.77989000        -1.12464000
H        +2.70778000        -2.81319000        +1.09555000
H        -3.90354000        +1.20325000        +0.11710000
H        +3.38998000        +1.50093000        -0.07544000
H        +3.33184000        +1.25269000        -1.85067000
H        +3.31095000        -1.32281000        +1.88650000
H        +3.39889000        -1.50934000        +0.10459000
H        -3.87892000        -1.24211000        -0.08988000
C        -1.83960000        +2.92746000        +0.24839000
H        -1.24214000        +3.42352000        -0.52065000
H        -1.45503000        +3.26427000        +1.21284000
H        -2.87211000        +3.26623000        +0.14638000
H        -1.73878000        -2.44393000        -0.21875000
--
0  1
C        -0.51278000        -1.08478000        +4.51548000
C        -0.52543000        +0.31770000        +4.63730000
C        +0.78135000        -1.83884000        +4.48863000
C        +0.76009000        +1.08328000        +4.64835000
O        +1.56811000        -1.49284000        +5.53050000
O        +1.07868000        -2.68513000        +3.68149000
O        +1.56950000        +0.68193000        +3.64360000
O        +1.04201000        +1.96989000        +5.41715000
C        +2.86615000        +1.30013000        +3.58879000
C        +2.85482000        -2.13316000        +5.58712000
C        -1.71154000        -1.81724000        +4.45685000
C        -2.90786000        -1.10164000        +4.52952000
C        -2.92147000        +0.28147000        +4.65171000
C        -1.73995000        +1.02296000        +4.71047000
H        +2.77001000        +2.37881000        +3.45773000
H        +2.73944000        -3.21427000        +5.67792000
H        -3.87188000        +0.80217000        +4.69947000
H        +3.42164000        +1.09985000        +4.50693000
H        +3.36350000        +0.85161000        +2.73170000
H        +3.34261000        -1.72389000        +6.46887000
H        +3.43055000        -1.91042000        +4.68696000
H        -3.84726000        -1.64319000        +4.49249000
C        -1.80794000        +2.52638000        +4.83076000
H        -1.21048000        +3.02244000        +4.06172000
H        -1.42337000        +2.86319000        +5.79521000
H        -2.84045000        +2.86515000        +4.72875000
H        -1.70712000        -2.84501000        +4.36362000
$end

$rem
JOBTYPE                   SP
METHOD                    B3LYP
DFT_D                     d3_op
BASIS                     6-311++G(d,p)
SYMMETRY                  False
THRESH                    12
SCF_CONVERGENCE           8
MAX_SUB_FILE_NUM          128
MEM_STATIC                400
MEM_TOTAL                 4000
$end
--------------------------------------------------------------

             Standard Nuclear Orientation (Angstroms)
    I     Atom           X                Y                Z
 ----------------------------------------------------------------
    1      C      -2.2356262642     0.1771194467     1.2589361782
    2      C      -2.3598789216     0.6711917073    -0.0534677854
    3      C      -2.0840586749    -1.2914988682     1.5124857278
    4      C      -2.4353611663    -0.2756874295    -1.2095468659
    5      O      -1.0902919551    -1.8150117624     0.7624441617
    6      O      -2.7205477078    -1.9300046945     2.3145324180
    7      O      -3.3250426101    -1.2633464908    -0.9671722794
    8      O      -1.8225832797    -0.1701702699    -2.2439447629
    9      C      -3.4393279728    -2.2763102105    -1.9807402135
   10      C      -0.8766113077    -3.2306626701     0.9006875679
   11      C      -2.2095738355     1.0493322615     2.3614454719
   12      C      -2.3058163284     2.4176634771     2.1026928909
   13      C      -2.4263741947     2.9061681347     0.8084989716
   14      C      -2.4544934154     2.0531575999    -0.2964136970
   15      H      -3.7592157951    -1.8364059119    -2.9263226556
   16      H      -0.6035997264    -3.4769047750     1.9279098022
   17      H      -2.5043414825     3.9762487242     0.6486949990
   18      H      -2.4808057104    -2.7780414486    -2.1262156940
   19      H      -4.1868255477    -2.9734565847    -1.6087660353
   20      H      -0.0622671009    -3.4677402779     0.2198338389
   21      H      -1.7802804919    -3.7799868462     0.6305188780
   22      H      -2.2822630159     3.1128921011     2.9352926659
   23      C      -2.5997987017     2.6328394952    -1.6828549307
   24      H      -3.4211302028     2.1671997879    -2.2333553621
   25      H      -1.6952245449     2.4759458743    -2.2733029388
   26      H      -2.7965277290     3.7047476109    -1.6231998020
   27      H      -2.1225892741     0.6914393137     3.3254832649
   28      C       2.3448159129     0.4428003650     0.9288673209
   29      C       2.2205632555     0.9368726256    -0.3835366428
   30      C       2.4963835023    -1.0258179499     1.1824168704
   31      C       2.1450810109    -0.0100065112    -1.5396157233
   32      O       3.4901502220    -1.5493308440     0.4323753043
   33      O       1.8598944693    -1.6643237762     1.9844635606
   34      O       1.2553995670    -0.9976655725    -1.2972411367
   35      O       2.7578588974     0.0955106485    -2.5740136203
   36      C       1.1411142044    -2.0106292921    -2.3108090709
   37      C       3.7038308694    -2.9649817517     0.5706187105
   38      C       2.3708683417     1.3150131798     2.0313766146
   39      C       2.2746258487     2.6833443954     1.7726240336
   40      C       2.1540679825     3.1718490530     0.4784301143
   41      C       2.1259487617     2.3188385183    -0.6264825543
   42      H       0.8212263821    -1.5707249936    -3.2563915130
   43      H       3.9768424507    -3.2112238566     1.5978409449
   44      H       2.0761006946     4.2419296425     0.3186261416
   45      H       2.0996364667    -2.5123605303    -2.4562845514
   46      H       0.3936166294    -2.7077756664    -1.9388348926
   47      H       4.5181750762    -3.2020593596    -0.1102350184
   48      H       2.8001616852    -3.5143059279     0.3004500206
   49      H       2.2981791612     3.3785730194     2.6052238085
   50      C       1.9806434755     2.8985204135    -2.0129237881
   51      H       1.1593119743     2.4328807062    -2.5634242195
   52      H       2.8852176322     2.7416267926    -2.6033717961
   53      H       1.7839144481     3.9704285292    -1.9532686593
   54      H       2.4578529030     0.9571202320     2.9954144075
 ----------------------------------------------------------------

   15   -1455.0965270303      7.64E-09 Convergence criterion met
 Total energy in the final basis set = -1455.09652703

                    Orbital Energies (a.u.)
 --------------------------------------------------------------

 Alpha MOs
 -- Occupied --
-19.177 -19.176 -19.169 -19.166 -19.121 -19.119 -19.115 -19.111
-10.312 -10.311 -10.307 -10.304 -10.234 -10.233 -10.226 -10.223
-10.208 -10.207 -10.205 -10.204 -10.204 -10.203 -10.191 -10.190
-10.188 -10.187 -10.187 -10.187 -10.173 -10.170  -1.120  -1.119
 -1.110  -1.107  -1.032  -1.030  -1.025  -1.022  -0.883  -0.882
 -0.798  -0.797  -0.792  -0.791  -0.744  -0.744  -0.729  -0.726
 -0.702  -0.700  -0.652  -0.651  -0.624  -0.623  -0.579  -0.576
 -0.574  -0.568  -0.547  -0.545  -0.519  -0.516  -0.511  -0.509
 -0.490  -0.490  -0.485  -0.485  -0.481  -0.477  -0.476  -0.471
 -0.469  -0.467  -0.446  -0.443  -0.434  -0.431  -0.430  -0.429
 -0.426  -0.422  -0.411  -0.409  -0.404  -0.401  -0.393  -0.392
 -0.382  -0.380  -0.376  -0.373  -0.369  -0.365  -0.363  -0.362
 -0.360  -0.355  -0.320  -0.319  -0.309  -0.306  -0.295  -0.294
 -0.290  -0.287  -0.267  -0.264  -0.262  -0.258

          Ground-State Mulliken Net Atomic Charges

     Atom                 Charge (a.u.)
  ----------------------------------------
      1 C                     0.671048
      2 C                     0.092752
      3 C                    -0.490076
      4 C                    -0.688641
      5 O                     0.106190
      6 O                    -0.166639
      7 O                     0.118014
      8 O                    -0.106121
      9 C                    -0.149401
     10 C                    -0.350703
     11 C                    -0.339313
     12 C                    -0.281623
     13 C                    -0.267157
     14 C                     0.314339
     15 H                     0.165091
     16 H                     0.219856
     17 H                     0.153080
     18 H                     0.185823
     19 H                     0.171608
     20 H                     0.081685
     21 H                     0.187877
     22 H                     0.180390
     23 C                    -0.524381
     24 H                     0.176882
     25 H                     0.188951
     26 H                     0.144343
     27 H                     0.200301
     28 C                     0.394464
     29 C                     0.634230
     30 C                    -0.707772
     31 C                    -0.819191
     32 O                     0.106522
     33 O                    -0.107100
     34 O                     0.117537
     35 O                    -0.135533
     36 C                    -0.328021
     37 C                    -0.146196
     38 C                    -0.437070
     39 C                    -0.289652
     40 C                    -0.410772
     41 C                     0.469946
     42 H                     0.211833
     43 H                     0.169425
     44 H                     0.155347
     45 H                     0.194980
     46 H                     0.084227
     47 H                     0.172479
     48 H                     0.177882
     49 H                     0.184647
     50 C                    -0.431196
     51 H                     0.210863
     52 H                     0.214857
     53 H                     0.131894
     54 H                     0.187196
  ----------------------------------------
  Sum of atomic charges =    -0.000000

                    Cartesian Multipole Moments
 -----------------------------------------------------------------
    Charge (ESU x 10^10)
                -0.0000
    Dipole Moment (Debye)
         X       0.2186      Y       0.4015      Z      -0.7638
       Tot       0.8902
    Quadrupole Moments (Debye-Ang)
        XX    -181.4607     XY      -7.9368     YY    -145.7129
        XZ      16.6205     YZ      14.5667     ZZ    -181.3289

 Total job time:  1824.11s(wall), 3631.62s(cpu)
        *  Thank you very much for using Q-Chem.  Have a nice day.  *
