 Q-Chem 5.0, Q-Chem, Inc., Pleasanton, CA (2017)
 Q-Chem 5.0.1 for Intel X86 EM64T Linux

User input:
--------------------------------------------------------------
$molecule
0  1
--
0  1
C        -0.54444000        -0.68370000        -0.06689000
C        -0.55709000        +0.71878000        +0.05493000
C        +0.74969000        -1.43776000        -0.09374000
C        +0.72843000        +1.48436000        +0.06598000
O        +1.53645000        -1.09176000        +0.94813000
O        +1.04702000        -2.28405000        -0.90088000
O        +1.53784000        +1.08301000        -0.93877000
O        +1.01035000        +2.37097000        +0.83478000
C        +2.83449000        +1.70121000        -0.99358000
C        +2.82316000        -1.73208000        +1.00475000
C        -1.74320000        -1.41616000        -0.12552000
C        -2.93952000        -0.70056000        -0.05285000
C        -2.95313000        +0.68255000        +0.06934000
C        -1.77161000        +1.42404000        +0.12810000
H        +2.73835000        +2.77989000        -1.12464000
H        +2.70778000        -2.81319000        +1.09555000
H        -3.90354000        +1.20325000        +0.11710000
H        +3.38998000        +1.50093000        -0.07544000
H        +3.33184000        +1.25269000        -1.85067000
H        +3.31095000        -1.32281000        +1.88650000
H        +3.39889000        -1.50934000        +0.10459000
H        -3.87892000        -1.24211000        -0.08988000
C        -1.83960000        +2.92746000        +0.24839000
C        -1.78103000        -2.92226000        -0.24590000
H        -1.39752000        -3.25223000        -1.21323000
H        -2.80572000        -3.28175000        -0.13627000
H        -1.16958000        -3.40777000        +0.51926000
H        -1.24214000        +3.42352000        -0.52065000
H        -1.45503000        +3.26427000        +1.21284000
H        -2.87211000        +3.26623000        +0.14638000
--
0  1
C        -0.51278000        -1.08478000        +4.51548000
C        -0.52543000        +0.31770000        +4.63730000
C        +0.78135000        -1.83884000        +4.48863000
C        +0.76009000        +1.08328000        +4.64835000
O        +1.56811000        -1.49284000        +5.53050000
O        +1.07868000        -2.68513000        +3.68149000
O        +1.56950000        +0.68193000        +3.64360000
O        +1.04201000        +1.96989000        +5.41715000
C        +2.86615000        +1.30013000        +3.58879000
C        +2.85482000        -2.13316000        +5.58712000
C        -1.71154000        -1.81724000        +4.45685000
C        -2.90786000        -1.10164000        +4.52952000
C        -2.92147000        +0.28147000        +4.65171000
C        -1.73995000        +1.02296000        +4.71047000
H        +2.77001000        +2.37881000        +3.45773000
H        +2.73944000        -3.21427000        +5.67792000
H        -3.87188000        +0.80217000        +4.69947000
H        +3.42164000        +1.09985000        +4.50693000
H        +3.36350000        +0.85161000        +2.73170000
H        +3.34261000        -1.72389000        +6.46887000
H        +3.43055000        -1.91042000        +4.68696000
H        -3.84726000        -1.64319000        +4.49249000
C        -1.80794000        +2.52638000        +4.83076000
C        -1.74937000        -3.32334000        +4.33647000
H        -1.36586000        -3.65331000        +3.36914000
H        -2.77406000        -3.68283000        +4.44610000
H        -1.13792000        -3.80885000        +5.10163000
H        -1.21048000        +3.02244000        +4.06172000
H        -1.42337000        +2.86319000        +5.79521000
H        -2.84045000        +2.86515000        +4.72875000
$end

$rem
JOBTYPE                   SP
METHOD                    B3LYP
DFT_D                     d3_op
BASIS                     6-311++G(d,p)
SYMMETRY                  False
THRESH                    12
SCF_CONVERGENCE           8
MAX_SUB_FILE_NUM          128
MEM_STATIC                400
MEM_TOTAL                 4000
$end
--------------------------------------------------------------

             Standard Nuclear Orientation (Angstroms)
    I     Atom           X                Y                Z
 ----------------------------------------------------------------
    1      C      -2.2349032523     0.4850149923     0.9273735897
    2      C      -2.3697304755     0.5477837785    -0.4725664036
    3      C      -2.1044305070    -0.8341622216     1.6251186749
    4      C      -2.4777928748    -0.7105449688    -1.2748928902
    5      O      -1.1305291884    -1.5856415585     1.0674490394
    6      O      -2.7399456431    -1.1776479375     2.5916718020
    7      O      -3.3803814436    -1.5549904084    -0.7290039746
    8      O      -1.8783011941    -0.9453171138    -2.2957265608
    9      C      -3.5262950866    -2.8308758560    -1.3749932407
   10      C      -0.9387295342    -2.8917194930     1.6385982953
   11      C      -2.1782871880     1.6567275815     1.7025154449
   12      C      -2.2552109702     2.8778819552     1.0306445060
   13      C      -2.3861754902     2.9409627936    -0.3502892371
   14      C      -2.4445693651     1.7867845132    -1.1336871694
   15      H      -3.8523330379    -2.7012061125    -2.4078800581
   16      H      -0.6551206573    -2.8110100246     2.6890305887
   17      H      -2.4484208737     3.9092655300    -0.8352675857
   18      H      -2.5785479540    -3.3724785299    -1.3647856807
   19      H      -4.2799779555    -3.3618610658    -0.7978040854
   20      H      -0.1383894141    -3.3458565654     1.0588230879
   21      H      -1.8553150258    -3.4792593841     1.5609189597
   22      H      -2.2079624172     3.7973800676     1.6045876904
   23      C      -2.6000707632     1.9082294446    -2.6304952614
   24      C      -2.0240304454     1.6409237710     3.2059165092
   25      H      -2.9093829727     1.2252698455     3.6907568606
   26      H      -1.8669231520     2.6550300123     3.5775981244
   27      H      -1.1740962198     1.0303895872     3.5220188829
   28      H      -3.4369717246     1.3111102529    -3.0013078131
   29      H      -1.7068703376     1.5565972709    -3.1501554174
   30      H      -2.7778543741     2.9491135896    -2.9065409776
   31      C       2.3441269441     0.5406803131     0.4922113536
   32      C       2.2092997208     0.6034490993    -0.9077286397
   33      C       2.4745996893    -0.7784969008     1.1899564388
   34      C       2.1012373216    -0.6548796479    -1.7100551263
   35      O       3.4485010080    -1.5299762377     0.6322868033
   36      O       1.8390845533    -1.1219826167     2.1565095659
   37      O       1.1986487528    -1.4993250875    -1.1641662107
   38      O       2.7007290023    -0.8896517930    -2.7308887970
   39      C       1.0527351097    -2.7752105352    -1.8101554768
   40      C       3.6403006622    -2.8360541722     1.2034360592
   41      C       2.4007430083     1.7123929023     1.2673532088
   42      C       2.3238192261     2.9335472760     0.5954822699
   43      C       2.1928547061     2.9966281145    -0.7854514732
   44      C       2.1344608312     1.8424498340    -1.5688494055
   45      H       0.7266971585    -2.6455407917    -2.8430422942
   46      H       3.9239095390    -2.7553447038     2.2538683526
   47      H       2.1306093227     3.9649308508    -1.2704298218
   48      H       2.0004822424    -3.3168132091    -1.7999479168
   49      H       0.2990522408    -3.3061957450    -1.2329663215
   50      H       4.4406407823    -3.2901912446     0.6236608518
   51      H       2.7237151706    -3.4235940633     1.1257567236
   52      H       2.3710677792     3.8530453884     1.1694254543
   53      C       1.9789594332     1.9638947654    -3.0656574975
   54      C       2.5549997510     1.6965890919     2.7707542731
   55      H       1.6696472236     1.2809351663     3.2555946245
   56      H       2.7121070444     2.7106953331     3.1424358883
   57      H       3.4049339766     1.0860549080     3.0868566468
   58      H       1.1420584718     1.3667755738    -3.4364700492
   59      H       2.8721598588     1.6122625918    -3.5853176535
   60      H       1.8011758223     3.0047789105    -3.3417032137
 ----------------------------------------------------------------

   15   -1533.7628865750      7.48E-09 Convergence criterion met
 Total energy in the final basis set = -1533.76288657

                    Orbital Energies (a.u.)
 --------------------------------------------------------------

 Alpha MOs
 -- Occupied --
-19.176 -19.175 -19.167 -19.166 -19.119 -19.118 -19.113 -19.112
-10.310 -10.310 -10.304 -10.303 -10.233 -10.232 -10.225 -10.224
-10.202 -10.202 -10.201 -10.201 -10.198 -10.198 -10.197 -10.197
-10.184 -10.183 -10.183 -10.183 -10.170 -10.169 -10.166 -10.166
 -1.119  -1.118  -1.108  -1.107  -1.030  -1.030  -1.024  -1.022
 -0.882  -0.881  -0.804  -0.804  -0.792  -0.791  -0.744  -0.743
 -0.731  -0.730  -0.722  -0.720  -0.672  -0.672  -0.646  -0.645
 -0.617  -0.617  -0.574  -0.574  -0.562  -0.560  -0.534  -0.533
 -0.515  -0.514  -0.511  -0.510  -0.489  -0.489  -0.484  -0.483
 -0.480  -0.475  -0.474  -0.470  -0.467  -0.465  -0.442  -0.438
 -0.434  -0.429  -0.428  -0.424  -0.420  -0.415  -0.413  -0.412
 -0.409  -0.408  -0.403  -0.402  -0.393  -0.392  -0.385  -0.384
 -0.378  -0.376  -0.370  -0.368  -0.359  -0.358  -0.357  -0.355
 -0.352  -0.351  -0.319  -0.318  -0.308  -0.306  -0.292  -0.292
 -0.288  -0.285  -0.264  -0.261  -0.252  -0.247

          Ground-State Mulliken Net Atomic Charges

     Atom                 Charge (a.u.)
  ----------------------------------------
      1 C                     0.197621
      2 C                     0.331891
      3 C                    -0.543000
      4 C                    -0.847279
      5 O                     0.150635
      6 O                    -0.136196
      7 O                     0.113253
      8 O                    -0.093640
      9 C                    -0.150038
     10 C                    -0.323985
     11 C                     0.452012
     12 C                    -0.304200
     13 C                    -0.298333
     14 C                     0.291447
     15 H                     0.165386
     16 H                     0.210016
     17 H                     0.163340
     18 H                     0.180622
     19 H                     0.172207
     20 H                     0.081149
     21 H                     0.191829
     22 H                     0.161940
     23 C                    -0.601233
     24 C                    -0.612944
     25 H                     0.213836
     26 H                     0.126159
     27 H                     0.207706
     28 H                     0.174554
     29 H                     0.189304
     30 H                     0.139428
     31 C                     0.307241
     32 C                     0.225152
     33 C                    -0.885451
     34 C                    -0.537406
     35 O                     0.128185
     36 O                    -0.084369
     37 O                     0.121638
     38 O                    -0.135702
     39 C                    -0.325480
     40 C                    -0.137299
     41 C                     0.288164
     42 C                    -0.292782
     43 C                    -0.299929
     44 C                     0.459415
     45 H                     0.212422
     46 H                     0.164177
     47 H                     0.161984
     48 H                     0.195737
     49 H                     0.079311
     50 H                     0.172204
     51 H                     0.179310
     52 H                     0.163781
     53 C                    -0.609545
     54 C                    -0.604619
     55 H                     0.190366
     56 H                     0.140359
     57 H                     0.174592
     58 H                     0.207198
     59 H                     0.212985
     60 H                     0.124871
  ----------------------------------------
  Sum of atomic charges =     0.000000

                    Cartesian Multipole Moments
 -----------------------------------------------------------------
    Charge (ESU x 10^10)
                 0.0000
    Dipole Moment (Debye)
         X       0.1991      Y      -0.0457      Z       0.1756
       Tot       0.2694
    Quadrupole Moments (Debye-Ang)
        XX    -193.9920     XY      -1.5280     YY    -155.3358
        XZ      17.7293     YZ       1.7747     ZZ    -197.8475

 Total job time:  2530.73s(wall), 5037.86s(cpu)
        *  Thank you very much for using Q-Chem.  Have a nice day.  *
