 Q-Chem 5.0, Q-Chem, Inc., Pleasanton, CA (2017)
 Q-Chem 5.0.1 for Intel X86 EM64T Linux

User input:
--------------------------------------------------------------
$molecule
0  1
C        -0.54444000        -0.68370000        -0.06689000
C        -0.55709000        +0.71878000        +0.05493000
C        +0.74969000        -1.43776000        -0.09374000
C        +0.72843000        +1.48436000        +0.06598000
O        +1.53645000        -1.09176000        +0.94813000
O        +1.04702000        -2.28405000        -0.90088000
O        +1.53784000        +1.08301000        -0.93877000
O        +1.01035000        +2.37097000        +0.83478000
C        +2.83449000        +1.70121000        -0.99358000
C        +2.82316000        -1.73208000        +1.00475000
C        -1.74320000        -1.41616000        -0.12552000
C        -2.93952000        -0.70056000        -0.05285000
C        -2.95313000        +0.68255000        +0.06934000
C        -1.77161000        +1.42404000        +0.12810000
H        +2.73835000        +2.77989000        -1.12464000
H        +2.70778000        -2.81319000        +1.09555000
H        -3.90354000        +1.20325000        +0.11710000
H        +3.38998000        +1.50093000        -0.07544000
H        +3.33184000        +1.25269000        -1.85067000
H        +3.31095000        -1.32281000        +1.88650000
H        +3.39889000        -1.50934000        +0.10459000
H        -3.87892000        -1.24211000        -0.08988000
C        -1.83960000        +2.92746000        +0.24839000
C        -1.78103000        -2.92226000        -0.24590000
H        -1.39752000        -3.25223000        -1.21323000
H        -2.80572000        -3.28175000        -0.13627000
H        -1.16958000        -3.40777000        +0.51926000
H        -1.24214000        +3.42352000        -0.52065000
H        -1.45503000        +3.26427000        +1.21284000
H        -2.87211000        +3.26623000        +0.14638000
@C        -0.51278000        -1.08478000        +4.51548000
@C        -0.52543000        +0.31770000        +4.63730000
@C        +0.78135000        -1.83884000        +4.48863000
@C        +0.76009000        +1.08328000        +4.64835000
@O        +1.56811000        -1.49284000        +5.53050000
@O        +1.07868000        -2.68513000        +3.68149000
@O        +1.56950000        +0.68193000        +3.64360000
@O        +1.04201000        +1.96989000        +5.41715000
@C        +2.86615000        +1.30013000        +3.58879000
@C        +2.85482000        -2.13316000        +5.58712000
@C        -1.71154000        -1.81724000        +4.45685000
@C        -2.90786000        -1.10164000        +4.52952000
@C        -2.92147000        +0.28147000        +4.65171000
@C        -1.73995000        +1.02296000        +4.71047000
@H        +2.77001000        +2.37881000        +3.45773000
@H        +2.73944000        -3.21427000        +5.67792000
@H        -3.87188000        +0.80217000        +4.69947000
@H        +3.42164000        +1.09985000        +4.50693000
@H        +3.36350000        +0.85161000        +2.73170000
@H        +3.34261000        -1.72389000        +6.46887000
@H        +3.43055000        -1.91042000        +4.68696000
@H        -3.84726000        -1.64319000        +4.49249000
@C        -1.80794000        +2.52638000        +4.83076000
@C        -1.74937000        -3.32334000        +4.33647000
@H        -1.36586000        -3.65331000        +3.36914000
@H        -2.77406000        -3.68283000        +4.44610000
@H        -1.13792000        -3.80885000        +5.10163000
@H        -1.21048000        +3.02244000        +4.06172000
@H        -1.42337000        +2.86319000        +5.79521000
@H        -2.84045000        +2.86515000        +4.72875000
$end

$rem
JOBTYPE                   SP
METHOD                    B3LYP
DFT_D                     d3_op
BASIS                     6-311++G(d,p)
SYMMETRY                  False
THRESH                    12
SCF_CONVERGENCE           8
MAX_SUB_FILE_NUM          128
MEM_STATIC                400
MEM_TOTAL                 4000
$end
--------------------------------------------------------------

             Standard Nuclear Orientation (Angstroms)
    I     Atom           X                Y                Z
 ----------------------------------------------------------------
    1      C      -0.5444400000    -0.6837000000    -0.0668900000
    2      C      -0.5570900000     0.7187800000     0.0549300000
    3      C       0.7496900000    -1.4377600000    -0.0937400000
    4      C       0.7284300000     1.4843600000     0.0659800000
    5      O       1.5364500000    -1.0917600000     0.9481300000
    6      O       1.0470200000    -2.2840500000    -0.9008800000
    7      O       1.5378400000     1.0830100000    -0.9387700000
    8      O       1.0103500000     2.3709700000     0.8347800000
    9      C       2.8344900000     1.7012100000    -0.9935800000
   10      C       2.8231600000    -1.7320800000     1.0047500000
   11      C      -1.7432000000    -1.4161600000    -0.1255200000
   12      C      -2.9395200000    -0.7005600000    -0.0528500000
   13      C      -2.9531300000     0.6825500000     0.0693400000
   14      C      -1.7716100000     1.4240400000     0.1281000000
   15      H       2.7383500000     2.7798900000    -1.1246400000
   16      H       2.7077800000    -2.8131900000     1.0955500000
   17      H      -3.9035400000     1.2032500000     0.1171000000
   18      H       3.3899800000     1.5009300000    -0.0754400000
   19      H       3.3318400000     1.2526900000    -1.8506700000
   20      H       3.3109500000    -1.3228100000     1.8865000000
   21      H       3.3988900000    -1.5093400000     0.1045900000
   22      H      -3.8789200000    -1.2421100000    -0.0898800000
   23      C      -1.8396000000     2.9274600000     0.2483900000
   24      C      -1.7810300000    -2.9222600000    -0.2459000000
   25      H      -1.3975200000    -3.2522300000    -1.2132300000
   26      H      -2.8057200000    -3.2817500000    -0.1362700000
   27      H      -1.1695800000    -3.4077700000     0.5192600000
   28      H      -1.2421400000     3.4235200000    -0.5206500000
   29      H      -1.4550300000     3.2642700000     1.2128400000
   30      H      -2.8721100000     3.2662300000     0.1463800000
   31      GH     -0.5127800000    -1.0847800000     4.5154800000
   32      GH     -0.5254300000     0.3177000000     4.6373000000
   33      GH      0.7813500000    -1.8388400000     4.4886300000
   34      GH      0.7600900000     1.0832800000     4.6483500000
   35      GH      1.5681100000    -1.4928400000     5.5305000000
   36      GH      1.0786800000    -2.6851300000     3.6814900000
   37      GH      1.5695000000     0.6819300000     3.6436000000
   38      GH      1.0420100000     1.9698900000     5.4171500000
   39      GH      2.8661500000     1.3001300000     3.5887900000
   40      GH      2.8548200000    -2.1331600000     5.5871200000
   41      GH     -1.7115400000    -1.8172400000     4.4568500000
   42      GH     -2.9078600000    -1.1016400000     4.5295200000
   43      GH     -2.9214700000     0.2814700000     4.6517100000
   44      GH     -1.7399500000     1.0229600000     4.7104700000
   45      GH      2.7700100000     2.3788100000     3.4577300000
   46      GH      2.7394400000    -3.2142700000     5.6779200000
   47      GH     -3.8718800000     0.8021700000     4.6994700000
   48      GH      3.4216400000     1.0998500000     4.5069300000
   49      GH      3.3635000000     0.8516100000     2.7317000000
   50      GH      3.3426100000    -1.7238900000     6.4688700000
   51      GH      3.4305500000    -1.9104200000     4.6869600000
   52      GH     -3.8472600000    -1.6431900000     4.4924900000
   53      GH     -1.8079400000     2.5263800000     4.8307600000
   54      GH     -1.7493700000    -3.3233400000     4.3364700000
   55      GH     -1.3658600000    -3.6533100000     3.3691400000
   56      GH     -2.7740600000    -3.6828300000     4.4461000000
   57      GH     -1.1379200000    -3.8088500000     5.1016300000
   58      GH     -1.2104800000     3.0224400000     4.0617200000
   59      GH     -1.4233700000     2.8631900000     5.7952100000
   60      GH     -2.8404500000     2.8651500000     4.7287500000
 ----------------------------------------------------------------

   14    -766.8776291886      6.09E-09 Convergence criterion met
 Total energy in the final basis set = -766.87762919

                    Orbital Energies (a.u.)
 --------------------------------------------------------------

 Alpha MOs
 -- Occupied --
-19.176 -19.176 -19.119 -19.119 -10.311 -10.311 -10.232 -10.232
-10.205 -10.205 -10.201 -10.201 -10.187 -10.186 -10.171 -10.170
 -1.121  -1.114  -1.031  -1.030  -0.885  -0.807  -0.795  -0.747
 -0.734  -0.725  -0.675  -0.649  -0.620  -0.577  -0.565  -0.537
 -0.517  -0.515  -0.491  -0.489  -0.480  -0.477  -0.469  -0.442
 -0.434  -0.429  -0.420  -0.416  -0.411  -0.406  -0.396  -0.387
 -0.380  -0.373  -0.362  -0.359  -0.357  -0.321  -0.313  -0.293
 -0.292  -0.266  -0.253

          Ground-State Mulliken Net Atomic Charges

     Atom                 Charge (a.u.)
  ----------------------------------------
      1 C                     0.100355
      2 C                     0.473127
      3 C                    -0.458328
      4 C                    -0.903668
      5 O                     0.139768
      6 O                    -0.128679
      7 O                     0.107652
      8 O                    -0.075265
      9 C                    -0.154030
     10 C                    -0.351894
     11 C                     0.458083
     12 C                    -0.273682
     13 C                    -0.348800
     14 C                     0.279095
     15 H                     0.164868
     16 H                     0.198965
     17 H                     0.166928
     18 H                     0.184139
     19 H                     0.171303
     20 H                     0.100789
     21 H                     0.196758
     22 H                     0.167304
     23 C                    -0.633009
     24 C                    -0.612326
     25 H                     0.215650
     26 H                     0.128604
     27 H                     0.211917
     28 H                     0.174991
     29 H                     0.208776
     30 H                     0.139368
     31 GH                   -0.165892
     32 GH                    0.112433
     33 GH                    0.072367
     34 GH                   -0.115167
     35 GH                    0.000245
     36 GH                   -0.003729
     37 GH                   -0.018147
     38 GH                    0.001395
     39 GH                    0.016055
     40 GH                   -0.008813
     41 GH                    0.023079
     42 GH                    0.051856
     43 GH                   -0.032541
     44 GH                   -0.002005
     45 GH                   -0.000025
     46 GH                    0.000748
     47 GH                   -0.001463
     48 GH                    0.002634
     49 GH                    0.003663
     50 GH                   -0.000814
     51 GH                    0.005299
     52 GH                    0.000146
     53 GH                    0.005400
     54 GH                    0.021008
     55 GH                   -0.012808
     56 GH                    0.000615
     57 GH                   -0.000147
     58 GH                   -0.005661
     59 GH                   -0.000932
     60 GH                    0.002446
  ----------------------------------------
  Sum of atomic charges =     0.000000

                    Cartesian Multipole Moments
 -----------------------------------------------------------------
    Charge (ESU x 10^10)
                 0.0000
    Dipole Moment (Debye)
         X       0.0646      Y      -0.1072      Z       0.0855
       Tot       0.1516
    Quadrupole Moments (Debye-Ang)
        XX     -76.2169     XY      -0.0562     YY     -95.4529
        XZ       0.0631     YZ      -8.9370     ZZ     -99.4687

 Total job time:  2449.48s(wall), 4874.71s(cpu)
        *  Thank you very much for using Q-Chem.  Have a nice day.  *
