 Q-Chem 5.0, Q-Chem, Inc., Pleasanton, CA (2017)
 Q-Chem 5.0.1 for Intel X86 EM64T Linux

User input:
--------------------------------------------------------------
$molecule
0  1
--
0  1
C        +0.22270000        +1.04488000        +0.58595000
C        +0.62626000        -0.41353000        +0.99871000
C        -1.18200000        +1.23223000        +0.04377000
C        -0.37457000        -1.51643000        +0.72333000
O        -2.09172000        +0.78832000        +0.93966000
O        -1.47336000        +1.75939000        -0.99882000
O        -0.91364000        -1.42792000        -0.50620000
O        -0.62208000        -2.40877000        +1.49911000
C        -1.86134000        -2.44741000        -0.86560000
C        -3.47068000        +0.87492000        +0.53920000
C        +1.33008000        +1.39974000        -0.43491000
C        +2.63070000        +1.71700000        +0.32855000
C        +3.04336000        +0.29351000        +0.80300000
C        +1.94423000        -0.59299000        +0.15262000
O        +1.62840000        +0.13663000        -1.04376000
H        +0.27811000        +1.68786000        +1.46900000
H        +0.83923000        -0.48042000        +2.06408000
H        -2.68749000        -2.46677000        -0.15296000
H        -3.76076000        +1.91522000        +0.38406000
H        +3.37234000        +2.13782000        -0.35195000
H        +2.48236000        +2.42488000        +1.14651000
H        +4.02182000        +0.00994000        +0.41161000
H        +3.07359000        +0.18738000        +1.88928000
H        -2.21148000        -2.17765000        -1.85937000
H        -1.38062000        -3.42697000        -0.88096000
H        -4.03855000        +0.43623000        +1.35671000
H        -3.63120000        +0.31700000        -0.38495000
H        +1.03270000        +2.19943000        -1.08064000
H        +2.24339000        -1.61496000        +0.04786000
--
0  1
C        +0.24983000        +2.58143000        +5.55367000
C        +0.65339000        +1.12302000        +5.96643000
C        -1.15487000        +2.76878000        +5.01149000
C        -0.34744000        +0.02012000        +5.69105000
O        -2.06459000        +2.32487000        +5.90738000
O        -1.44623000        +3.29594000        +3.96890000
O        -0.88651000        +0.10863000        +4.46152000
O        -0.59495000        -0.87222000        +6.46683000
C        -1.83421000        -0.91086000        +4.10212000
C        -3.44355000        +2.41147000        +5.50692000
C        +1.35721000        +2.93629000        +4.53281000
C        +2.65783000        +3.25355000        +5.29627000
C        +3.07049000        +1.83006000        +5.77072000
C        +1.97136000        +0.94356000        +5.12034000
O        +1.65553000        +1.67318000        +3.92396000
H        +0.30524000        +3.22441000        +6.43672000
H        +0.86636000        +1.05613000        +7.03180000
H        -2.66036000        -0.93022000        +4.81476000
H        -3.73363000        +3.45177000        +5.35178000
H        +3.39947000        +3.67437000        +4.61577000
H        +2.50949000        +3.96143000        +6.11423000
H        +4.04895000        +1.54649000        +5.37933000
H        +3.10072000        +1.72393000        +6.85700000
H        -2.18435000        -0.64110000        +3.10835000
H        -1.35349000        -1.89042000        +4.08676000
H        -4.01142000        +1.97278000        +6.32443000
H        -3.60407000        +1.85355000        +4.58277000
H        +1.05983000        +3.73598000        +3.88708000
H        +2.27052000        -0.07841000        +5.01558000
$end

$rem
JOBTYPE                   SP
METHOD                    B3LYP
DFT_D                     d3_op
BASIS                     6-311++G(d,p)
SYMMETRY                  False
THRESH                    12
SCF_CONVERGENCE           8
MAX_SUB_FILE_NUM          128
MEM_STATIC                400
MEM_TOTAL                 4000
$end
--------------------------------------------------------------

             Standard Nuclear Orientation (Angstroms)
    I     Atom           X                Y                Z
 ----------------------------------------------------------------
    1      C      -1.8232269626     0.6281518715     0.8699476204
    2      C      -1.9247358746     0.7155826299    -0.6928201239
    3      C      -2.3620039508    -0.6350984571     1.5150516658
    4      C      -2.6417777498    -0.4110019517    -1.4073419031
    5      O      -1.7472119511    -1.7224260979     0.9983168621
    6      O      -3.1690237299    -0.6849251276     2.4072504118
    7      O      -3.7955909622    -0.7515143000    -0.8048961235
    8      O      -2.2506652004    -0.9122874312    -2.4345275367
    9      C      -4.5578076238    -1.8003885991    -1.4258244411
   10      C      -2.1875431974    -2.9973980345     1.4982702675
   11      C      -2.5721011350     1.9103963411     1.3051577051
   12      C      -1.6560299692     3.1276627726     1.0723197408
   13      C      -1.6870138302     3.2213933164    -0.4807319144
   14      C      -2.6844056234     2.0878006156    -0.8510565703
   15      O      -3.5651214893     2.0699780741     0.2835979843
   16      H      -0.7684462551     0.6697564652     1.1562648707
   17      H      -0.9394477857     0.7643987256    -1.1528941403
   18      H      -3.9581356550    -2.7083034039    -1.5085205037
   19      H      -1.9853525519    -3.0812116570     2.5671636839
   20      H      -2.0899031103     4.0172558423     1.5312073956
   21      H      -0.6534320218     2.9906014508     1.4824038316
   22      H      -2.0832260861     4.1816674592    -0.8152038378
   23      H      -0.7089747966     3.0823439218    -0.9457981277
   24      H      -5.4143359411    -1.9582812230    -0.7743826164
   25      H      -4.8841505896    -1.4966175091    -2.4218610043
   26      H      -1.6199002088    -3.7394971001     0.9412080919
   27      H      -3.2580447029    -3.1213209253     1.3257470425
   28      H      -2.9130694848     1.8462943760     2.3173522101
   29      H      -3.1219416576     2.2195900247    -1.8185728826
   30      C       3.3557053709     0.2292066010     0.6260900927
   31      C       3.2541964589     0.3166373595    -0.9366776515
   32      C       2.8169283828    -1.0340437275     1.2711941381
   33      C       2.5371545838    -0.8099472222    -1.6511994308
   34      O       3.4317203824    -2.1213713683     0.7544593344
   35      O       2.0099086037    -1.0838703980     2.1633928841
   36      O       1.3833413713    -1.1504595705    -1.0487536512
   37      O       2.9282671331    -1.3112327016    -2.6783850644
   38      C       0.6211247098    -2.1993338695    -1.6696819688
   39      C       2.9913891361    -3.3963433049     1.2544127398
   40      C       2.6068311986     1.5114510706     1.0613001774
   41      C       3.5229023643     2.7287175021     0.8284622131
   42      C       3.4919185033     2.8224480460    -0.7245894421
   43      C       2.4945267101     1.6888553452    -1.0949140980
   44      O       1.6138108442     1.6710328037     0.0397404566
   45      H       4.4104860784     0.2708111948     0.9124073430
   46      H       4.2394845478     0.3654534552    -1.3967516680
   47      H       1.2207966785    -3.1072486743    -1.7523780314
   48      H       3.1935797816    -3.4801569275     2.3233061562
   49      H       3.0890292232     3.6183105719     1.2873498679
   50      H       4.5255003118     2.5916561804     1.2385463039
   51      H       3.0957062474     3.7827221888    -1.0590613655
   52      H       4.4699575369     2.6833986513    -1.1896556554
   53      H      -0.2354036076    -2.3572264935    -1.0182401441
   54      H       0.2947817439    -1.8955627796    -2.6657185320
   55      H       3.5590321247    -4.1384423705     0.6973505642
   56      H       1.9208876306    -3.5202661957     1.0818895148
   57      H       2.2658628487     1.4473491056     2.0734946824
   58      H       2.0569906759     1.8206447543    -2.0624304103
 ----------------------------------------------------------------

   15   -1531.7308512358      5.14E-09 Convergence criterion met
 Total energy in the final basis set = -1531.73085124

                    Orbital Energies (a.u.)
 --------------------------------------------------------------

 Alpha MOs
 -- Occupied --
-19.179 -19.171 -19.170 -19.170 -19.148 -19.126 -19.125 -19.115
-19.114 -19.112 -10.315 -10.306 -10.303 -10.301 -10.250 -10.240
-10.235 -10.233 -10.229 -10.228 -10.221 -10.218 -10.212 -10.211
-10.196 -10.193 -10.189 -10.187 -10.171 -10.168  -1.123  -1.115
 -1.113  -1.108  -1.076  -1.055  -1.036  -1.026  -1.025  -1.024
 -0.839  -0.822  -0.791  -0.784  -0.775  -0.769  -0.742  -0.734
 -0.726  -0.724  -0.662  -0.650  -0.616  -0.604  -0.602  -0.586
 -0.583  -0.573  -0.568  -0.561  -0.555  -0.544  -0.524  -0.512
 -0.510  -0.501  -0.500  -0.491  -0.488  -0.487  -0.482  -0.479
 -0.476  -0.474  -0.471  -0.466  -0.465  -0.453  -0.445  -0.432
 -0.430  -0.426  -0.422  -0.418  -0.418  -0.411  -0.400  -0.394
 -0.390  -0.377  -0.376  -0.375  -0.374  -0.370  -0.366  -0.364
 -0.360  -0.358  -0.354  -0.345  -0.344  -0.342  -0.327  -0.324
 -0.323  -0.316  -0.311  -0.308  -0.295  -0.289  -0.284  -0.281
 -0.277  -0.267

          Ground-State Mulliken Net Atomic Charges

     Atom                 Charge (a.u.)
  ----------------------------------------
      1 C                    -0.000245
      2 C                     0.941794
      3 C                    -0.589431
      4 C                    -0.896670
      5 O                     0.026154
      6 O                    -0.174338
      7 O                     0.023930
      8 O                    -0.117026
      9 C                    -0.194478
     10 C                    -0.268483
     11 C                    -0.513991
     12 C                    -0.235880
     13 C                    -0.426570
     14 C                    -0.238857
     15 O                    -0.089228
     16 H                     0.240539
     17 H                     0.387674
     18 H                     0.184997
     19 H                     0.193171
     20 H                     0.202282
     21 H                     0.110376
     22 H                     0.195134
     23 H                     0.088211
     24 H                     0.175234
     25 H                     0.174247
     26 H                     0.124262
     27 H                     0.188438
     28 H                     0.277698
     29 H                     0.261229
     30 C                    -0.065499
     31 C                     0.263740
     32 C                    -0.458585
     33 C                    -0.524159
     34 O                     0.030520
     35 O                    -0.126587
     36 O                    -0.000924
     37 O                    -0.143284
     38 C                    -0.403287
     39 C                    -0.164448
     40 C                    -0.163135
     41 C                    -0.657540
     42 C                    -0.491093
     43 C                    -0.126403
     44 O                     0.190774
     45 H                     0.246587
     46 H                     0.291937
     47 H                     0.217387
     48 H                     0.169160
     49 H                     0.180923
     50 H                     0.139682
     51 H                     0.178845
     52 H                     0.132370
     53 H                     0.125610
     54 H                     0.231149
     55 H                     0.168148
     56 H                     0.182497
     57 H                     0.271417
     58 H                     0.254022
  ----------------------------------------
  Sum of atomic charges =     0.000000

                    Cartesian Multipole Moments
 -----------------------------------------------------------------
    Charge (ESU x 10^10)
                 0.0000
    Dipole Moment (Debye)
         X       3.3219      Y      -0.0710      Z       0.5764
       Tot       3.3723
    Quadrupole Moments (Debye-Ang)
        XX    -176.4164     XY      14.9195     YY    -154.4868
        XZ      17.3105     YZ      -7.2130     ZZ    -193.7461

 Total job time:  7535.42s(wall), 7517.51s(cpu)
        *  Thank you very much for using Q-Chem.  Have a nice day.  *
