 Q-Chem 5.0, Q-Chem, Inc., Pleasanton, CA (2017)
 Q-Chem 5.0.1 for Intel X86 EM64T Linux

User input:
--------------------------------------------------------------
$molecule
0  1
C        +0.24983000        +2.58143000        +5.55367000
C        +0.65339000        +1.12302000        +5.96643000
C        -1.15487000        +2.76878000        +5.01149000
C        -0.34744000        +0.02012000        +5.69105000
O        -2.06459000        +2.32487000        +5.90738000
O        -1.44623000        +3.29594000        +3.96890000
O        -0.88651000        +0.10863000        +4.46152000
O        -0.59495000        -0.87222000        +6.46683000
C        -1.83421000        -0.91086000        +4.10212000
C        -3.44355000        +2.41147000        +5.50692000
C        +1.35721000        +2.93629000        +4.53281000
C        +2.65783000        +3.25355000        +5.29627000
C        +3.07049000        +1.83006000        +5.77072000
C        +1.97136000        +0.94356000        +5.12034000
O        +1.65553000        +1.67318000        +3.92396000
H        +0.30524000        +3.22441000        +6.43672000
H        +0.86636000        +1.05613000        +7.03180000
H        -2.66036000        -0.93022000        +4.81476000
H        -3.73363000        +3.45177000        +5.35178000
H        +3.39947000        +3.67437000        +4.61577000
H        +2.50949000        +3.96143000        +6.11423000
H        +4.04895000        +1.54649000        +5.37933000
H        +3.10072000        +1.72393000        +6.85700000
H        -2.18435000        -0.64110000        +3.10835000
H        -1.35349000        -1.89042000        +4.08676000
H        -4.01142000        +1.97278000        +6.32443000
H        -3.60407000        +1.85355000        +4.58277000
H        +1.05983000        +3.73598000        +3.88708000
H        +2.27052000        -0.07841000        +5.01558000
@C        +0.22270000        +1.04488000        +0.58595000
@C        +0.62626000        -0.41353000        +0.99871000
@C        -1.18200000        +1.23223000        +0.04377000
@C        -0.37457000        -1.51643000        +0.72333000
@O        -2.09172000        +0.78832000        +0.93966000
@O        -1.47336000        +1.75939000        -0.99882000
@O        -0.91364000        -1.42792000        -0.50620000
@O        -0.62208000        -2.40877000        +1.49911000
@C        -1.86134000        -2.44741000        -0.86560000
@C        -3.47068000        +0.87492000        +0.53920000
@C        +1.33008000        +1.39974000        -0.43491000
@C        +2.63070000        +1.71700000        +0.32855000
@C        +3.04336000        +0.29351000        +0.80300000
@C        +1.94423000        -0.59299000        +0.15262000
@O        +1.62840000        +0.13663000        -1.04376000
@H        +0.27811000        +1.68786000        +1.46900000
@H        +0.83923000        -0.48042000        +2.06408000
@H        -2.68749000        -2.46677000        -0.15296000
@H        -3.76076000        +1.91522000        +0.38406000
@H        +3.37234000        +2.13782000        -0.35195000
@H        +2.48236000        +2.42488000        +1.14651000
@H        +4.02182000        +0.00994000        +0.41161000
@H        +3.07359000        +0.18738000        +1.88928000
@H        -2.21148000        -2.17765000        -1.85937000
@H        -1.38062000        -3.42697000        -0.88096000
@H        -4.03855000        +0.43623000        +1.35671000
@H        -3.63120000        +0.31700000        -0.38495000
@H        +1.03270000        +2.19943000        -1.08064000
@H        +2.24339000        -1.61496000        +0.04786000
$end

$rem
JOBTYPE                   SP
METHOD                    B3LYP
DFT_D                     d3_op
BASIS                     6-311++G(d,p)
SYMMETRY                  False
THRESH                    12
SCF_CONVERGENCE           8
MAX_SUB_FILE_NUM          128
MEM_STATIC                400
MEM_TOTAL                 4000
$end
--------------------------------------------------------------

             Standard Nuclear Orientation (Angstroms)
    I     Atom           X                Y                Z
 ----------------------------------------------------------------
    1      C       0.2498300000     2.5814300000     5.5536700000
    2      C       0.6533900000     1.1230200000     5.9664300000
    3      C      -1.1548700000     2.7687800000     5.0114900000
    4      C      -0.3474400000     0.0201200000     5.6910500000
    5      O      -2.0645900000     2.3248700000     5.9073800000
    6      O      -1.4462300000     3.2959400000     3.9689000000
    7      O      -0.8865100000     0.1086300000     4.4615200000
    8      O      -0.5949500000    -0.8722200000     6.4668300000
    9      C      -1.8342100000    -0.9108600000     4.1021200000
   10      C      -3.4435500000     2.4114700000     5.5069200000
   11      C       1.3572100000     2.9362900000     4.5328100000
   12      C       2.6578300000     3.2535500000     5.2962700000
   13      C       3.0704900000     1.8300600000     5.7707200000
   14      C       1.9713600000     0.9435600000     5.1203400000
   15      O       1.6555300000     1.6731800000     3.9239600000
   16      H       0.3052400000     3.2244100000     6.4367200000
   17      H       0.8663600000     1.0561300000     7.0318000000
   18      H      -2.6603600000    -0.9302200000     4.8147600000
   19      H      -3.7336300000     3.4517700000     5.3517800000
   20      H       3.3994700000     3.6743700000     4.6157700000
   21      H       2.5094900000     3.9614300000     6.1142300000
   22      H       4.0489500000     1.5464900000     5.3793300000
   23      H       3.1007200000     1.7239300000     6.8570000000
   24      H      -2.1843500000    -0.6411000000     3.1083500000
   25      H      -1.3534900000    -1.8904200000     4.0867600000
   26      H      -4.0114200000     1.9727800000     6.3244300000
   27      H      -3.6040700000     1.8535500000     4.5827700000
   28      H       1.0598300000     3.7359800000     3.8870800000
   29      H       2.2705200000    -0.0784100000     5.0155800000
   30      GH      0.2227000000     1.0448800000     0.5859500000
   31      GH      0.6262600000    -0.4135300000     0.9987100000
   32      GH     -1.1820000000     1.2322300000     0.0437700000
   33      GH     -0.3745700000    -1.5164300000     0.7233300000
   34      GH     -2.0917200000     0.7883200000     0.9396600000
   35      GH     -1.4733600000     1.7593900000    -0.9988200000
   36      GH     -0.9136400000    -1.4279200000    -0.5062000000
   37      GH     -0.6220800000    -2.4087700000     1.4991100000
   38      GH     -1.8613400000    -2.4474100000    -0.8656000000
   39      GH     -3.4706800000     0.8749200000     0.5392000000
   40      GH      1.3300800000     1.3997400000    -0.4349100000
   41      GH      2.6307000000     1.7170000000     0.3285500000
   42      GH      3.0433600000     0.2935100000     0.8030000000
   43      GH      1.9442300000    -0.5929900000     0.1526200000
   44      GH      1.6284000000     0.1366300000    -1.0437600000
   45      GH      0.2781100000     1.6878600000     1.4690000000
   46      GH      0.8392300000    -0.4804200000     2.0640800000
   47      GH     -2.6874900000    -2.4667700000    -0.1529600000
   48      GH     -3.7607600000     1.9152200000     0.3840600000
   49      GH      3.3723400000     2.1378200000    -0.3519500000
   50      GH      2.4823600000     2.4248800000     1.1465100000
   51      GH      4.0218200000     0.0099400000     0.4116100000
   52      GH      3.0735900000     0.1873800000     1.8892800000
   53      GH     -2.2114800000    -2.1776500000    -1.8593700000
   54      GH     -1.3806200000    -3.4269700000    -0.8809600000
   55      GH     -4.0385500000     0.4362300000     1.3567100000
   56      GH     -3.6312000000     0.3170000000    -0.3849500000
   57      GH      1.0327000000     2.1994300000    -1.0806400000
   58      GH      2.2433900000    -1.6149600000     0.0478600000
 ----------------------------------------------------------------

   14    -765.8591115371      6.73E-09 Convergence criterion met
 Total energy in the final basis set = -765.85911154

                    Orbital Energies (a.u.)
 --------------------------------------------------------------

 Alpha MOs
 -- Occupied --
-19.176 -19.174 -19.136 -19.120 -19.116 -10.310 -10.306 -10.242
-10.232 -10.232 -10.230 -10.207 -10.206 -10.182 -10.180  -1.120
 -1.113  -1.065  -1.031  -1.027  -0.833  -0.785  -0.778  -0.740
 -0.729  -0.659  -0.610  -0.596  -0.580  -0.567  -0.551  -0.520
 -0.506  -0.496  -0.489  -0.484  -0.475  -0.473  -0.462  -0.439
 -0.427  -0.425  -0.418  -0.399  -0.385  -0.376  -0.371  -0.369
 -0.362  -0.356  -0.337  -0.334  -0.320  -0.313  -0.290  -0.282
 -0.276

          Ground-State Mulliken Net Atomic Charges

     Atom                 Charge (a.u.)
  ----------------------------------------
      1 C                    -0.082462
      2 C                     0.251407
      3 C                    -0.499816
      4 C                    -0.532096
      5 O                     0.028326
      6 O                    -0.117119
      7 O                    -0.000071
      8 O                    -0.146099
      9 C                    -0.360937
     10 C                    -0.159527
     11 C                    -0.097291
     12 C                    -0.654650
     13 C                    -0.491400
     14 C                    -0.083081
     15 O                     0.193702
     16 H                     0.242630
     17 H                     0.287673
     18 H                     0.231864
     19 H                     0.169040
     20 H                     0.182398
     21 H                     0.134765
     22 H                     0.178342
     23 H                     0.128135
     24 H                     0.096921
     25 H                     0.204763
     26 H                     0.166744
     27 H                     0.184058
     28 H                     0.268626
     29 H                     0.254001
     30 GH                   -0.096660
     31 GH                    0.088432
     32 GH                    0.002480
     33 GH                    0.013177
     34 GH                   -0.003142
     35 GH                    0.000179
     36 GH                    0.000525
     37 GH                   -0.001195
     38 GH                    0.002103
     39 GH                    0.008350
     40 GH                   -0.045153
     41 GH                    0.025936
     42 GH                   -0.022479
     43 GH                    0.024508
     44 GH                    0.000396
     45 GH                    0.009946
     46 GH                    0.011305
     47 GH                    0.001345
     48 GH                    0.000448
     49 GH                   -0.002528
     50 GH                   -0.000971
     51 GH                   -0.002304
     52 GH                    0.000820
     53 GH                    0.000127
     54 GH                   -0.000346
     55 GH                    0.003988
     56 GH                    0.000585
     57 GH                    0.000842
     58 GH                    0.000441
  ----------------------------------------
  Sum of atomic charges =     0.000000

                    Cartesian Multipole Moments
 -----------------------------------------------------------------
    Charge (ESU x 10^10)
                 0.0000
    Dipole Moment (Debye)
         X      -0.0089      Y       0.7299      Z       1.2039
       Tot       1.4079
    Quadrupole Moments (Debye-Ang)
        XX     -75.1849     XY       2.9505     YY     -87.4727
        XZ       3.3255     YZ      16.1587     ZZ     -83.8785

 Total job time:  6922.87s(wall), 6906.44s(cpu)
        *  Thank you very much for using Q-Chem.  Have a nice day.  *
