 Q-Chem 5.0, Q-Chem, Inc., Pleasanton, CA (2017)
 Q-Chem 5.0.1 for Intel X86 EM64T Linux

User input:
--------------------------------------------------------------
$molecule
0  1
--
0  1
C        -0.54444000        -0.68370000        -0.06689000
C        -0.55709000        +0.71878000        +0.05493000
C        +0.74969000        -1.43776000        -0.09374000
C        +0.72843000        +1.48436000        +0.06598000
O        +1.53645000        -1.09176000        +0.94813000
O        +1.04702000        -2.28405000        -0.90088000
O        +1.53784000        +1.08301000        -0.93877000
O        +1.01035000        +2.37097000        +0.83478000
C        +2.83449000        +1.70121000        -0.99358000
C        +2.82316000        -1.73208000        +1.00475000
C        -1.74320000        -1.41616000        -0.12552000
C        -2.93952000        -0.70056000        -0.05285000
C        -2.95313000        +0.68255000        +0.06934000
C        -1.77161000        +1.42404000        +0.12810000
H        +2.73835000        +2.77989000        -1.12464000
H        +2.70778000        -2.81319000        +1.09555000
H        -3.90354000        +1.20325000        +0.11710000
H        +3.38998000        +1.50093000        -0.07544000
H        +3.33184000        +1.25269000        -1.85067000
H        +3.31095000        -1.32281000        +1.88650000
H        +3.39889000        -1.50934000        +0.10459000
H        -3.87892000        -1.24211000        -0.08988000
H        -1.78886000        +2.45164000        +0.22176000
H        -1.73878000        -2.44393000        -0.21875000
--
0  1
C        -0.50866000        -1.13710000        +5.11318000
C        -0.52131000        +0.26538000        +5.23500000
C        +0.78547000        -1.89116000        +5.08633000
C        +0.76421000        +1.03096000        +5.24605000
O        +1.57223000        -1.54516000        +6.12820000
O        +1.08280000        -2.73745000        +4.27919000
O        +1.57362000        +0.62961000        +4.24130000
O        +1.04613000        +1.91757000        +6.01485000
C        +2.87027000        +1.24781000        +4.18649000
C        +2.85894000        -2.18548000        +6.18482000
C        -1.70742000        -1.86956000        +5.05455000
C        -2.90374000        -1.15396000        +5.12722000
C        -2.91735000        +0.22915000        +5.24941000
C        -1.73583000        +0.97064000        +5.30817000
H        +2.77413000        +2.32649000        +4.05543000
H        +2.74356000        -3.26659000        +6.27562000
H        -3.86776000        +0.74985000        +5.29717000
H        +3.42576000        +1.04753000        +5.10463000
H        +3.36762000        +0.79929000        +3.32940000
H        +3.34673000        -1.77621000        +7.06657000
H        +3.43467000        -1.96274000        +5.28466000
H        -3.84314000        -1.69551000        +5.09019000
H        -1.75308000        +1.99824000        +5.40183000
H        -1.70300000        -2.89733000        +4.96132000
$end

$rem
JOBTYPE                   SP
METHOD                    B3LYP
DFT_D                     d3_op
BASIS                     6-311++G(d,p)
SYMMETRY                  False
THRESH                    12
SCF_CONVERGENCE           8
MAX_SUB_FILE_NUM          128
MEM_STATIC                400
MEM_TOTAL                 4000
$end
--------------------------------------------------------------

             Standard Nuclear Orientation (Angstroms)
    I     Atom           X                Y                Z
 ----------------------------------------------------------------
    1      C      -2.5710377585     0.8061769542     0.8354240288
    2      C      -2.6464367890     0.8272965296    -0.5702143439
    3      C      -2.4777433913    -0.4919305248     1.5772548701
    4      C      -2.7279510671    -0.4541591464    -1.3383440739
    5      O      -1.4856200888    -1.2643211283     1.0839958074
    6      O      -3.1553790650    -0.8032014115     2.5259419636
    7      O      -3.6576258058    -1.2776306244    -0.8060391440
    8      O      -2.0873891199    -0.7223503566    -2.3254425923
    9      C      -3.7836415468    -2.5717459032    -1.4191152215
   10      C      -1.3256479531    -2.5534340468     1.7016000092
   11      C      -2.5402832987     2.0004710593     1.5768256878
   12      C      -2.5817374066     3.2011379564     0.8660328978
   13      C      -2.6540756144     3.2231252330    -0.5204708504
   14      C      -2.6861565465     2.0461162985    -1.2707177764
   15      H      -4.0651426333    -2.4718118928    -2.4682770286
   16      H      -1.0860509145    -2.4423641635     2.7601899943
   17      H      -2.6902059807     4.1766296271    -1.0364288358
   18      H      -2.8403352897    -3.1171063300    -1.3526502815
   19      H      -4.5640371582    -3.0816372016    -0.8586475287
   20      H      -0.5042663888    -3.0284969817     1.1700253548
   21      H      -2.2415568948    -3.1388680018     1.6028879987
   22      H      -2.5533401253     4.1373077981     1.4136638003
   23      H      -2.7371325934     2.0696244277    -2.3011935542
   24      H      -2.4890021486     1.9897961772     2.6074948067
   25      C       2.6216573591     0.8306598610     0.5610247275
   26      C       2.5462583286     0.8517794365    -0.8446136453
   27      C       2.7149517263    -0.4674476180     1.3028555687
   28      C       2.4647440504    -0.4296762396    -1.6127433753
   29      O       3.7070750287    -1.2398382214     0.8095965061
   30      O       2.0373160525    -0.7787185047     2.2515426622
   31      O       1.5350693118    -1.2531477175    -1.0804384454
   32      O       3.1053059977    -0.6978674498    -2.5998418936
   33      C       1.4090535707    -2.5472629964    -1.6935145228
   34      C       3.8670471645    -2.5289511399     1.4272007078
   35      C       2.6524118189     2.0249539661     1.3024263864
   36      C       2.6109577110     3.2256208633     0.5916335964
   37      C       2.5386195031     3.2476081398    -0.7948701517
   38      C       2.5065385710     2.0705992053    -1.5451170777
   39      H       1.1275524843    -2.4473289860    -2.7426763299
   40      H       4.1066442030    -2.4178812567     2.4857906930
   41      H       2.5024891369     4.2011125339    -1.3108281372
   42      H       2.3523598278    -3.0926234232    -1.6270495828
   43      H       0.6286579594    -3.0571542947    -1.1330468301
   44      H       4.6884287288    -3.0040140749     0.8956260534
   45      H       2.9511382228    -3.1143850949     1.3284886973
   46      H       2.6393549923     4.1617907049     1.1392644990
   47      H       2.4555625242     2.0941073345    -2.5755928555
   48      H       2.7036929690     2.0142790840     2.3330955054
 ----------------------------------------------------------------

   15   -1376.4258784267      5.85E-09 Convergence criterion met
 Total energy in the final basis set = -1376.42587843

                    Orbital Energies (a.u.)
 --------------------------------------------------------------

 Alpha MOs
 -- Occupied --
-19.178 -19.177 -19.172 -19.171 -19.121 -19.121 -19.117 -19.116
-10.313 -10.313 -10.309 -10.308 -10.234 -10.233 -10.228 -10.227
-10.212 -10.211 -10.211 -10.211 -10.195 -10.195 -10.195 -10.195
-10.195 -10.194 -10.194 -10.194  -1.121  -1.120  -1.112  -1.111
 -1.032  -1.032  -1.027  -1.026  -0.884  -0.884  -0.797  -0.796
 -0.784  -0.784  -0.741  -0.741  -0.730  -0.729  -0.653  -0.653
 -0.643  -0.642  -0.593  -0.592  -0.576  -0.575  -0.552  -0.551
 -0.521  -0.520  -0.513  -0.512  -0.491  -0.491  -0.488  -0.487
 -0.483  -0.480  -0.477  -0.474  -0.469  -0.468  -0.465  -0.464
 -0.439  -0.437  -0.430  -0.426  -0.413  -0.413  -0.405  -0.404
 -0.386  -0.386  -0.385  -0.383  -0.381  -0.380  -0.367  -0.366
 -0.363  -0.360  -0.321  -0.320  -0.311  -0.310  -0.299  -0.298
 -0.294  -0.292  -0.273  -0.272  -0.269  -0.268

          Ground-State Mulliken Net Atomic Charges

     Atom                 Charge (a.u.)
  ----------------------------------------
      1 C                     0.970161
      2 C                     0.867853
      3 C                    -0.680709
      4 C                    -0.799407
      5 O                     0.090986
      6 O                    -0.176844
      7 O                     0.069352
      8 O                    -0.134476
      9 C                    -0.175816
     10 C                    -0.339289
     11 C                    -0.388460
     12 C                    -0.287370
     13 C                    -0.253640
     14 C                    -0.527928
     15 H                     0.169894
     16 H                     0.201505
     17 H                     0.179815
     18 H                     0.176197
     19 H                     0.172970
     20 H                     0.103022
     21 H                     0.187853
     22 H                     0.178214
     23 H                     0.195052
     24 H                     0.202910
     25 C                     0.862597
     26 C                     0.985617
     27 C                    -0.859494
     28 C                    -0.640643
     29 O                     0.077431
     30 O                    -0.122666
     31 O                     0.074918
     32 O                    -0.179525
     33 C                    -0.346982
     34 C                    -0.173606
     35 C                    -0.510905
     36 C                    -0.247972
     37 C                    -0.294672
     38 C                    -0.394292
     39 H                     0.204646
     40 H                     0.169079
     41 H                     0.177976
     42 H                     0.192276
     43 H                     0.099520
     44 H                     0.171767
     45 H                     0.175613
     46 H                     0.180331
     47 H                     0.203621
     48 H                     0.193518
  ----------------------------------------
  Sum of atomic charges =     0.000000

                    Cartesian Multipole Moments
 -----------------------------------------------------------------
    Charge (ESU x 10^10)
                 0.0000
    Dipole Moment (Debye)
         X       0.1902      Y       0.1781      Z       0.2049
       Tot       0.3315
    Quadrupole Moments (Debye-Ang)
        XX    -170.0519     XY      -0.8060     YY    -124.6903
        XZ      18.8588     YZ       0.5310     ZZ    -173.9541

 Total job time:  1268.07s(wall), 2518.36s(cpu)
        *  Thank you very much for using Q-Chem.  Have a nice day.  *
