 Q-Chem 5.0, Q-Chem, Inc., Pleasanton, CA (2017)
 Q-Chem 5.0.1 for Intel X86 EM64T Linux

User input:
--------------------------------------------------------------
$molecule
0  1
C        -0.50866000        -1.13710000        +5.11318000
C        -0.52131000        +0.26538000        +5.23500000
C        +0.78547000        -1.89116000        +5.08633000
C        +0.76421000        +1.03096000        +5.24605000
O        +1.57223000        -1.54516000        +6.12820000
O        +1.08280000        -2.73745000        +4.27919000
O        +1.57362000        +0.62961000        +4.24130000
O        +1.04613000        +1.91757000        +6.01485000
C        +2.87027000        +1.24781000        +4.18649000
C        +2.85894000        -2.18548000        +6.18482000
C        -1.70742000        -1.86956000        +5.05455000
C        -2.90374000        -1.15396000        +5.12722000
C        -2.91735000        +0.22915000        +5.24941000
C        -1.73583000        +0.97064000        +5.30817000
H        +2.77413000        +2.32649000        +4.05543000
H        +2.74356000        -3.26659000        +6.27562000
H        -3.86776000        +0.74985000        +5.29717000
H        +3.42576000        +1.04753000        +5.10463000
H        +3.36762000        +0.79929000        +3.32940000
H        +3.34673000        -1.77621000        +7.06657000
H        +3.43467000        -1.96274000        +5.28466000
H        -3.84314000        -1.69551000        +5.09019000
H        -1.75308000        +1.99824000        +5.40183000
H        -1.70300000        -2.89733000        +4.96132000
@C        -0.54444000        -0.68370000        -0.06689000
@C        -0.55709000        +0.71878000        +0.05493000
@C        +0.74969000        -1.43776000        -0.09374000
@C        +0.72843000        +1.48436000        +0.06598000
@O        +1.53645000        -1.09176000        +0.94813000
@O        +1.04702000        -2.28405000        -0.90088000
@O        +1.53784000        +1.08301000        -0.93877000
@O        +1.01035000        +2.37097000        +0.83478000
@C        +2.83449000        +1.70121000        -0.99358000
@C        +2.82316000        -1.73208000        +1.00475000
@C        -1.74320000        -1.41616000        -0.12552000
@C        -2.93952000        -0.70056000        -0.05285000
@C        -2.95313000        +0.68255000        +0.06934000
@C        -1.77161000        +1.42404000        +0.12810000
@H        +2.73835000        +2.77989000        -1.12464000
@H        +2.70778000        -2.81319000        +1.09555000
@H        -3.90354000        +1.20325000        +0.11710000
@H        +3.38998000        +1.50093000        -0.07544000
@H        +3.33184000        +1.25269000        -1.85067000
@H        +3.31095000        -1.32281000        +1.88650000
@H        +3.39889000        -1.50934000        +0.10459000
@H        -3.87892000        -1.24211000        -0.08988000
@H        -1.78886000        +2.45164000        +0.22176000
@H        -1.73878000        -2.44393000        -0.21875000
$end

$rem
JOBTYPE                   SP
METHOD                    B3LYP
DFT_D                     d3_op
BASIS                     6-311++G(d,p)
SYMMETRY                  False
THRESH                    12
SCF_CONVERGENCE           8
MAX_SUB_FILE_NUM          128
MEM_STATIC                400
MEM_TOTAL                 4000
$end
--------------------------------------------------------------

             Standard Nuclear Orientation (Angstroms)
    I     Atom           X                Y                Z
 ----------------------------------------------------------------
    1      C      -0.5086600000    -1.1371000000     5.1131800000
    2      C      -0.5213100000     0.2653800000     5.2350000000
    3      C       0.7854700000    -1.8911600000     5.0863300000
    4      C       0.7642100000     1.0309600000     5.2460500000
    5      O       1.5722300000    -1.5451600000     6.1282000000
    6      O       1.0828000000    -2.7374500000     4.2791900000
    7      O       1.5736200000     0.6296100000     4.2413000000
    8      O       1.0461300000     1.9175700000     6.0148500000
    9      C       2.8702700000     1.2478100000     4.1864900000
   10      C       2.8589400000    -2.1854800000     6.1848200000
   11      C      -1.7074200000    -1.8695600000     5.0545500000
   12      C      -2.9037400000    -1.1539600000     5.1272200000
   13      C      -2.9173500000     0.2291500000     5.2494100000
   14      C      -1.7358300000     0.9706400000     5.3081700000
   15      H       2.7741300000     2.3264900000     4.0554300000
   16      H       2.7435600000    -3.2665900000     6.2756200000
   17      H      -3.8677600000     0.7498500000     5.2971700000
   18      H       3.4257600000     1.0475300000     5.1046300000
   19      H       3.3676200000     0.7992900000     3.3294000000
   20      H       3.3467300000    -1.7762100000     7.0665700000
   21      H       3.4346700000    -1.9627400000     5.2846600000
   22      H      -3.8431400000    -1.6955100000     5.0901900000
   23      H      -1.7530800000     1.9982400000     5.4018300000
   24      H      -1.7030000000    -2.8973300000     4.9613200000
   25      GH     -0.5444400000    -0.6837000000    -0.0668900000
   26      GH     -0.5570900000     0.7187800000     0.0549300000
   27      GH      0.7496900000    -1.4377600000    -0.0937400000
   28      GH      0.7284300000     1.4843600000     0.0659800000
   29      GH      1.5364500000    -1.0917600000     0.9481300000
   30      GH      1.0470200000    -2.2840500000    -0.9008800000
   31      GH      1.5378400000     1.0830100000    -0.9387700000
   32      GH      1.0103500000     2.3709700000     0.8347800000
   33      GH      2.8344900000     1.7012100000    -0.9935800000
   34      GH      2.8231600000    -1.7320800000     1.0047500000
   35      GH     -1.7432000000    -1.4161600000    -0.1255200000
   36      GH     -2.9395200000    -0.7005600000    -0.0528500000
   37      GH     -2.9531300000     0.6825500000     0.0693400000
   38      GH     -1.7716100000     1.4240400000     0.1281000000
   39      GH      2.7383500000     2.7798900000    -1.1246400000
   40      GH      2.7077800000    -2.8131900000     1.0955500000
   41      GH     -3.9035400000     1.2032500000     0.1171000000
   42      GH      3.3899800000     1.5009300000    -0.0754400000
   43      GH      3.3318400000     1.2526900000    -1.8506700000
   44      GH      3.3109500000    -1.3228100000     1.8865000000
   45      GH      3.3988900000    -1.5093400000     0.1045900000
   46      GH     -3.8789200000    -1.2421100000    -0.0898800000
   47      GH     -1.7888600000     2.4516400000     0.2217600000
   48      GH     -1.7387800000    -2.4439300000    -0.2187500000
 ----------------------------------------------------------------

   14    -688.2111491025      5.72E-09 Convergence criterion met
 Total energy in the final basis set = -688.21114910

                    Orbital Energies (a.u.)
 --------------------------------------------------------------

 Alpha MOs
 -- Occupied --
-19.178 -19.178 -19.122 -19.122 -10.314 -10.314 -10.233 -10.233
-10.215 -10.214 -10.198 -10.198 -10.197 -10.197  -1.123  -1.117
 -1.033  -1.032  -0.887  -0.800  -0.787  -0.744  -0.733  -0.656
 -0.646  -0.596  -0.579  -0.555  -0.524  -0.516  -0.493  -0.492
 -0.485  -0.479  -0.472  -0.468  -0.440  -0.431  -0.416  -0.408
 -0.389  -0.387  -0.384  -0.369  -0.366  -0.324  -0.315  -0.301
 -0.297  -0.275  -0.272

          Ground-State Mulliken Net Atomic Charges

     Atom                 Charge (a.u.)
  ----------------------------------------
      1 C                     0.858783
      2 C                     0.979505
      3 C                    -0.880329
      4 C                    -0.613839
      5 O                     0.073647
      6 O                    -0.110045
      7 O                     0.071967
      8 O                    -0.175333
      9 C                    -0.362623
     10 C                    -0.173107
     11 C                    -0.519172
     12 C                    -0.247111
     13 C                    -0.296980
     14 C                    -0.386023
     15 H                     0.198016
     16 H                     0.168991
     17 H                     0.181281
     18 H                     0.194924
     19 H                     0.117040
     20 H                     0.171296
     21 H                     0.178834
     22 H                     0.183988
     23 H                     0.203868
     24 H                     0.196593
     25 GH                    0.002583
     26 GH                    0.000941
     27 GH                   -0.026602
     28 GH                    0.028174
     29 GH                   -0.010933
     30 GH                    0.000136
     31 GH                    0.000396
     32 GH                   -0.004506
     33 GH                   -0.006175
     34 GH                   -0.002523
     35 GH                   -0.015440
     36 GH                    0.000830
     37 GH                   -0.003756
     38 GH                    0.014045
     39 GH                    0.000406
     40 GH                   -0.000605
     41 GH                   -0.000177
     42 GH                    0.001913
     43 GH                   -0.000399
     44 GH                    0.008106
     45 GH                    0.000796
     46 GH                   -0.000226
     47 GH                   -0.000511
     48 GH                   -0.000647
  ----------------------------------------
  Sum of atomic charges =     0.000000

                    Cartesian Multipole Moments
 -----------------------------------------------------------------
    Charge (ESU x 10^10)
                 0.0000
    Dipole Moment (Debye)
         X      -0.0472      Y      -0.1171      Z       0.0573
       Tot       0.1386
    Quadrupole Moments (Debye-Ang)
        XX     -61.3394     XY      -0.0486     YY     -84.2171
        XZ      -0.1099     YZ     -10.3436     ZZ     -86.4504

 Total job time:  1163.56s(wall), 2302.20s(cpu)
        *  Thank you very much for using Q-Chem.  Have a nice day.  *
