 Q-Chem 5.0, Q-Chem, Inc., Pleasanton, CA (2017)
 Q-Chem 5.0.1 for Intel X86 EM64T Linux

User input:
--------------------------------------------------------------
$molecule
0  1
--
0  1
C        +0.22270000        +1.04488000        +0.58595000
C        +0.62626000        -0.41353000        +0.99871000
C        -1.18200000        +1.23223000        +0.04377000
C        -0.37457000        -1.51643000        +0.72333000
O        -2.09172000        +0.78832000        +0.93966000
O        -1.47336000        +1.75939000        -0.99882000
O        -0.91364000        -1.42792000        -0.50620000
O        -0.62208000        -2.40877000        +1.49911000
C        -1.86134000        -2.44741000        -0.86560000
C        -3.47068000        +0.87492000        +0.53920000
C        +1.33008000        +1.39974000        -0.43491000
C        +2.63070000        +1.71700000        +0.32855000
C        +3.04336000        +0.29351000        +0.80300000
C        +1.94423000        -0.59299000        +0.15262000
O        +1.62840000        +0.13663000        -1.04376000
H        +0.27811000        +1.68786000        +1.46900000
H        +0.83923000        -0.48042000        +2.06408000
H        -2.68749000        -2.46677000        -0.15296000
H        -3.76076000        +1.91522000        +0.38406000
H        +3.37234000        +2.13782000        -0.35195000
H        +2.48236000        +2.42488000        +1.14651000
H        +4.02182000        +0.00994000        +0.41161000
H        +3.07359000        +0.18738000        +1.88928000
H        -2.21148000        -2.17765000        -1.85937000
H        -1.38062000        -3.42697000        -0.88096000
H        -4.03855000        +0.43623000        +1.35671000
H        -3.63120000        +0.31700000        -0.38495000
C        +2.35450000        -2.01267000        -0.16812000
H        +3.26311000        -2.00678000        -0.77366000
H        +2.54990000        -2.57059000        +0.75079000
H        +1.57335000        -2.52896000        -0.72872000
H        +1.03270000        +2.19943000        -1.08064000
--
0  1
C        +0.24983000        +2.58143000        +5.55367000
C        +0.65339000        +1.12302000        +5.96643000
C        -1.15487000        +2.76878000        +5.01149000
C        -0.34744000        +0.02012000        +5.69105000
O        -2.06459000        +2.32487000        +5.90738000
O        -1.44623000        +3.29594000        +3.96890000
O        -0.88651000        +0.10863000        +4.46152000
O        -0.59495000        -0.87222000        +6.46683000
C        -1.83421000        -0.91086000        +4.10212000
C        -3.44355000        +2.41147000        +5.50692000
C        +1.35721000        +2.93629000        +4.53281000
C        +2.65783000        +3.25355000        +5.29627000
C        +3.07049000        +1.83006000        +5.77072000
C        +1.97136000        +0.94356000        +5.12034000
O        +1.65553000        +1.67318000        +3.92396000
H        +0.30524000        +3.22441000        +6.43672000
H        +0.86636000        +1.05613000        +7.03180000
H        -2.66036000        -0.93022000        +4.81476000
H        -3.73363000        +3.45177000        +5.35178000
H        +3.39947000        +3.67437000        +4.61577000
H        +2.50949000        +3.96143000        +6.11423000
H        +4.04895000        +1.54649000        +5.37933000
H        +3.10072000        +1.72393000        +6.85700000
H        -2.18435000        -0.64110000        +3.10835000
H        -1.35349000        -1.89042000        +4.08676000
H        -4.01142000        +1.97278000        +6.32443000
H        -3.60407000        +1.85355000        +4.58277000
C        +2.38163000        -0.47612000        +4.79960000
H        +3.29024000        -0.47023000        +4.19406000
H        +2.57703000        -1.03404000        +5.71851000
H        +1.60048000        -0.99241000        +4.23900000
H        +1.05983000        +3.73598000        +3.88708000
$end

$rem
JOBTYPE                   SP
METHOD                    B3LYP
DFT_D                     d3_op
BASIS                     6-311++G(d,p)
SYMMETRY                  False
THRESH                    12
SCF_CONVERGENCE           8
MAX_SUB_FILE_NUM          128
MEM_STATIC                400
MEM_TOTAL                 4000
$end
--------------------------------------------------------------

             Standard Nuclear Orientation (Angstroms)
    I     Atom           X                Y                Z
 ----------------------------------------------------------------
    1      C      -1.7531588232     0.2123284760     1.1278612077
    2      C      -1.8966824635     0.5725429221    -0.3919538260
    3      C      -2.2193084014    -1.1702776450     1.5442097993
    4      C      -2.5802274794    -0.4414461143    -1.2855284948
    5      O      -1.5696373136    -2.1169471155     0.8307605369
    6      O      -3.0012314110    -1.4174537078     2.4258461327
    7      O      -3.7026727213    -0.9392116069    -0.7355096777
    8      O      -2.1924888969    -0.7317630491    -2.3922088250
    9      C      -4.4324964748    -1.8957249349    -1.5223406966
   10      C      -1.9405006369    -3.4804063018     1.1006455050
   11      C      -2.5473975544     1.3586631499     1.7982885915
   12      C      -1.6923030186     2.6405823185     1.7731083711
   13      C      -1.7654345417     3.0086449957     0.2628446510
   14      C      -2.7202302354     1.9127932326    -0.2889136728
   15      O      -3.5712408513     1.6502104850     0.8381401281
   16      H      -0.6945759555     0.2528111103     1.3999536913
   17      H      -0.9260964854     0.7501064222    -0.8516034668
   18      H      -3.7952729801    -2.7443438477    -1.7764008478
   19      H      -1.7086768161    -3.7439954689     2.1337076441
   20      H      -2.1539170092     3.4119684777     2.3912309553
   21      H      -0.6748655533     2.4808628412     2.1356936775
   22      H      -2.2120004608     3.9930315266     0.1126977683
   23      H      -0.7938616027     3.0021291601    -0.2353372799
   24      H      -5.2649559706    -2.2084738648    -0.8961246118
   25      H      -4.7963041043    -1.4349635664    -2.4422365666
   26      H      -1.3542473800    -4.0828709304     0.4102895511
   27      H      -3.0083398331    -3.6228709359     0.9259517781
   28      C      -3.5313087681     2.3038346518    -1.5037902694
   29      H      -4.0720952704     3.2311720244    -1.3040883107
   30      H      -2.8777953674     2.4584215153    -2.3656920105
   31      H      -4.2595251148     1.5304773408    -1.7540750441
   32      H      -2.8602972496     1.0984432533     2.7878771826
   33      C       3.4308622767     0.1129875972     0.7328668230
   34      C       3.2873386363     0.4732020433    -0.7869482107
   35      C       2.9647126984    -1.2696185238     1.1492154146
   36      C       2.6037936204    -0.5407869931    -1.6805228795
   37      O       3.6143837862    -2.2162879943     0.4357661522
   38      O       2.1827896889    -1.5167945866     2.0308517480
   39      O       1.4813483785    -1.0385524857    -1.1305040624
   40      O       2.9915322029    -0.8311039279    -2.7872032097
   41      C       0.7515246251    -1.9950658137    -1.9173350813
   42      C       3.2435204630    -3.5797471806     0.7056511203
   43      C       2.6366235455     1.2593222711     1.4032942068
   44      C       3.4917180812     2.5412414397     1.3781139864
   45      C       3.4185865582     2.9093041169    -0.1321497337
   46      C       2.4637908644     1.8134523538    -0.6839080575
   47      O       1.6127802486     1.5508696062     0.4431457434
   48      H       4.4894451443     0.1534702315     1.0049593066
   49      H       4.2579246145     0.6507655434    -1.2465978515
   50      H       1.3887481197    -2.8436847265    -2.1713952325
   51      H       3.4753442837    -3.8433363477     1.7387132594
   52      H       3.0301040907     3.3126275989     1.9962365706
   53      H       4.5091555465     2.3815219625     1.7406992928
   54      H       2.9720206391     3.8936906478    -0.2822966164
   55      H       4.3901594972     2.9027882813    -0.6303316646
   56      H      -0.0809348708    -2.3078147436    -1.2911189965
   57      H       0.3877169956    -1.5343044452    -2.8372309513
   58      H       3.8297737199    -4.1822118092     0.0152951664
   59      H       2.1756812667    -3.7222118147     0.5309573934
   60      C       1.6527123317     2.2044937730    -1.8987846541
   61      H       1.1119258295     3.1318311456    -1.6990826954
   62      H       2.3062257324     2.3590806365    -2.7606863952
   63      H       0.9244959850     1.4311364620    -2.1490694288
   64      H       2.3237238503     0.9991023745     2.3928827979
 ----------------------------------------------------------------

   15   -1610.4081969584      5.24E-09 Convergence criterion met
 Total energy in the final basis set = -1610.40819696

                    Orbital Energies (a.u.)
 --------------------------------------------------------------

 Alpha MOs
 -- Occupied --
-19.178 -19.171 -19.171 -19.169 -19.141 -19.123 -19.122 -19.115
-19.114 -19.111 -10.313 -10.305 -10.303 -10.301 -10.253 -10.237
-10.237 -10.234 -10.229 -10.229 -10.218 -10.218 -10.210 -10.208
-10.194 -10.192 -10.186 -10.185 -10.177 -10.169 -10.167 -10.165
 -1.122  -1.116  -1.112  -1.108  -1.073  -1.054  -1.034  -1.026
 -1.026  -1.023  -0.838  -0.822  -0.802  -0.790  -0.787  -0.774
 -0.747  -0.741  -0.727  -0.724  -0.702  -0.690  -0.659  -0.647
 -0.611  -0.599  -0.596  -0.582  -0.568  -0.566  -0.565  -0.555
 -0.538  -0.526  -0.522  -0.514  -0.510  -0.504  -0.497  -0.493
 -0.486  -0.484  -0.484  -0.478  -0.476  -0.474  -0.471  -0.467
 -0.465  -0.453  -0.447  -0.438  -0.436  -0.428  -0.427  -0.419
 -0.417  -0.410  -0.409  -0.398  -0.398  -0.395  -0.393  -0.386
 -0.382  -0.375  -0.373  -0.372  -0.369  -0.366  -0.364  -0.359
 -0.357  -0.352  -0.346  -0.341  -0.339  -0.338  -0.324  -0.323
 -0.321  -0.316  -0.310  -0.308  -0.293  -0.286  -0.283  -0.280
 -0.276  -0.265

          Ground-State Mulliken Net Atomic Charges

     Atom                 Charge (a.u.)
  ----------------------------------------
      1 C                    -0.075124
      2 C                     0.459909
      3 C                    -0.648998
      4 C                    -0.090620
      5 O                     0.030331
      6 O                    -0.166292
      7 O                     0.075069
      8 O                    -0.101948
      9 C                    -0.181867
     10 C                    -0.270828
     11 C                    -0.570137
     12 C                    -0.263842
     13 C                    -0.263333
     14 C                    -0.383800
     15 O                     0.020287
     16 H                     0.253216
     17 H                     0.081549
     18 H                     0.194176
     19 H                     0.194756
     20 H                     0.197518
     21 H                     0.123358
     22 H                     0.190678
     23 H                     0.060523
     24 H                     0.176203
     25 H                     0.174525
     26 H                     0.123354
     27 H                     0.188324
     28 C                    -0.378940
     29 H                     0.184571
     30 H                     0.163528
     31 H                     0.185066
     32 H                     0.278969
     33 C                    -0.016689
     34 C                     0.459296
     35 C                    -0.662249
     36 C                    -0.834006
     37 O                     0.028720
     38 O                    -0.108168
     39 O                     0.056757
     40 O                    -0.093744
     41 C                    -0.361575
     42 C                    -0.163332
     43 C                    -0.122662
     44 C                    -0.672893
     45 C                    -0.321580
     46 C                    -0.316800
     47 O                     0.245244
     48 H                     0.247902
     49 H                     0.288833
     50 H                     0.214790
     51 H                     0.169979
     52 H                     0.177747
     53 H                     0.141911
     54 H                     0.168070
     55 H                     0.147507
     56 H                     0.139858
     57 H                     0.233971
     58 H                     0.166864
     59 H                     0.180658
     60 C                    -0.249869
     61 H                     0.201826
     62 H                     0.196066
     63 H                     0.223063
     64 H                     0.274328
  ----------------------------------------
  Sum of atomic charges =     0.000000

                    Cartesian Multipole Moments
 -----------------------------------------------------------------
    Charge (ESU x 10^10)
                 0.0000
    Dipole Moment (Debye)
         X       3.0053      Y       0.0665      Z       0.1332
       Tot       3.0090
    Quadrupole Moments (Debye-Ang)
        XX    -189.0499     XY       9.2742     YY    -165.3399
        XZ      19.6886     YZ       0.3812     ZZ    -208.6999

 Total job time:  7193.08s(wall), 7176.43s(cpu)
        *  Thank you very much for using Q-Chem.  Have a nice day.  *
