 Q-Chem 5.0, Q-Chem, Inc., Pleasanton, CA (2017)
 Q-Chem 5.0.1 for Intel X86 EM64T Linux

User input:
--------------------------------------------------------------
$molecule
0  1
C        +0.24983000        +2.58143000        +5.55367000
C        +0.65339000        +1.12302000        +5.96643000
C        -1.15487000        +2.76878000        +5.01149000
C        -0.34744000        +0.02012000        +5.69105000
O        -2.06459000        +2.32487000        +5.90738000
O        -1.44623000        +3.29594000        +3.96890000
O        -0.88651000        +0.10863000        +4.46152000
O        -0.59495000        -0.87222000        +6.46683000
C        -1.83421000        -0.91086000        +4.10212000
C        -3.44355000        +2.41147000        +5.50692000
C        +1.35721000        +2.93629000        +4.53281000
C        +2.65783000        +3.25355000        +5.29627000
C        +3.07049000        +1.83006000        +5.77072000
C        +1.97136000        +0.94356000        +5.12034000
O        +1.65553000        +1.67318000        +3.92396000
H        +0.30524000        +3.22441000        +6.43672000
H        +0.86636000        +1.05613000        +7.03180000
H        -2.66036000        -0.93022000        +4.81476000
H        -3.73363000        +3.45177000        +5.35178000
H        +3.39947000        +3.67437000        +4.61577000
H        +2.50949000        +3.96143000        +6.11423000
H        +4.04895000        +1.54649000        +5.37933000
H        +3.10072000        +1.72393000        +6.85700000
H        -2.18435000        -0.64110000        +3.10835000
H        -1.35349000        -1.89042000        +4.08676000
H        -4.01142000        +1.97278000        +6.32443000
H        -3.60407000        +1.85355000        +4.58277000
C        +0.92741000        +3.92732000        +3.47342000
C        +2.38163000        -0.47612000        +4.79960000
H        +3.29024000        -0.47023000        +4.19406000
H        +2.57703000        -1.03404000        +5.71851000
H        +1.60048000        -0.99241000        +4.23900000
H        +1.74558000        +4.11841000        +2.81086000
H        +0.62632000        +4.84133000        +3.94122000
H        +0.10638000        +3.52308000        +2.91898000
@C        +0.22270000        +1.04488000        +0.58595000
@C        +0.62626000        -0.41353000        +0.99871000
@C        -1.18200000        +1.23223000        +0.04377000
@C        -0.37457000        -1.51643000        +0.72333000
@O        -2.09172000        +0.78832000        +0.93966000
@O        -1.47336000        +1.75939000        -0.99882000
@O        -0.91364000        -1.42792000        -0.50620000
@O        -0.62208000        -2.40877000        +1.49911000
@C        -1.86134000        -2.44741000        -0.86560000
@C        -3.47068000        +0.87492000        +0.53920000
@C        +1.33008000        +1.39974000        -0.43491000
@C        +2.63070000        +1.71700000        +0.32855000
@C        +3.04336000        +0.29351000        +0.80300000
@C        +1.94423000        -0.59299000        +0.15262000
@O        +1.62840000        +0.13663000        -1.04376000
@H        +0.27811000        +1.68786000        +1.46900000
@H        +0.83923000        -0.48042000        +2.06408000
@H        -2.68749000        -2.46677000        -0.15296000
@H        -3.76076000        +1.91522000        +0.38406000
@H        +3.37234000        +2.13782000        -0.35195000
@H        +2.48236000        +2.42488000        +1.14651000
@H        +4.02182000        +0.00994000        +0.41161000
@H        +3.07359000        +0.18738000        +1.88928000
@H        -2.21148000        -2.17765000        -1.85937000
@H        -1.38062000        -3.42697000        -0.88096000
@H        -4.03855000        +0.43623000        +1.35671000
@H        -3.63120000        +0.31700000        -0.38495000
@C        +0.90028000        +2.39077000        -1.49430000
@C        +2.35450000        -2.01267000        -0.16812000
@H        +3.26311000        -2.00678000        -0.77366000
@H        +2.54990000        -2.57059000        +0.75079000
@H        +1.57335000        -2.52896000        -0.72872000
@H        +1.71845000        +2.58186000        -2.15686000
@H        +0.59919000        +3.30478000        -1.02650000
@H        +0.07925000        +1.98653000        -2.04874000
$end

$rem
JOBTYPE                   SP
METHOD                    B3LYP
DFT_D                     d3_op
BASIS                     6-311++G(d,p)
SYMMETRY                  False
THRESH                    12
SCF_CONVERGENCE           8
MAX_SUB_FILE_NUM          128
MEM_STATIC                400
MEM_TOTAL                 4000
$end
--------------------------------------------------------------

             Standard Nuclear Orientation (Angstroms)
    I     Atom           X                Y                Z
 ----------------------------------------------------------------
    1      C       0.2498300000     2.5814300000     5.5536700000
    2      C       0.6533900000     1.1230200000     5.9664300000
    3      C      -1.1548700000     2.7687800000     5.0114900000
    4      C      -0.3474400000     0.0201200000     5.6910500000
    5      O      -2.0645900000     2.3248700000     5.9073800000
    6      O      -1.4462300000     3.2959400000     3.9689000000
    7      O      -0.8865100000     0.1086300000     4.4615200000
    8      O      -0.5949500000    -0.8722200000     6.4668300000
    9      C      -1.8342100000    -0.9108600000     4.1021200000
   10      C      -3.4435500000     2.4114700000     5.5069200000
   11      C       1.3572100000     2.9362900000     4.5328100000
   12      C       2.6578300000     3.2535500000     5.2962700000
   13      C       3.0704900000     1.8300600000     5.7707200000
   14      C       1.9713600000     0.9435600000     5.1203400000
   15      O       1.6555300000     1.6731800000     3.9239600000
   16      H       0.3052400000     3.2244100000     6.4367200000
   17      H       0.8663600000     1.0561300000     7.0318000000
   18      H      -2.6603600000    -0.9302200000     4.8147600000
   19      H      -3.7336300000     3.4517700000     5.3517800000
   20      H       3.3994700000     3.6743700000     4.6157700000
   21      H       2.5094900000     3.9614300000     6.1142300000
   22      H       4.0489500000     1.5464900000     5.3793300000
   23      H       3.1007200000     1.7239300000     6.8570000000
   24      H      -2.1843500000    -0.6411000000     3.1083500000
   25      H      -1.3534900000    -1.8904200000     4.0867600000
   26      H      -4.0114200000     1.9727800000     6.3244300000
   27      H      -3.6040700000     1.8535500000     4.5827700000
   28      C       0.9274100000     3.9273200000     3.4734200000
   29      C       2.3816300000    -0.4761200000     4.7996000000
   30      H       3.2902400000    -0.4702300000     4.1940600000
   31      H       2.5770300000    -1.0340400000     5.7185100000
   32      H       1.6004800000    -0.9924100000     4.2390000000
   33      H       1.7455800000     4.1184100000     2.8108600000
   34      H       0.6263200000     4.8413300000     3.9412200000
   35      H       0.1063800000     3.5230800000     2.9189800000
   36      GH      0.2227000000     1.0448800000     0.5859500000
   37      GH      0.6262600000    -0.4135300000     0.9987100000
   38      GH     -1.1820000000     1.2322300000     0.0437700000
   39      GH     -0.3745700000    -1.5164300000     0.7233300000
   40      GH     -2.0917200000     0.7883200000     0.9396600000
   41      GH     -1.4733600000     1.7593900000    -0.9988200000
   42      GH     -0.9136400000    -1.4279200000    -0.5062000000
   43      GH     -0.6220800000    -2.4087700000     1.4991100000
   44      GH     -1.8613400000    -2.4474100000    -0.8656000000
   45      GH     -3.4706800000     0.8749200000     0.5392000000
   46      GH      1.3300800000     1.3997400000    -0.4349100000
   47      GH      2.6307000000     1.7170000000     0.3285500000
   48      GH      3.0433600000     0.2935100000     0.8030000000
   49      GH      1.9442300000    -0.5929900000     0.1526200000
   50      GH      1.6284000000     0.1366300000    -1.0437600000
   51      GH      0.2781100000     1.6878600000     1.4690000000
   52      GH      0.8392300000    -0.4804200000     2.0640800000
   53      GH     -2.6874900000    -2.4667700000    -0.1529600000
   54      GH     -3.7607600000     1.9152200000     0.3840600000
   55      GH      3.3723400000     2.1378200000    -0.3519500000
   56      GH      2.4823600000     2.4248800000     1.1465100000
   57      GH      4.0218200000     0.0099400000     0.4116100000
   58      GH      3.0735900000     0.1873800000     1.8892800000
   59      GH     -2.2114800000    -2.1776500000    -1.8593700000
   60      GH     -1.3806200000    -3.4269700000    -0.8809600000
   61      GH     -4.0385500000     0.4362300000     1.3567100000
   62      GH     -3.6312000000     0.3170000000    -0.3849500000
   63      GH      0.9002800000     2.3907700000    -1.4943000000
   64      GH      2.3545000000    -2.0126700000    -0.1681200000
   65      GH      3.2631100000    -2.0067800000    -0.7736600000
   66      GH      2.5499000000    -2.5705900000     0.7507900000
   67      GH      1.5733500000    -2.5289600000    -0.7287200000
   68      GH      1.7184500000     2.5818600000    -2.1568600000
   69      GH      0.5991900000     3.3047800000    -1.0265000000
   70      GH      0.0792500000     1.9865300000    -2.0487400000
 ----------------------------------------------------------------

   14    -844.5178618202      5.81E-09 Convergence criterion met
 Total energy in the final basis set = -844.51786182

                    Orbital Energies (a.u.)
 --------------------------------------------------------------

 Alpha MOs
 -- Occupied --
-19.176 -19.174 -19.125 -19.117 -19.116 -10.311 -10.306 -10.242
-10.232 -10.231 -10.231 -10.204 -10.203 -10.177 -10.175 -10.169
-10.136  -1.121  -1.114  -1.061  -1.034  -1.027  -0.832  -0.804
 -0.784  -0.748  -0.730  -0.720  -0.674  -0.644  -0.603  -0.579
 -0.570  -0.561  -0.525  -0.514  -0.508  -0.493  -0.489  -0.480
 -0.476  -0.471  -0.459  -0.442  -0.435  -0.433  -0.414  -0.411
 -0.403  -0.399  -0.395  -0.374  -0.372  -0.364  -0.358  -0.355
 -0.349  -0.346  -0.333  -0.328  -0.321  -0.313  -0.284  -0.272
 -0.270

          Ground-State Mulliken Net Atomic Charges

     Atom                 Charge (a.u.)
  ----------------------------------------
      1 C                    -0.126453
      2 C                     0.456736
      3 C                    -0.705197
      4 C                    -0.807250
      5 O                     0.056139
      6 O                    -0.067053
      7 O                     0.047294
      8 O                    -0.093639
      9 C                    -0.302493
     10 C                    -0.160404
     11 C                     0.081716
     12 C                    -0.327543
     13 C                    -0.412535
     14 C                    -0.147937
     15 O                     0.309474
     16 H                     0.259777
     17 H                     0.283460
     18 H                     0.232350
     19 H                     0.168026
     20 H                     0.175555
     21 H                     0.150656
     22 H                     0.168079
     23 H                     0.146811
     24 H                     0.100058
     25 H                     0.208144
     26 H                     0.165429
     27 H                     0.176803
     28 C                    -0.669423
     29 C                    -0.408765
     30 H                     0.198909
     31 H                     0.193034
     32 H                     0.208871
     33 H                     0.133567
     34 H                     0.167837
     35 H                     0.187666
     36 GH                   -0.176906
     37 GH                    0.109740
     38 GH                    0.038613
     39 GH                    0.098156
     40 GH                    0.000201
     41 GH                    0.000390
     42 GH                    0.001346
     43 GH                   -0.007782
     44 GH                    0.003105
     45 GH                    0.014077
     46 GH                   -0.057338
     47 GH                    0.000970
     48 GH                    0.010929
     49 GH                    0.022665
     50 GH                    0.000811
     51 GH                    0.048257
     52 GH                   -0.142061
     53 GH                    0.001588
     54 GH                   -0.000199
     55 GH                   -0.002339
     56 GH                   -0.004257
     57 GH                   -0.001962
     58 GH                   -0.014674
     59 GH                    0.000080
     60 GH                   -0.000350
     61 GH                    0.005907
     62 GH                    0.000416
     63 GH                   -0.005692
     64 GH                    0.009082
     65 GH                   -0.000054
     66 GH                    0.000090
     67 GH                    0.000223
     68 GH                   -0.000141
     69 GH                   -0.000995
     70 GH                    0.000406
  ----------------------------------------
  Sum of atomic charges =    -0.000000

                    Cartesian Multipole Moments
 -----------------------------------------------------------------
    Charge (ESU x 10^10)
                -0.0000
    Dipole Moment (Debye)
         X      -0.3328      Y       0.5054      Z       0.9012
       Tot       1.0855
    Quadrupole Moments (Debye-Ang)
        XX     -89.0440     XY       1.3033     YY    -102.0180
        XZ       1.8585     YZ      14.7131     ZZ     -99.4108

 Total job time:  3662.81s(wall), 7288.35s(cpu)
        *  Thank you very much for using Q-Chem.  Have a nice day.  *
