 Q-Chem 5.0, Q-Chem, Inc., Pleasanton, CA (2017)
 Q-Chem 5.0.1 for Intel X86 EM64T Linux

User input:
--------------------------------------------------------------
$molecule
0  1
--
0  1
C        +0.22270000        +1.04488000        +0.58595000
C        +0.62626000        -0.41353000        +0.99871000
C        -1.18200000        +1.23223000        +0.04377000
C        -0.37457000        -1.51643000        +0.72333000
O        -2.09172000        +0.78832000        +0.93966000
O        -1.47336000        +1.75939000        -0.99882000
O        -0.91364000        -1.42792000        -0.50620000
O        -0.62208000        -2.40877000        +1.49911000
C        -1.86134000        -2.44741000        -0.86560000
C        -3.47068000        +0.87492000        +0.53920000
C        +1.33008000        +1.39974000        -0.43491000
C        +2.63070000        +1.71700000        +0.32855000
C        +3.04336000        +0.29351000        +0.80300000
C        +1.94423000        -0.59299000        +0.15262000
O        +1.62840000        +0.13663000        -1.04376000
H        +0.27811000        +1.68786000        +1.46900000
H        +0.83923000        -0.48042000        +2.06408000
H        -2.68749000        -2.46677000        -0.15296000
H        -3.76076000        +1.91522000        +0.38406000
H        +3.37234000        +2.13782000        -0.35195000
H        +2.48236000        +2.42488000        +1.14651000
H        +4.02182000        +0.00994000        +0.41161000
H        +3.07359000        +0.18738000        +1.88928000
H        -2.21148000        -2.17765000        -1.85937000
H        -1.38062000        -3.42697000        -0.88096000
H        -4.03855000        +0.43623000        +1.35671000
H        -3.63120000        +0.31700000        -0.38495000
C        +0.90028000        +2.39077000        -1.49430000
C        +2.35450000        -2.01267000        -0.16812000
H        +3.26311000        -2.00678000        -0.77366000
H        +2.54990000        -2.57059000        +0.75079000
H        +1.57335000        -2.52896000        -0.72872000
H        +1.71845000        +2.58186000        -2.15686000
H        +0.59919000        +3.30478000        -1.02650000
H        +0.07925000        +1.98653000        -2.04874000
--
0  1
C        +0.24983000        +2.58143000        +5.55367000
C        +0.65339000        +1.12302000        +5.96643000
C        -1.15487000        +2.76878000        +5.01149000
C        -0.34744000        +0.02012000        +5.69105000
O        -2.06459000        +2.32487000        +5.90738000
O        -1.44623000        +3.29594000        +3.96890000
O        -0.88651000        +0.10863000        +4.46152000
O        -0.59495000        -0.87222000        +6.46683000
C        -1.83421000        -0.91086000        +4.10212000
C        -3.44355000        +2.41147000        +5.50692000
C        +1.35721000        +2.93629000        +4.53281000
C        +2.65783000        +3.25355000        +5.29627000
C        +3.07049000        +1.83006000        +5.77072000
C        +1.97136000        +0.94356000        +5.12034000
O        +1.65553000        +1.67318000        +3.92396000
H        +0.30524000        +3.22441000        +6.43672000
H        +0.86636000        +1.05613000        +7.03180000
H        -2.66036000        -0.93022000        +4.81476000
H        -3.73363000        +3.45177000        +5.35178000
H        +3.39947000        +3.67437000        +4.61577000
H        +2.50949000        +3.96143000        +6.11423000
H        +4.04895000        +1.54649000        +5.37933000
H        +3.10072000        +1.72393000        +6.85700000
H        -2.18435000        -0.64110000        +3.10835000
H        -1.35349000        -1.89042000        +4.08676000
H        -4.01142000        +1.97278000        +6.32443000
H        -3.60407000        +1.85355000        +4.58277000
C        +0.92741000        +3.92732000        +3.47342000
C        +2.38163000        -0.47612000        +4.79960000
H        +3.29024000        -0.47023000        +4.19406000
H        +2.57703000        -1.03404000        +5.71851000
H        +1.60048000        -0.99241000        +4.23900000
H        +1.74558000        +4.11841000        +2.81086000
H        +0.62632000        +4.84133000        +3.94122000
H        +0.10638000        +3.52308000        +2.91898000
$end

$rem
JOBTYPE                   SP
METHOD                    B3LYP
DFT_D                     d3_op
BASIS                     6-311++G(d,p)
SYMMETRY                  False
THRESH                    12
SCF_CONVERGENCE           8
MAX_SUB_FILE_NUM          128
MEM_STATIC                400
MEM_TOTAL                 4000
$end
--------------------------------------------------------------

             Standard Nuclear Orientation (Angstroms)
    I     Atom           X                Y                Z
 ----------------------------------------------------------------
    1      C      -1.7402998199     0.2556893435     0.8599017244
    2      C      -1.8430117202     0.4033295624    -0.6982522637
    3      C      -2.2012061617    -1.0649187903     1.4479499927
    4      C      -2.4868208598    -0.7339759459    -1.4637123971
    5      O      -1.5187090198    -2.0889941071     0.8887247651
    6      O      -3.0058703854    -1.2027212625     2.3329969910
    7      O      -3.6187976020    -1.1707543425    -0.8823108204
    8      O      -2.0626668679    -1.1657304105    -2.5092017359
    9      C      -4.3127641896    -2.2373669035    -1.5511990997
   10      C      -1.8802572506    -3.4089904542     1.3317721370
   11      C      -2.5685204546     1.4693017579     1.3452538763
   12      C      -1.7292569464     2.7498285166     1.1691134556
   13      C      -1.7619968193     2.9077060291    -0.3786971433
   14      C      -2.6860660555     1.7313381870    -0.8020384926
   15      O      -3.5668980226     1.6105266033     0.3262161970
   16      H      -0.6908847837     0.3503105964     1.1532372853
   17      H      -0.8614766487     0.5327148173    -1.1506813624
   18      H      -3.6576258447    -3.1020135680    -1.6692427197
   19      H      -1.6760086942    -3.5256906444     2.3971840333
   20      H      -2.2187498047     3.5904121580     1.6630927017
   21      H      -0.7211415871     2.6577706385     1.5782420186
   22      H      -2.2162460436     3.8549894956    -0.6741522581
   23      H      -0.7760107823     2.8495226291    -0.8441301620
   24      H      -5.1595050679    -2.4757137817    -0.9115367350
   25      H      -4.6547799350    -1.9121384923    -2.5351285444
   26      H      -1.2661647151    -4.0900156813     0.7466714183
   27      H      -2.9405414428    -3.5915310223     1.1485482519
   28      C      -3.2329412079     1.2670362855     2.6894299862
   29      C      -3.4654548269     1.9399737489    -2.0809877756
   30      H      -4.0235781909     2.8767932984    -2.0248365678
   31      H      -2.7885555847     1.9866238035    -2.9374237994
   32      H      -4.1761019305     1.1278231324    -2.2435150554
   33      H      -3.7827585787     2.1467662417     2.9514974459
   34      H      -2.4857736533     1.0790153812     3.4319224731
   35      H      -3.9001679125     0.4322900957     2.6354737499
   36      C       3.4540260918     0.1892239748     0.6263966574
   37      C       3.3513141915     0.3368641937    -0.9317573306
   38      C       2.9931197499    -1.1313841590     1.2144449258
   39      C       2.7075050518    -0.8004413146    -1.6972174640
   40      O       3.6756168918    -2.1554594758     0.6552196982
   41      O       2.1884555262    -1.2691866312     2.0994919241
   42      O       1.5755283097    -1.2372197112    -1.1158158874
   43      O       3.1316590437    -1.2321957792    -2.7427068028
   44      C       0.8815617220    -2.3038322722    -1.7847041666
   45      C       3.3140686610    -3.4754558229     1.0982670701
   46      C       2.6258054570     1.4028363892     1.1117488094
   47      C       3.4650689652     2.6833631479     0.9356083887
   48      C       3.4323290923     2.8412406604    -0.6122022102
   49      C       2.5082598561     1.6648728183    -1.0355435596
   50      O       1.6274278891     1.5440612346     0.0927111301
   51      H       4.5034411280     0.2838452277     0.9197322184
   52      H       4.3328492629     0.4662494486    -1.3841864293
   53      H       1.5367000669    -3.1684789367    -1.9027477866
   54      H       3.5183172174    -3.5921560131     2.1636789664
   55      H       2.9755761070     3.5239467893     1.4295876348
   56      H       4.4731843245     2.5913052698     1.3447369517
   57      H       2.9780798681     3.7885241269    -0.9076573250
   58      H       4.4183151294     2.7830572604    -1.0776352289
   59      H       0.0348208437    -2.5421791503    -1.1450418019
   60      H       0.5395459767    -1.9786038610    -2.7686336113
   61      H       3.9281611965    -4.1564810500     0.5131663514
   62      H       2.2537844688    -3.6579963910     0.9150431850
   63      C       1.9613847038     1.2005709168     2.4559249193
   64      C       1.7288710848     1.8735083802    -2.3144928425
   65      H       1.1707477207     2.8103279297    -2.2583416347
   66      H       2.4057703270     1.9201584348    -3.1709288663
   67      H       1.0182239811     1.0613577637    -2.4770201224
   68      H       1.4115673329     2.0803008730     2.7179923790
   69      H       2.7085522583     1.0125500125     3.1984174062
   70      H       1.2941579992     0.3658247270     2.4019686830
 ----------------------------------------------------------------

   15   -1689.0501167914      5.35E-09 Convergence criterion met
 Total energy in the final basis set = -1689.05011679

                    Orbital Energies (a.u.)
 --------------------------------------------------------------

 Alpha MOs
 -- Occupied --
-19.179 -19.171 -19.171 -19.171 -19.135 -19.121 -19.116 -19.115
-19.115 -19.110 -10.315 -10.305 -10.304 -10.303 -10.249 -10.239
-10.235 -10.235 -10.231 -10.229 -10.221 -10.218 -10.209 -10.207
-10.194 -10.192 -10.183 -10.181 -10.174 -10.167 -10.163 -10.163
-10.146 -10.128  -1.123  -1.117  -1.113  -1.110  -1.070  -1.052
 -1.038  -1.028  -1.026  -1.025  -0.837  -0.823  -0.811  -0.796
 -0.789  -0.774  -0.748  -0.744  -0.732  -0.726  -0.724  -0.714
 -0.678  -0.667  -0.650  -0.636  -0.606  -0.597  -0.585  -0.573
 -0.570  -0.565  -0.564  -0.555  -0.529  -0.518  -0.516  -0.512
 -0.510  -0.501  -0.497  -0.492  -0.487  -0.484  -0.483  -0.477
 -0.475  -0.473  -0.471  -0.465  -0.463  -0.452  -0.446  -0.439
 -0.438  -0.434  -0.429  -0.428  -0.420  -0.413  -0.409  -0.408
 -0.405  -0.404  -0.397  -0.395  -0.393  -0.388  -0.378  -0.374
 -0.371  -0.369  -0.367  -0.364  -0.359  -0.357  -0.355  -0.352
 -0.350  -0.345  -0.341  -0.339  -0.336  -0.334  -0.325  -0.323
 -0.320  -0.318  -0.311  -0.310  -0.286  -0.282  -0.281  -0.274
 -0.264  -0.263

          Ground-State Mulliken Net Atomic Charges

     Atom                 Charge (a.u.)
  ----------------------------------------
      1 C                     0.183792
      2 C                     0.672830
      3 C                    -0.524683
      4 C                    -0.489883
      5 O                     0.067906
      6 O                    -0.111381
      7 O                     0.059848
      8 O                    -0.082436
      9 C                    -0.155663
     10 C                    -0.262074
     11 C                    -0.970051
     12 C                    -0.121281
     13 C                     0.023196
     14 C                    -0.899136
     15 O                     0.185468
     16 H                     0.205408
     17 H                     0.082941
     18 H                     0.191686
     19 H                     0.193676
     20 H                     0.196282
     21 H                     0.137998
     22 H                     0.198393
     23 H                     0.089429
     24 H                     0.176200
     25 H                     0.177567
     26 H                     0.127305
     27 H                     0.192572
     28 C                    -0.386226
     29 C                    -0.194807
     30 H                     0.176362
     31 H                     0.165524
     32 H                     0.183218
     33 H                     0.140136
     34 H                     0.144749
     35 H                     0.205292
     36 C                    -0.102490
     37 C                     0.484041
     38 C                    -0.699601
     39 C                    -0.779858
     40 O                     0.057141
     41 O                    -0.072447
     42 O                     0.049571
     43 O                    -0.090469
     44 C                    -0.349119
     45 C                    -0.164350
     46 C                     0.018527
     47 C                    -0.337017
     48 C                    -0.414245
     49 C                    -0.261728
     50 O                     0.311316
     51 H                     0.262331
     52 H                     0.286111
     53 H                     0.217283
     54 H                     0.168057
     55 H                     0.174980
     56 H                     0.153741
     57 H                     0.168899
     58 H                     0.149997
     59 H                     0.140338
     60 H                     0.233255
     61 H                     0.166626
     62 H                     0.176280
     63 C                    -0.660857
     64 C                    -0.392768
     65 H                     0.207193
     66 H                     0.196048
     67 H                     0.219065
     68 H                     0.137803
     69 H                     0.171931
     70 H                     0.194257
  ----------------------------------------
  Sum of atomic charges =    -0.000000

                    Cartesian Multipole Moments
 -----------------------------------------------------------------
    Charge (ESU x 10^10)
                -0.0000
    Dipole Moment (Debye)
         X       2.6978      Y      -0.5369      Z       0.4761
       Tot       2.7916
    Quadrupole Moments (Debye-Ang)
        XX    -202.6705     XY      11.7504     YY    -180.4967
        XZ      17.8149     YZ      -6.4692     ZZ    -220.6861

 Total job time:  3859.01s(wall), 7682.90s(cpu)
        *  Thank you very much for using Q-Chem.  Have a nice day.  *
