 Q-Chem 5.0, Q-Chem, Inc., Pleasanton, CA (2017)
 Q-Chem 5.0.1 for Intel X86 EM64T Linux

User input:
--------------------------------------------------------------
$molecule
0  1
--
0  1
C        -0.54444000        -0.68370000        -0.06689000
C        -0.55709000        +0.71878000        +0.05493000
C        +0.74969000        -1.43776000        -0.09374000
C        +0.72843000        +1.48436000        +0.06598000
O        +1.53645000        -1.09176000        +0.94813000
O        +1.04702000        -2.28405000        -0.90088000
O        +1.53784000        +1.08301000        -0.93877000
O        +1.01035000        +2.37097000        +0.83478000
C        +2.83449000        +1.70121000        -0.99358000
C        +2.82316000        -1.73208000        +1.00475000
C        -1.74320000        -1.41616000        -0.12552000
C        -2.93952000        -0.70056000        -0.05285000
C        -2.95313000        +0.68255000        +0.06934000
C        -1.77161000        +1.42404000        +0.12810000
H        +2.73835000        +2.77989000        -1.12464000
H        +2.70778000        -2.81319000        +1.09555000
H        -3.90354000        +1.20325000        +0.11710000
H        +3.38998000        +1.50093000        -0.07544000
H        +3.33184000        +1.25269000        -1.85067000
H        +3.31095000        -1.32281000        +1.88650000
H        +3.39889000        -1.50934000        +0.10459000
H        -3.87892000        -1.24211000        -0.08988000
C        -1.83960000        +2.92746000        +0.24839000
H        -1.24214000        +3.42352000        -0.52065000
H        -1.45503000        +3.26427000        +1.21284000
H        -2.87211000        +3.26623000        +0.14638000
H        -1.73878000        -2.44393000        -0.21875000
--
0  1
C        -0.50866000        -1.13710000        +5.11318000
C        -0.52131000        +0.26538000        +5.23500000
C        +0.78547000        -1.89116000        +5.08633000
C        +0.76421000        +1.03096000        +5.24605000
O        +1.57223000        -1.54516000        +6.12820000
O        +1.08280000        -2.73745000        +4.27919000
O        +1.57362000        +0.62961000        +4.24130000
O        +1.04613000        +1.91757000        +6.01485000
C        +2.87027000        +1.24781000        +4.18649000
C        +2.85894000        -2.18548000        +6.18482000
C        -1.70742000        -1.86956000        +5.05455000
C        -2.90374000        -1.15396000        +5.12722000
C        -2.91735000        +0.22915000        +5.24941000
C        -1.73583000        +0.97064000        +5.30817000
H        +2.77413000        +2.32649000        +4.05543000
H        +2.74356000        -3.26659000        +6.27562000
H        -3.86776000        +0.74985000        +5.29717000
H        +3.42576000        +1.04753000        +5.10463000
H        +3.36762000        +0.79929000        +3.32940000
H        +3.34673000        -1.77621000        +7.06657000
H        +3.43467000        -1.96274000        +5.28466000
H        -3.84314000        -1.69551000        +5.09019000
C        -1.80382000        +2.47406000        +5.42846000
H        -1.20636000        +2.97012000        +4.65942000
H        -1.41925000        +2.81087000        +6.39291000
H        -2.83633000        +2.81283000        +5.32645000
H        -1.70300000        -2.89733000        +4.96132000
$end

$rem
JOBTYPE                   SP
METHOD                    B3LYP
DFT_D                     d3_op
BASIS                     6-311++G(d,p)
SYMMETRY                  False
THRESH                    12
SCF_CONVERGENCE           8
MAX_SUB_FILE_NUM          128
MEM_STATIC                400
MEM_TOTAL                 4000
$end
--------------------------------------------------------------

             Standard Nuclear Orientation (Angstroms)
    I     Atom           X                Y                Z
 ----------------------------------------------------------------
    1      C      -2.5577769543     0.2236363338     1.2230306039
    2      C      -2.6390316397     0.7239268565    -0.0903837840
    3      C      -2.4507788972    -1.2490696367     1.4755942656
    4      C      -2.7130787312    -0.2178858791    -1.2506864638
    5      O      -1.4543211553    -1.7968686573     0.7467674026
    6      O      -3.1219817887    -1.8724404738     2.2610765063
    7      O      -3.6337690421    -1.1822734103    -1.0315176381
    8      O      -2.0743236049    -0.1261393626    -2.2705806171
    9      C      -3.7515842327    -2.1894603374    -2.0504242448
   10      C      -1.2812247285    -3.2179931414     0.8856233660
   11      C      -2.5338766728     1.0922415166     2.3284330098
   12      C      -2.5881073888     2.4632467205     2.0716264842
   13      C      -2.6662311545     2.9578308548     0.7764847500
   14      C      -2.6916362022     2.1084814836    -0.3313103110
   15      H      -4.0381407349    -1.7390208552    -3.0017180005
   16      H      -1.0382728591    -3.4737938988     1.9180459433
   17      H      -2.7123116705     4.0299731349     0.6181301073
   18      H      -2.8035505377    -2.7159872078    -2.1755795319
   19      H      -4.5254744117    -2.8674998920    -1.6975973266
   20      H      -0.4581090050    -3.4748826014     0.2227414830
   21      H      -2.1926652297    -3.7426158360     0.5933676439
   22      H      -2.5652186683     3.1556356081     2.9066077524
   23      C      -2.7899878576     2.6950830414    -1.7189664590
   24      H      -3.6105481082     2.2526049994    -2.2893615450
   25      H      -1.8766438572     2.5157519349    -2.2891786605
   26      H      -2.9597102191     3.7716688962    -1.6606117653
   27      H      -2.4783414405     0.7298923321     3.2931306042
   28      C       2.6333873771     0.3879967291     0.9685202541
   29      C       2.5521326917     0.8882872518    -0.3448941338
   30      C       2.7403854342    -1.0847092414     1.2210839158
   31      C       2.4780856002    -0.0535254838    -1.5051968136
   32      O       3.7368431761    -1.6325082620     0.4922570529
   33      O       2.0691825427    -1.7080800785     2.0065661566
   34      O       1.5573952893    -1.0179130149    -1.2860279878
   35      O       3.1168407265     0.0382210327    -2.5250909668
   36      C       1.4395800987    -2.0250999421    -2.3049345946
   37      C       3.9099396029    -3.0536327461     0.6311130162
   38      C       2.6572876586     1.2566019119     2.0739226601
   39      C       2.6030569426     2.6276071158     1.8171161345
   40      C       2.5249331769     3.1221912501     0.5219744003
   41      C       2.4995281292     2.2728418789    -0.5858206608
   42      H       1.1530235965    -1.5746604599    -3.2562283502
   43      H       4.1528914723    -3.3094335035     1.6635355935
   44      H       2.4788526609     4.1943335302     0.3636197575
   45      H       2.3876137937    -2.5516268125    -2.4300898817
   46      H       0.6656899197    -2.7031394967    -1.9521076763
   47      H       4.7330553264    -3.3105222061    -0.0317688667
   48      H       2.9984991017    -3.5782554407     0.3388572941
   49      H       2.6259456631     3.3199960034     2.6520974027
   50      C       2.4011764739     2.8594434367    -1.9734768087
   51      H       1.5806162232     2.4169653947    -2.5438718948
   52      H       3.3145204742     2.6801123303    -2.5436890103
   53      H       2.2314541123     3.9360292915    -1.9151221151
   54      H       2.7128228909     0.8942527274     3.0386202545
 ----------------------------------------------------------------

   15   -1455.0928807977      6.37E-09 Convergence criterion met
 Total energy in the final basis set = -1455.09288080

                    Orbital Energies (a.u.)
 --------------------------------------------------------------

 Alpha MOs
 -- Occupied --
-19.177 -19.176 -19.172 -19.169 -19.120 -19.119 -19.116 -19.113
-10.312 -10.311 -10.308 -10.306 -10.233 -10.232 -10.228 -10.225
-10.208 -10.207 -10.205 -10.205 -10.204 -10.204 -10.191 -10.190
-10.189 -10.187 -10.187 -10.187 -10.173 -10.170  -1.120  -1.119
 -1.112  -1.109  -1.032  -1.030  -1.027  -1.024  -0.883  -0.883
 -0.799  -0.798  -0.792  -0.792  -0.744  -0.744  -0.729  -0.727
 -0.702  -0.701  -0.652  -0.651  -0.624  -0.624  -0.579  -0.577
 -0.574  -0.570  -0.547  -0.546  -0.519  -0.517  -0.511  -0.510
 -0.490  -0.490  -0.486  -0.485  -0.481  -0.478  -0.476  -0.474
 -0.469  -0.468  -0.445  -0.443  -0.434  -0.432  -0.430  -0.429
 -0.427  -0.424  -0.411  -0.409  -0.404  -0.402  -0.393  -0.393
 -0.382  -0.380  -0.376  -0.374  -0.368  -0.367  -0.363  -0.362
 -0.360  -0.358  -0.320  -0.319  -0.310  -0.308  -0.295  -0.294
 -0.291  -0.289  -0.267  -0.265  -0.262  -0.260

          Ground-State Mulliken Net Atomic Charges

     Atom                 Charge (a.u.)
  ----------------------------------------
      1 C                     0.416266
      2 C                     1.133834
      3 C                    -0.489037
      4 C                    -1.012526
      5 O                     0.112050
      6 O                    -0.176768
      7 O                     0.094193
      8 O                    -0.098644
      9 C                    -0.184121
     10 C                    -0.340154
     11 C                    -0.539054
     12 C                    -0.200193
     13 C                    -0.420606
     14 C                     0.200791
     15 H                     0.166414
     16 H                     0.204257
     17 H                     0.149250
     18 H                     0.179000
     19 H                     0.172690
     20 H                     0.097232
     21 H                     0.186387
     22 H                     0.183516
     23 C                    -0.545371
     24 H                     0.173977
     25 H                     0.191853
     26 H                     0.147069
     27 H                     0.193758
     28 C                     0.597134
     29 C                     0.872844
     30 C                    -0.884761
     31 C                    -0.750368
     32 O                     0.082169
     33 O                    -0.105428
     34 O                     0.102510
     35 O                    -0.150552
     36 C                    -0.324169
     37 C                    -0.172456
     38 C                    -0.534083
     39 C                    -0.192079
     40 C                    -0.494093
     41 C                     0.392361
     42 H                     0.197286
     43 H                     0.169804
     44 H                     0.149188
     45 H                     0.195566
     46 H                     0.104622
     47 H                     0.172716
     48 H                     0.173612
     49 H                     0.185331
     50 C                    -0.513676
     51 H                     0.200320
     52 H                     0.214293
     53 H                     0.135141
     54 H                     0.180705
  ----------------------------------------
  Sum of atomic charges =     0.000000

                    Cartesian Multipole Moments
 -----------------------------------------------------------------
    Charge (ESU x 10^10)
                 0.0000
    Dipole Moment (Debye)
         X       0.2533      Y       0.3688      Z      -0.8040
       Tot       0.9201
    Quadrupole Moments (Debye-Ang)
        XX    -182.5606     XY      -7.3287     YY    -144.6057
        XZ      16.9265     YZ      14.2257     ZZ    -180.3532

 Total job time:  1696.46s(wall), 3377.18s(cpu)
        *  Thank you very much for using Q-Chem.  Have a nice day.  *
