 Q-Chem 5.0, Q-Chem, Inc., Pleasanton, CA (2017)
 Q-Chem 5.0.1 for Intel X86 EM64T Linux

User input:
--------------------------------------------------------------
$molecule
0  1
--
0  1
C        -0.54444000        -0.68370000        -0.06689000
C        -0.55709000        +0.71878000        +0.05493000
C        +0.74969000        -1.43776000        -0.09374000
C        +0.72843000        +1.48436000        +0.06598000
O        +1.53645000        -1.09176000        +0.94813000
O        +1.04702000        -2.28405000        -0.90088000
O        +1.53784000        +1.08301000        -0.93877000
O        +1.01035000        +2.37097000        +0.83478000
C        +2.83449000        +1.70121000        -0.99358000
C        +2.82316000        -1.73208000        +1.00475000
C        -1.74320000        -1.41616000        -0.12552000
C        -2.93952000        -0.70056000        -0.05285000
C        -2.95313000        +0.68255000        +0.06934000
C        -1.77161000        +1.42404000        +0.12810000
H        +2.73835000        +2.77989000        -1.12464000
H        +2.70778000        -2.81319000        +1.09555000
H        -3.90354000        +1.20325000        +0.11710000
H        +3.38998000        +1.50093000        -0.07544000
H        +3.33184000        +1.25269000        -1.85067000
H        +3.31095000        -1.32281000        +1.88650000
H        +3.39889000        -1.50934000        +0.10459000
H        -3.87892000        -1.24211000        -0.08988000
C        -1.83960000        +2.92746000        +0.24839000
C        -1.78103000        -2.92226000        -0.24590000
H        -1.39752000        -3.25223000        -1.21323000
H        -2.80572000        -3.28175000        -0.13627000
H        -1.16958000        -3.40777000        +0.51926000
H        -1.24214000        +3.42352000        -0.52065000
H        -1.45503000        +3.26427000        +1.21284000
H        -2.87211000        +3.26623000        +0.14638000
--
0  1
C        -0.50866000        -1.13710000        +5.11318000
C        -0.52131000        +0.26538000        +5.23500000
C        +0.78547000        -1.89116000        +5.08633000
C        +0.76421000        +1.03096000        +5.24605000
O        +1.57223000        -1.54516000        +6.12820000
O        +1.08280000        -2.73745000        +4.27919000
O        +1.57362000        +0.62961000        +4.24130000
O        +1.04613000        +1.91757000        +6.01485000
C        +2.87027000        +1.24781000        +4.18649000
C        +2.85894000        -2.18548000        +6.18482000
C        -1.70742000        -1.86956000        +5.05455000
C        -2.90374000        -1.15396000        +5.12722000
C        -2.91735000        +0.22915000        +5.24941000
C        -1.73583000        +0.97064000        +5.30817000
H        +2.77413000        +2.32649000        +4.05543000
H        +2.74356000        -3.26659000        +6.27562000
H        -3.86776000        +0.74985000        +5.29717000
H        +3.42576000        +1.04753000        +5.10463000
H        +3.36762000        +0.79929000        +3.32940000
H        +3.34673000        -1.77621000        +7.06657000
H        +3.43467000        -1.96274000        +5.28466000
H        -3.84314000        -1.69551000        +5.09019000
C        -1.80382000        +2.47406000        +5.42846000
C        -1.74525000        -3.37566000        +4.93417000
H        -1.36174000        -3.70563000        +3.96684000
H        -2.76994000        -3.73515000        +5.04380000
H        -1.13380000        -3.86117000        +5.69933000
H        -1.20636000        +2.97012000        +4.65942000
H        -1.41925000        +2.81087000        +6.39291000
H        -2.83633000        +2.81283000        +5.32645000
$end

$rem
JOBTYPE                   SP
METHOD                    B3LYP
DFT_D                     d3_op
BASIS                     6-311++G(d,p)
SYMMETRY                  False
THRESH                    12
SCF_CONVERGENCE           8
MAX_SUB_FILE_NUM          128
MEM_STATIC                400
MEM_TOTAL                 4000
$end
--------------------------------------------------------------

             Standard Nuclear Orientation (Angstroms)
    I     Atom           X                Y                Z
 ----------------------------------------------------------------
    1      C      -2.5633241019     0.4931010584     0.8661473937
    2      C      -2.6480023175     0.5591674746    -0.5375673615
    3      C      -2.4646561025    -0.8280362021     1.5654047339
    4      C      -2.7341065334    -0.6970868474    -1.3457799893
    5      O      -1.4755218011    -1.5836614239     1.0411488302
    6      O      -3.1359029650    -1.1699142423     2.5080785522
    7      O      -3.6599437195    -1.5377190752    -0.8340067041
    8      O      -2.0999709117    -0.9331656070    -2.3451540189
    9      C      -3.7895208396    -2.8116164655    -1.4873609784
   10      C      -1.3110003499    -2.8917927962     1.6160950500
   11      C      -2.5281225700     1.6630646526     1.6451895660
   12      C      -2.5747105172     2.8858477936     0.9734926221
   13      C      -2.6562020679     2.9521706522    -0.4110900970
   14      C      -2.6927948111     1.7997657743    -1.1984106395
   15      H      -4.0779741904    -2.6783086309    -2.5309096602
   16      H      -1.0644662520    -2.8145311759     2.6760986335
   17      H      -2.6960893268     3.9216834863    -0.8960050862
   18      H      -2.8455942861    -3.3582759342    -1.4446015932
   19      H      -4.5660127576    -3.3396440350    -0.9383822283
   20      H      -0.4929671852    -3.3491155430     1.0641876971
   21      H      -2.2273232078    -3.4742995163     1.5047195260
   22      H      -2.5430486105     3.8040216920     1.5506184311
   23      C      -2.7943842777     1.9247960603    -2.6995472184
   24      C      -2.4274559207     1.6436682843     3.1530853416
   25      H      -3.3316457473     1.2318415233     3.6053318740
   26      H      -2.2783236404     2.6562366881     3.5321713264
   27      H      -1.5925082379     1.0280353386     3.4979321647
   28      H      -3.6207109486     1.3328262582    -3.1010599618
   29      H      -1.8851474961     1.5693713030    -3.1878714758
   30      H      -2.9567759759     2.9671192167    -2.9796176150
   31      C       2.6274383641     0.5293794564     0.5585017013
   32      C       2.5427601486     0.5954458726    -0.8452130538
   33      C       2.7261063635    -0.7917578041     1.2577590415
   34      C       2.4566559327    -0.6608084495    -1.6534256816
   35      O       3.7152406650    -1.5473830259     0.7335031379
   36      O       2.0548595010    -1.1336358443     2.2004328599
   37      O       1.5308187465    -1.5014406773    -1.1416523964
   38      O       3.0907915544    -0.8968872090    -2.6527997112
   39      C       1.4012416265    -2.7753380675    -1.7950066707
   40      C       3.8797621161    -2.8555143982     1.3084493577
   41      C       2.6626398961     1.6993430506     1.3375438737
   42      C       2.6160519489     2.9221261916     0.6658469297
   43      C       2.5345603982     2.9884490502    -0.7187357893
   44      C       2.4979676550     1.8360441723    -1.5060563318
   45      H       1.1127882756    -2.6420302329    -2.8385553525
   46      H       4.1262962140    -2.7782527779     2.3684529412
   47      H       2.4946731392     3.9579618843    -1.2036507786
   48      H       2.3451681799    -3.3219975362    -1.7522472855
   49      H       0.6247497084    -3.3033656370    -1.2460279206
   50      H       4.6977952809    -3.3128371450     0.7565420048
   51      H       2.9634392583    -3.4380211183     1.1970738337
   52      H       2.6477138556     3.8403000899     1.2429727388
   53      C       2.3963781884     1.9610744583    -3.0071929107
   54      C       2.7633065454     1.6799466823     2.8454396492
   55      H       1.8591167187     1.2681199213     3.2976861817
   56      H       2.9124388256     2.6925150860     3.2245256340
   57      H       3.5982542282     1.0643137366     3.1902864723
   58      H       1.5700515175     1.3691046562    -3.4087056542
   59      H       3.3056149699     1.6056497010    -3.4955171681
   60      H       2.2339864901     3.0033976147    -3.2872633073
 ----------------------------------------------------------------

   14   -1533.7588719834      9.27E-09 Convergence criterion met
 Total energy in the final basis set = -1533.75887198

                    Orbital Energies (a.u.)
 --------------------------------------------------------------

 Alpha MOs
 -- Occupied --
-19.175 -19.175 -19.170 -19.169 -19.118 -19.118 -19.114 -19.113
-10.310 -10.309 -10.306 -10.305 -10.232 -10.232 -10.227 -10.226
-10.202 -10.202 -10.202 -10.201 -10.198 -10.198 -10.198 -10.197
-10.184 -10.184 -10.183 -10.183 -10.170 -10.169 -10.167 -10.166
 -1.119  -1.118  -1.110  -1.109  -1.030  -1.030  -1.025  -1.024
 -0.882  -0.882  -0.804  -0.804  -0.793  -0.792  -0.744  -0.743
 -0.732  -0.731  -0.722  -0.721  -0.672  -0.672  -0.646  -0.646
 -0.618  -0.617  -0.575  -0.574  -0.562  -0.561  -0.534  -0.534
 -0.515  -0.514  -0.512  -0.511  -0.489  -0.489  -0.485  -0.484
 -0.478  -0.476  -0.474  -0.473  -0.467  -0.466  -0.441  -0.439
 -0.432  -0.431  -0.428  -0.425  -0.419  -0.417  -0.413  -0.413
 -0.409  -0.408  -0.403  -0.402  -0.393  -0.393  -0.385  -0.384
 -0.378  -0.377  -0.370  -0.369  -0.359  -0.359  -0.356  -0.355
 -0.354  -0.353  -0.319  -0.318  -0.309  -0.308  -0.292  -0.292
 -0.288  -0.287  -0.264  -0.262  -0.251  -0.249

          Ground-State Mulliken Net Atomic Charges

     Atom                 Charge (a.u.)
  ----------------------------------------
      1 C                     0.332166
      2 C                     0.389949
      3 C                    -0.557959
      4 C                    -0.821530
      5 O                     0.130480
      6 O                    -0.152489
      7 O                     0.085035
      8 O                    -0.098180
      9 C                    -0.167978
     10 C                    -0.313690
     11 C                     0.487728
     12 C                    -0.393906
     13 C                    -0.370370
     14 C                     0.392057
     15 H                     0.165959
     16 H                     0.193442
     17 H                     0.160795
     18 H                     0.175506
     19 H                     0.171881
     20 H                     0.099618
     21 H                     0.190579
     22 H                     0.157264
     23 C                    -0.648710
     24 C                    -0.652722
     25 H                     0.213966
     26 H                     0.130570
     27 H                     0.198282
     28 H                     0.173532
     29 H                     0.191569
     30 H                     0.138765
     31 C                     0.373493
     32 C                     0.343982
     33 C                    -0.858714
     34 C                    -0.540759
     35 O                     0.100160
     36 O                    -0.085941
     37 O                     0.106533
     38 O                    -0.152960
     39 C                    -0.318846
     40 C                    -0.162080
     41 C                     0.392593
     42 C                    -0.363848
     43 C                    -0.385601
     44 C                     0.492197
     45 H                     0.196864
     46 H                     0.164900
     47 H                     0.157150
     48 H                     0.194495
     49 H                     0.097681
     50 H                     0.170738
     51 H                     0.174671
     52 H                     0.161668
     53 C                    -0.647549
     54 C                    -0.658244
     55 H                     0.192229
     56 H                     0.139623
     57 H                     0.173710
     58 H                     0.197890
     59 H                     0.213004
     60 H                     0.129354
  ----------------------------------------
  Sum of atomic charges =     0.000000

                    Cartesian Multipole Moments
 -----------------------------------------------------------------
    Charge (ESU x 10^10)
                 0.0000
    Dipole Moment (Debye)
         X       0.1895      Y      -0.0892      Z       0.1820
       Tot       0.2775
    Quadrupole Moments (Debye-Ang)
        XX    -195.2199     XY      -1.4107     YY    -154.5055
        XZ      17.7857     YZ       1.7331     ZZ    -196.3741

 Total job time:  2294.75s(wall), 4567.68s(cpu)
        *  Thank you very much for using Q-Chem.  Have a nice day.  *
