 Q-Chem 5.0, Q-Chem, Inc., Pleasanton, CA (2017)
 Q-Chem 5.0.1 for Intel X86 EM64T Linux

User input:
--------------------------------------------------------------
$molecule
0  1
C        -0.54444000        -0.68370000        -0.06689000
C        -0.55709000        +0.71878000        +0.05493000
C        +0.74969000        -1.43776000        -0.09374000
C        +0.72843000        +1.48436000        +0.06598000
O        +1.53645000        -1.09176000        +0.94813000
O        +1.04702000        -2.28405000        -0.90088000
O        +1.53784000        +1.08301000        -0.93877000
O        +1.01035000        +2.37097000        +0.83478000
C        +2.83449000        +1.70121000        -0.99358000
C        +2.82316000        -1.73208000        +1.00475000
C        -1.74320000        -1.41616000        -0.12552000
C        -2.93952000        -0.70056000        -0.05285000
C        -2.95313000        +0.68255000        +0.06934000
C        -1.77161000        +1.42404000        +0.12810000
H        +2.73835000        +2.77989000        -1.12464000
H        +2.70778000        -2.81319000        +1.09555000
H        -3.90354000        +1.20325000        +0.11710000
H        +3.38998000        +1.50093000        -0.07544000
H        +3.33184000        +1.25269000        -1.85067000
H        +3.31095000        -1.32281000        +1.88650000
H        +3.39889000        -1.50934000        +0.10459000
H        -3.87892000        -1.24211000        -0.08988000
C        -1.83960000        +2.92746000        +0.24839000
C        -1.78103000        -2.92226000        -0.24590000
H        -1.39752000        -3.25223000        -1.21323000
H        -2.80572000        -3.28175000        -0.13627000
H        -1.16958000        -3.40777000        +0.51926000
H        -1.24214000        +3.42352000        -0.52065000
H        -1.45503000        +3.26427000        +1.21284000
H        -2.87211000        +3.26623000        +0.14638000
@C        -0.50866000        -1.13710000        +5.11318000
@C        -0.52131000        +0.26538000        +5.23500000
@C        +0.78547000        -1.89116000        +5.08633000
@C        +0.76421000        +1.03096000        +5.24605000
@O        +1.57223000        -1.54516000        +6.12820000
@O        +1.08280000        -2.73745000        +4.27919000
@O        +1.57362000        +0.62961000        +4.24130000
@O        +1.04613000        +1.91757000        +6.01485000
@C        +2.87027000        +1.24781000        +4.18649000
@C        +2.85894000        -2.18548000        +6.18482000
@C        -1.70742000        -1.86956000        +5.05455000
@C        -2.90374000        -1.15396000        +5.12722000
@C        -2.91735000        +0.22915000        +5.24941000
@C        -1.73583000        +0.97064000        +5.30817000
@H        +2.77413000        +2.32649000        +4.05543000
@H        +2.74356000        -3.26659000        +6.27562000
@H        -3.86776000        +0.74985000        +5.29717000
@H        +3.42576000        +1.04753000        +5.10463000
@H        +3.36762000        +0.79929000        +3.32940000
@H        +3.34673000        -1.77621000        +7.06657000
@H        +3.43467000        -1.96274000        +5.28466000
@H        -3.84314000        -1.69551000        +5.09019000
@C        -1.80382000        +2.47406000        +5.42846000
@C        -1.74525000        -3.37566000        +4.93417000
@H        -1.36174000        -3.70563000        +3.96684000
@H        -2.76994000        -3.73515000        +5.04380000
@H        -1.13380000        -3.86117000        +5.69933000
@H        -1.20636000        +2.97012000        +4.65942000
@H        -1.41925000        +2.81087000        +6.39291000
@H        -2.83633000        +2.81283000        +5.32645000
$end

$rem
JOBTYPE                   SP
METHOD                    B3LYP
DFT_D                     d3_op
BASIS                     6-311++G(d,p)
SYMMETRY                  False
THRESH                    12
SCF_CONVERGENCE           8
MAX_SUB_FILE_NUM          128
MEM_STATIC                400
MEM_TOTAL                 4000
$end
--------------------------------------------------------------

             Standard Nuclear Orientation (Angstroms)
    I     Atom           X                Y                Z
 ----------------------------------------------------------------
    1      C      -0.5444400000    -0.6837000000    -0.0668900000
    2      C      -0.5570900000     0.7187800000     0.0549300000
    3      C       0.7496900000    -1.4377600000    -0.0937400000
    4      C       0.7284300000     1.4843600000     0.0659800000
    5      O       1.5364500000    -1.0917600000     0.9481300000
    6      O       1.0470200000    -2.2840500000    -0.9008800000
    7      O       1.5378400000     1.0830100000    -0.9387700000
    8      O       1.0103500000     2.3709700000     0.8347800000
    9      C       2.8344900000     1.7012100000    -0.9935800000
   10      C       2.8231600000    -1.7320800000     1.0047500000
   11      C      -1.7432000000    -1.4161600000    -0.1255200000
   12      C      -2.9395200000    -0.7005600000    -0.0528500000
   13      C      -2.9531300000     0.6825500000     0.0693400000
   14      C      -1.7716100000     1.4240400000     0.1281000000
   15      H       2.7383500000     2.7798900000    -1.1246400000
   16      H       2.7077800000    -2.8131900000     1.0955500000
   17      H      -3.9035400000     1.2032500000     0.1171000000
   18      H       3.3899800000     1.5009300000    -0.0754400000
   19      H       3.3318400000     1.2526900000    -1.8506700000
   20      H       3.3109500000    -1.3228100000     1.8865000000
   21      H       3.3988900000    -1.5093400000     0.1045900000
   22      H      -3.8789200000    -1.2421100000    -0.0898800000
   23      C      -1.8396000000     2.9274600000     0.2483900000
   24      C      -1.7810300000    -2.9222600000    -0.2459000000
   25      H      -1.3975200000    -3.2522300000    -1.2132300000
   26      H      -2.8057200000    -3.2817500000    -0.1362700000
   27      H      -1.1695800000    -3.4077700000     0.5192600000
   28      H      -1.2421400000     3.4235200000    -0.5206500000
   29      H      -1.4550300000     3.2642700000     1.2128400000
   30      H      -2.8721100000     3.2662300000     0.1463800000
   31      GH     -0.5086600000    -1.1371000000     5.1131800000
   32      GH     -0.5213100000     0.2653800000     5.2350000000
   33      GH      0.7854700000    -1.8911600000     5.0863300000
   34      GH      0.7642100000     1.0309600000     5.2460500000
   35      GH      1.5722300000    -1.5451600000     6.1282000000
   36      GH      1.0828000000    -2.7374500000     4.2791900000
   37      GH      1.5736200000     0.6296100000     4.2413000000
   38      GH      1.0461300000     1.9175700000     6.0148500000
   39      GH      2.8702700000     1.2478100000     4.1864900000
   40      GH      2.8589400000    -2.1854800000     6.1848200000
   41      GH     -1.7074200000    -1.8695600000     5.0545500000
   42      GH     -2.9037400000    -1.1539600000     5.1272200000
   43      GH     -2.9173500000     0.2291500000     5.2494100000
   44      GH     -1.7358300000     0.9706400000     5.3081700000
   45      GH      2.7741300000     2.3264900000     4.0554300000
   46      GH      2.7435600000    -3.2665900000     6.2756200000
   47      GH     -3.8677600000     0.7498500000     5.2971700000
   48      GH      3.4257600000     1.0475300000     5.1046300000
   49      GH      3.3676200000     0.7992900000     3.3294000000
   50      GH      3.3467300000    -1.7762100000     7.0665700000
   51      GH      3.4346700000    -1.9627400000     5.2846600000
   52      GH     -3.8431400000    -1.6955100000     5.0901900000
   53      GH     -1.8038200000     2.4740600000     5.4284600000
   54      GH     -1.7452500000    -3.3756600000     4.9341700000
   55      GH     -1.3617400000    -3.7056300000     3.9668400000
   56      GH     -2.7699400000    -3.7351500000     5.0438000000
   57      GH     -1.1338000000    -3.8611700000     5.6993300000
   58      GH     -1.2063600000     2.9701200000     4.6594200000
   59      GH     -1.4192500000     2.8108700000     6.3929100000
   60      GH     -2.8363300000     2.8128300000     5.3264500000
 ----------------------------------------------------------------

   14    -766.8771527475      6.07E-09 Convergence criterion met
 Total energy in the final basis set = -766.87715275

                    Orbital Energies (a.u.)
 --------------------------------------------------------------

 Alpha MOs
 -- Occupied --
-19.176 -19.176 -19.119 -19.119 -10.311 -10.311 -10.232 -10.232
-10.205 -10.205 -10.201 -10.201 -10.187 -10.186 -10.171 -10.170
 -1.121  -1.114  -1.031  -1.030  -0.885  -0.807  -0.795  -0.747
 -0.734  -0.725  -0.675  -0.649  -0.620  -0.577  -0.565  -0.537
 -0.517  -0.515  -0.491  -0.489  -0.480  -0.477  -0.469  -0.442
 -0.434  -0.429  -0.420  -0.416  -0.411  -0.406  -0.396  -0.387
 -0.380  -0.373  -0.362  -0.359  -0.357  -0.321  -0.313  -0.293
 -0.292  -0.266  -0.253

          Ground-State Mulliken Net Atomic Charges

     Atom                 Charge (a.u.)
  ----------------------------------------
      1 C                     0.248858
      2 C                     0.448797
      3 C                    -0.516645
      4 C                    -0.850326
      5 O                     0.128911
      6 O                    -0.145867
      7 O                     0.081728
      8 O                    -0.085087
      9 C                    -0.168136
     10 C                    -0.331375
     11 C                     0.491072
     12 C                    -0.369611
     13 C                    -0.386512
     14 C                     0.371190
     15 H                     0.165848
     16 H                     0.190232
     17 H                     0.163566
     18 H                     0.178472
     19 H                     0.171362
     20 H                     0.103417
     21 H                     0.194297
     22 H                     0.161366
     23 C                    -0.649673
     24 C                    -0.641546
     25 H                     0.214734
     26 H                     0.132916
     27 H                     0.197581
     28 H                     0.173697
     29 H                     0.202316
     30 H                     0.139649
     31 GH                   -0.081116
     32 GH                    0.080085
     33 GH                    0.038710
     34 GH                   -0.056590
     35 GH                    0.000206
     36 GH                   -0.005789
     37 GH                   -0.014975
     38 GH                    0.000162
     39 GH                    0.004129
     40 GH                   -0.003542
     41 GH                    0.024449
     42 GH                    0.020517
     43 GH                   -0.020216
     44 GH                   -0.004686
     45 GH                   -0.001290
     46 GH                    0.000299
     47 GH                   -0.001501
     48 GH                    0.001229
     49 GH                    0.013917
     50 GH                   -0.000291
     51 GH                    0.002977
     52 GH                   -0.000064
     53 GH                   -0.004236
     54 GH                    0.001054
     55 GH                   -0.006341
     56 GH                   -0.000141
     57 GH                    0.000146
     58 GH                   -0.003457
     59 GH                   -0.000063
     60 GH                    0.001186
  ----------------------------------------
  Sum of atomic charges =     0.000000

                    Cartesian Multipole Moments
 -----------------------------------------------------------------
    Charge (ESU x 10^10)
                 0.0000
    Dipole Moment (Debye)
         X       0.0689      Y      -0.1068      Z       0.0787
       Tot       0.1495
    Quadrupole Moments (Debye-Ang)
        XX     -76.1731     XY      -0.0597     YY     -95.4355
        XZ       0.0774     YZ      -8.9384     ZZ     -99.5022

 Total job time:  2201.82s(wall), 4379.97s(cpu)
        *  Thank you very much for using Q-Chem.  Have a nice day.  *
