 Q-Chem 5.0, Q-Chem, Inc., Pleasanton, CA (2017)
 Q-Chem 5.0.1 for Intel X86 EM64T Linux

User input:
--------------------------------------------------------------
$molecule
0  1
C        +0.25191000        +2.69962000        +5.93581000
C        +0.65547000        +1.24121000        +6.34857000
C        -1.15279000        +2.88697000        +5.39363000
C        -0.34536000        +0.13831000        +6.07319000
O        -2.06251000        +2.44306000        +6.28952000
O        -1.44415000        +3.41413000        +4.35104000
O        -0.88443000        +0.22682000        +4.84366000
O        -0.59287000        -0.75403000        +6.84897000
C        -1.83213000        -0.79267000        +4.48426000
C        -3.44147000        +2.52966000        +5.88906000
C        +1.35929000        +3.05448000        +4.91495000
C        +2.65991000        +3.37174000        +5.67841000
C        +3.07257000        +1.94825000        +6.15286000
C        +1.97344000        +1.06175000        +5.50248000
O        +1.65761000        +1.79137000        +4.30610000
H        +0.30732000        +3.34260000        +6.81886000
H        +0.86844000        +1.17432000        +7.41394000
H        -2.65828000        -0.81203000        +5.19690000
H        -3.73155000        +3.56996000        +5.73392000
H        +3.40155000        +3.79256000        +4.99791000
H        +2.51157000        +4.07962000        +6.49637000
H        +4.05103000        +1.66468000        +5.76147000
H        +3.10280000        +1.84212000        +7.23914000
H        -2.18227000        -0.52291000        +3.49049000
H        -1.35141000        -1.77223000        +4.46890000
H        -4.00934000        +2.09097000        +6.70657000
H        -3.60199000        +1.97174000        +4.96491000
H        +1.06191000        +3.85417000        +4.26922000
H        +2.27260000        +0.03978000        +5.39772000
@C        +0.22270000        +1.04488000        +0.58595000
@C        +0.62626000        -0.41353000        +0.99871000
@C        -1.18200000        +1.23223000        +0.04377000
@C        -0.37457000        -1.51643000        +0.72333000
@O        -2.09172000        +0.78832000        +0.93966000
@O        -1.47336000        +1.75939000        -0.99882000
@O        -0.91364000        -1.42792000        -0.50620000
@O        -0.62208000        -2.40877000        +1.49911000
@C        -1.86134000        -2.44741000        -0.86560000
@C        -3.47068000        +0.87492000        +0.53920000
@C        +1.33008000        +1.39974000        -0.43491000
@C        +2.63070000        +1.71700000        +0.32855000
@C        +3.04336000        +0.29351000        +0.80300000
@C        +1.94423000        -0.59299000        +0.15262000
@O        +1.62840000        +0.13663000        -1.04376000
@H        +0.27811000        +1.68786000        +1.46900000
@H        +0.83923000        -0.48042000        +2.06408000
@H        -2.68749000        -2.46677000        -0.15296000
@H        -3.76076000        +1.91522000        +0.38406000
@H        +3.37234000        +2.13782000        -0.35195000
@H        +2.48236000        +2.42488000        +1.14651000
@H        +4.02182000        +0.00994000        +0.41161000
@H        +3.07359000        +0.18738000        +1.88928000
@H        -2.21148000        -2.17765000        -1.85937000
@H        -1.38062000        -3.42697000        -0.88096000
@H        -4.03855000        +0.43623000        +1.35671000
@H        -3.63120000        +0.31700000        -0.38495000
@H        +1.03270000        +2.19943000        -1.08064000
@H        +2.24339000        -1.61496000        +0.04786000
$end

$rem
JOBTYPE                   SP
METHOD                    B3LYP
DFT_D                     d3_op
BASIS                     6-311++G(d,p)
SYMMETRY                  False
THRESH                    12
SCF_CONVERGENCE           8
MAX_SUB_FILE_NUM          128
MEM_STATIC                400
MEM_TOTAL                 4000
$end
--------------------------------------------------------------

             Standard Nuclear Orientation (Angstroms)
    I     Atom           X                Y                Z
 ----------------------------------------------------------------
    1      C       0.2519100000     2.6996200000     5.9358100000
    2      C       0.6554700000     1.2412100000     6.3485700000
    3      C      -1.1527900000     2.8869700000     5.3936300000
    4      C      -0.3453600000     0.1383100000     6.0731900000
    5      O      -2.0625100000     2.4430600000     6.2895200000
    6      O      -1.4441500000     3.4141300000     4.3510400000
    7      O      -0.8844300000     0.2268200000     4.8436600000
    8      O      -0.5928700000    -0.7540300000     6.8489700000
    9      C      -1.8321300000    -0.7926700000     4.4842600000
   10      C      -3.4414700000     2.5296600000     5.8890600000
   11      C       1.3592900000     3.0544800000     4.9149500000
   12      C       2.6599100000     3.3717400000     5.6784100000
   13      C       3.0725700000     1.9482500000     6.1528600000
   14      C       1.9734400000     1.0617500000     5.5024800000
   15      O       1.6576100000     1.7913700000     4.3061000000
   16      H       0.3073200000     3.3426000000     6.8188600000
   17      H       0.8684400000     1.1743200000     7.4139400000
   18      H      -2.6582800000    -0.8120300000     5.1969000000
   19      H      -3.7315500000     3.5699600000     5.7339200000
   20      H       3.4015500000     3.7925600000     4.9979100000
   21      H       2.5115700000     4.0796200000     6.4963700000
   22      H       4.0510300000     1.6646800000     5.7614700000
   23      H       3.1028000000     1.8421200000     7.2391400000
   24      H      -2.1822700000    -0.5229100000     3.4904900000
   25      H      -1.3514100000    -1.7722300000     4.4689000000
   26      H      -4.0093400000     2.0909700000     6.7065700000
   27      H      -3.6019900000     1.9717400000     4.9649100000
   28      H       1.0619100000     3.8541700000     4.2692200000
   29      H       2.2726000000     0.0397800000     5.3977200000
   30      GH      0.2227000000     1.0448800000     0.5859500000
   31      GH      0.6262600000    -0.4135300000     0.9987100000
   32      GH     -1.1820000000     1.2322300000     0.0437700000
   33      GH     -0.3745700000    -1.5164300000     0.7233300000
   34      GH     -2.0917200000     0.7883200000     0.9396600000
   35      GH     -1.4733600000     1.7593900000    -0.9988200000
   36      GH     -0.9136400000    -1.4279200000    -0.5062000000
   37      GH     -0.6220800000    -2.4087700000     1.4991100000
   38      GH     -1.8613400000    -2.4474100000    -0.8656000000
   39      GH     -3.4706800000     0.8749200000     0.5392000000
   40      GH      1.3300800000     1.3997400000    -0.4349100000
   41      GH      2.6307000000     1.7170000000     0.3285500000
   42      GH      3.0433600000     0.2935100000     0.8030000000
   43      GH      1.9442300000    -0.5929900000     0.1526200000
   44      GH      1.6284000000     0.1366300000    -1.0437600000
   45      GH      0.2781100000     1.6878600000     1.4690000000
   46      GH      0.8392300000    -0.4804200000     2.0640800000
   47      GH     -2.6874900000    -2.4667700000    -0.1529600000
   48      GH     -3.7607600000     1.9152200000     0.3840600000
   49      GH      3.3723400000     2.1378200000    -0.3519500000
   50      GH      2.4823600000     2.4248800000     1.1465100000
   51      GH      4.0218200000     0.0099400000     0.4116100000
   52      GH      3.0735900000     0.1873800000     1.8892800000
   53      GH     -2.2114800000    -2.1776500000    -1.8593700000
   54      GH     -1.3806200000    -3.4269700000    -0.8809600000
   55      GH     -4.0385500000     0.4362300000     1.3567100000
   56      GH     -3.6312000000     0.3170000000    -0.3849500000
   57      GH      1.0327000000     2.1994300000    -1.0806400000
   58      GH      2.2433900000    -1.6149600000     0.0478600000
 ----------------------------------------------------------------

   14    -765.8588199299      6.74E-09 Convergence criterion met
 Total energy in the final basis set = -765.85881993

                    Orbital Energies (a.u.)
 --------------------------------------------------------------

 Alpha MOs
 -- Occupied --
-19.176 -19.174 -19.136 -19.120 -19.116 -10.310 -10.306 -10.242
-10.232 -10.232 -10.230 -10.207 -10.206 -10.182 -10.180  -1.120
 -1.113  -1.065  -1.031  -1.028  -0.833  -0.785  -0.778  -0.740
 -0.729  -0.659  -0.610  -0.596  -0.580  -0.567  -0.551  -0.520
 -0.506  -0.496  -0.489  -0.484  -0.475  -0.473  -0.462  -0.439
 -0.427  -0.425  -0.418  -0.399  -0.385  -0.376  -0.371  -0.369
 -0.362  -0.356  -0.337  -0.334  -0.320  -0.313  -0.290  -0.282
 -0.276

          Ground-State Mulliken Net Atomic Charges

     Atom                 Charge (a.u.)
  ----------------------------------------
      1 C                    -0.052605
      2 C                     0.270608
      3 C                    -0.479826
      4 C                    -0.543075
      5 O                     0.015907
      6 O                    -0.125153
      7 O                    -0.003151
      8 O                    -0.151332
      9 C                    -0.324700
     10 C                    -0.162101
     11 C                    -0.148592
     12 C                    -0.625312
     13 C                    -0.466129
     14 C                    -0.096636
     15 O                     0.160088
     16 H                     0.243638
     17 H                     0.285325
     18 H                     0.220428
     19 H                     0.169918
     20 H                     0.185080
     21 H                     0.132752
     22 H                     0.180004
     23 H                     0.128148
     24 H                     0.116755
     25 H                     0.195101
     26 H                     0.165893
     27 H                     0.182294
     28 H                     0.267753
     29 H                     0.254942
     30 GH                   -0.104076
     31 GH                    0.087157
     32 GH                   -0.019587
     33 GH                   -0.015484
     34 GH                    0.002632
     35 GH                    0.000112
     36 GH                    0.000582
     37 GH                   -0.001261
     38 GH                    0.000562
     39 GH                    0.008533
     40 GH                   -0.024634
     41 GH                    0.022823
     42 GH                   -0.016521
     43 GH                    0.024645
     44 GH                    0.000442
     45 GH                    0.022050
     46 GH                    0.013988
     47 GH                    0.000767
     48 GH                   -0.000429
     49 GH                   -0.001302
     50 GH                   -0.000149
     51 GH                   -0.001117
     52 GH                   -0.001669
     53 GH                    0.000057
     54 GH                   -0.000202
     55 GH                    0.004194
     56 GH                    0.000420
     57 GH                    0.000859
     58 GH                    0.000587
  ----------------------------------------
  Sum of atomic charges =     0.000000

                    Cartesian Multipole Moments
 -----------------------------------------------------------------
    Charge (ESU x 10^10)
                 0.0000
    Dipole Moment (Debye)
         X      -0.0128      Y       0.7291      Z       1.2079
       Tot       1.4109
    Quadrupole Moments (Debye-Ang)
        XX     -75.1748     XY       2.9510     YY     -87.2915
        XZ       3.3127     YZ      16.5852     ZZ     -82.9303

 Total job time:  6494.75s(wall), 6479.31s(cpu)
        *  Thank you very much for using Q-Chem.  Have a nice day.  *
