 Q-Chem 5.0, Q-Chem, Inc., Pleasanton, CA (2017)
 Q-Chem 5.0.1 for Intel X86 EM64T Linux

User input:
--------------------------------------------------------------
$molecule
0  1
--
0  1
C        +0.22270000        +1.04488000        +0.58595000
C        +0.62626000        -0.41353000        +0.99871000
C        -1.18200000        +1.23223000        +0.04377000
C        -0.37457000        -1.51643000        +0.72333000
O        -2.09172000        +0.78832000        +0.93966000
O        -1.47336000        +1.75939000        -0.99882000
O        -0.91364000        -1.42792000        -0.50620000
O        -0.62208000        -2.40877000        +1.49911000
C        -1.86134000        -2.44741000        -0.86560000
C        -3.47068000        +0.87492000        +0.53920000
C        +1.33008000        +1.39974000        -0.43491000
C        +2.63070000        +1.71700000        +0.32855000
C        +3.04336000        +0.29351000        +0.80300000
C        +1.94423000        -0.59299000        +0.15262000
O        +1.62840000        +0.13663000        -1.04376000
H        +0.27811000        +1.68786000        +1.46900000
H        +0.83923000        -0.48042000        +2.06408000
H        -2.68749000        -2.46677000        -0.15296000
H        -3.76076000        +1.91522000        +0.38406000
H        +3.37234000        +2.13782000        -0.35195000
H        +2.48236000        +2.42488000        +1.14651000
H        +4.02182000        +0.00994000        +0.41161000
H        +3.07359000        +0.18738000        +1.88928000
H        -2.21148000        -2.17765000        -1.85937000
H        -1.38062000        -3.42697000        -0.88096000
H        -4.03855000        +0.43623000        +1.35671000
H        -3.63120000        +0.31700000        -0.38495000
H        +1.03270000        +2.19943000        -1.08064000
H        +2.24339000        -1.61496000        +0.04786000
--
0  1
C        +0.25191000        +2.69962000        +5.93581000
C        +0.65547000        +1.24121000        +6.34857000
C        -1.15279000        +2.88697000        +5.39363000
C        -0.34536000        +0.13831000        +6.07319000
O        -2.06251000        +2.44306000        +6.28952000
O        -1.44415000        +3.41413000        +4.35104000
O        -0.88443000        +0.22682000        +4.84366000
O        -0.59287000        -0.75403000        +6.84897000
C        -1.83213000        -0.79267000        +4.48426000
C        -3.44147000        +2.52966000        +5.88906000
C        +1.35929000        +3.05448000        +4.91495000
C        +2.65991000        +3.37174000        +5.67841000
C        +3.07257000        +1.94825000        +6.15286000
C        +1.97344000        +1.06175000        +5.50248000
O        +1.65761000        +1.79137000        +4.30610000
H        +0.30732000        +3.34260000        +6.81886000
H        +0.86844000        +1.17432000        +7.41394000
H        -2.65828000        -0.81203000        +5.19690000
H        -3.73155000        +3.56996000        +5.73392000
H        +3.40155000        +3.79256000        +4.99791000
H        +2.51157000        +4.07962000        +6.49637000
H        +4.05103000        +1.66468000        +5.76147000
H        +3.10280000        +1.84212000        +7.23914000
H        -2.18227000        -0.52291000        +3.49049000
H        -1.35141000        -1.77223000        +4.46890000
H        -4.00934000        +2.09097000        +6.70657000
H        -3.60199000        +1.97174000        +4.96491000
H        +1.06191000        +3.85417000        +4.26922000
H        +2.27260000        +0.03978000        +5.39772000
$end

$rem
JOBTYPE                   SP
METHOD                    B3LYP
DFT_D                     d3_op
BASIS                     6-311++G(d,p)
SYMMETRY                  False
THRESH                    12
SCF_CONVERGENCE           8
MAX_SUB_FILE_NUM          128
MEM_STATIC                400
MEM_TOTAL                 4000
$end
--------------------------------------------------------------

             Standard Nuclear Orientation (Angstroms)
    I     Atom           X                Y                Z
 ----------------------------------------------------------------
    1      C      -2.0396366402     0.6105029372     0.8629374584
    2      C      -2.1308094037     0.6936010463    -0.7007036291
    3      C      -2.5617448135    -0.6606466296     1.5062282941
    4      C      -2.8232032588    -0.4461894580    -1.4185835626
    5      O      -1.9246951028    -1.7382276742     0.9960790837
    6      O      -3.3745177420    -0.7226968994     2.3924179769
    7      O      -3.9755859393    -0.8052567271    -0.8242273060
    8      O      -2.4158892020    -0.9424620446    -2.4418993805
    9      C      -4.7151730610    -1.8679604394    -1.4489954385
   10      C      -2.3470792440    -3.0196654405     1.4949852287
   11      C      -2.8134390294     1.8805587718     1.2902070022
   12      C      -1.9164347976     3.1128265273     1.0620906926
   13      C      -1.9372750307     3.2034379615    -0.4913152785
   14      C      -2.9124510141     2.0524483778    -0.8671050213
   15      O      -3.8012818723     2.0215479894     0.2609215339
   16      H      -0.9879069017     0.6704991838     1.1571072368
   17      H      -1.1430454820     0.7583875103    -1.1534385174
   18      H      -4.0995650719    -2.7656909457    -1.5255535439
   19      H      -2.1515734782    -3.0982563364     2.5655177516
   20      H      -2.3688027616     3.9956798337     1.5161092786
   21      H      -0.9147801071     2.9935017633     1.4799505891
   22      H      -2.3471966894     4.1562845048    -0.8304756348
   23      H      -0.9535315425     3.0802548534    -0.9487607283
   24      H      -5.5737928301    -2.0393019342    -0.8037346583
   25      H      -5.0390945111    -1.5714326766    -2.4480007547
   26      H      -1.7627272717    -3.7529363227     0.9435376439
   27      H      -3.4139888766    -3.1620461403     1.3146350374
   28      H      -3.1609049171     1.8123534445     2.2999206663
   29      H      -3.3448417535     2.1751775534    -1.8381198729
   30      C       3.5459947426     0.2752539307     0.6430514193
   31      C       3.4548219791     0.3583520398    -0.9205896683
   32      C       3.0238865693    -0.9958956361     1.2863422549
   33      C       2.7624281240    -0.7814384645    -1.6384696018
   34      O       3.6609362801    -2.0734766807     0.7761930445
   35      O       2.2111136408    -1.0579459059     2.1725319378
   36      O       1.6100454435    -1.1405057336    -1.0441133451
   37      O       3.1697421808    -1.2777110511    -2.6617854196
   38      C       0.8704583218    -2.2032094459    -1.6688814777
   39      C       3.2385521388    -3.3549144470     1.2750991895
   40      C       2.7721923535     1.5453097653     1.0703209630
   41      C       3.6691965852     2.7775775208     0.8422046534
   42      C       3.6483563521     2.8681889550    -0.7112013177
   43      C       2.6731803687     1.7171993713    -1.0869910605
   44      O       1.7843495105     1.6862989829     0.0410354947
   45      H       4.5977244812     0.3352501773     0.9372211976
   46      H       4.4425859008     0.4231385038    -1.3733245566
   47      H       1.4860663109    -3.1009399522    -1.7454395831
   48      H       3.4340579046    -3.4335053429     2.3456317124
   49      H       3.2168286212     3.6604308272     1.2962232394
   50      H       4.6708512758     2.6582527569     1.2600645500
   51      H       3.2384346935     3.8210354983    -1.0503616740
   52      H       4.6320998403     2.7450058470    -1.1686467675
   53      H       0.0118385527    -2.3745509407    -1.0236206975
   54      H       0.5465368717    -1.9066816831    -2.6678867938
   55      H       3.8229041111    -4.0881853292     0.7236516047
   56      H       2.1716425062    -3.4972951468     1.0947489982
   57      H       2.4247264658     1.4771044381     2.0800346271
   58      H       2.2407896294     1.8399285469    -2.0580059121
 ----------------------------------------------------------------

   15   -1531.7276565598      5.30E-09 Convergence criterion met
 Total energy in the final basis set = -1531.72765656

                    Orbital Energies (a.u.)
 --------------------------------------------------------------

 Alpha MOs
 -- Occupied --
-19.179 -19.172 -19.171 -19.170 -19.145 -19.128 -19.124 -19.116
-19.114 -19.113 -10.314 -10.306 -10.303 -10.303 -10.248 -10.239
-10.235 -10.235 -10.229 -10.228 -10.222 -10.221 -10.211 -10.210
-10.198 -10.195 -10.188 -10.186 -10.173 -10.170  -1.122  -1.116
 -1.113  -1.109  -1.074  -1.057  -1.035  -1.027  -1.025  -1.025
 -0.838  -0.824  -0.790  -0.783  -0.777  -0.770  -0.742  -0.735
 -0.728  -0.725  -0.662  -0.651  -0.615  -0.603  -0.602  -0.587
 -0.583  -0.574  -0.568  -0.562  -0.554  -0.545  -0.523  -0.512
 -0.509  -0.501  -0.500  -0.491  -0.489  -0.486  -0.483  -0.479
 -0.476  -0.474  -0.472  -0.467  -0.465  -0.454  -0.444  -0.433
 -0.429  -0.426  -0.422  -0.419  -0.419  -0.412  -0.400  -0.395
 -0.389  -0.377  -0.376  -0.375  -0.374  -0.371  -0.366  -0.364
 -0.360  -0.360  -0.355  -0.347  -0.342  -0.341  -0.329  -0.326
 -0.323  -0.316  -0.312  -0.309  -0.294  -0.287  -0.284  -0.281
 -0.277  -0.268

          Ground-State Mulliken Net Atomic Charges

     Atom                 Charge (a.u.)
  ----------------------------------------
      1 C                    -0.097446
      2 C                     0.841672
      3 C                    -0.590035
      4 C                    -0.797881
      5 O                     0.036897
      6 O                    -0.184636
      7 O                     0.012517
      8 O                    -0.132083
      9 C                    -0.197382
     10 C                    -0.243619
     11 C                    -0.419101
     12 C                    -0.263243
     13 C                    -0.430950
     14 C                    -0.181449
     15 O                    -0.087764
     16 H                     0.222057
     17 H                     0.355869
     18 H                     0.185454
     19 H                     0.187771
     20 H                     0.200645
     21 H                     0.113230
     22 H                     0.193258
     23 H                     0.090257
     24 H                     0.173435
     25 H                     0.174851
     26 H                     0.130336
     27 H                     0.185116
     28 H                     0.281569
     29 H                     0.263125
     30 C                    -0.039509
     31 C                     0.278817
     32 C                    -0.449236
     33 C                    -0.546172
     34 O                     0.017391
     35 O                    -0.131563
     36 O                    -0.011656
     37 O                    -0.148493
     38 C                    -0.337544
     39 C                    -0.165939
     40 C                    -0.185015
     41 C                    -0.625805
     42 C                    -0.465789
     43 C                    -0.116869
     44 O                     0.145248
     45 H                     0.246607
     46 H                     0.288192
     47 H                     0.211517
     48 H                     0.169905
     49 H                     0.183468
     50 H                     0.136387
     51 H                     0.179716
     52 H                     0.131649
     53 H                     0.124986
     54 H                     0.211538
     55 H                     0.167221
     56 H                     0.181476
     57 H                     0.270404
     58 H                     0.256601
  ----------------------------------------
  Sum of atomic charges =     0.000000

                    Cartesian Multipole Moments
 -----------------------------------------------------------------
    Charge (ESU x 10^10)
                 0.0000
    Dipole Moment (Debye)
         X       3.2173      Y      -0.0324      Z       0.5900
       Tot       3.2712
    Quadrupole Moments (Debye-Ang)
        XX    -177.1707     XY      14.4014     YY    -153.6110
        XZ      17.5038     YZ      -6.8372     ZZ    -193.4394

 Total job time:  7166.22s(wall), 7149.17s(cpu)
        *  Thank you very much for using Q-Chem.  Have a nice day.  *
