 Q-Chem 5.0, Q-Chem, Inc., Pleasanton, CA (2017)
 Q-Chem 5.0.1 for Intel X86 EM64T Linux

User input:
--------------------------------------------------------------
$molecule
0  1
C        -0.54444000        -0.68370000        -0.06689000
C        -0.55709000        +0.71878000        +0.05493000
C        +0.74969000        -1.43776000        -0.09374000
C        +0.72843000        +1.48436000        +0.06598000
O        +1.53645000        -1.09176000        +0.94813000
O        +1.04702000        -2.28405000        -0.90088000
O        +1.53784000        +1.08301000        -0.93877000
O        +1.01035000        +2.37097000        +0.83478000
C        +2.83449000        +1.70121000        -0.99358000
C        +2.82316000        -1.73208000        +1.00475000
C        -1.74320000        -1.41616000        -0.12552000
C        -2.93952000        -0.70056000        -0.05285000
C        -2.95313000        +0.68255000        +0.06934000
C        -1.77161000        +1.42404000        +0.12810000
H        +2.73835000        +2.77989000        -1.12464000
H        +2.70778000        -2.81319000        +1.09555000
H        -3.90354000        +1.20325000        +0.11710000
H        +3.38998000        +1.50093000        -0.07544000
H        +3.33184000        +1.25269000        -1.85067000
H        +3.31095000        -1.32281000        +1.88650000
H        +3.39889000        -1.50934000        +0.10459000
H        -3.87892000        -1.24211000        -0.08988000
H        -1.78886000        +2.45164000        +0.22176000
H        -1.73878000        -2.44393000        -0.21875000
@C        -0.50590000        -1.17197000        +5.51165000
@C        -0.51855000        +0.23051000        +5.63347000
@C        +0.78823000        -1.92603000        +5.48480000
@C        +0.76697000        +0.99609000        +5.64452000
@O        +1.57499000        -1.58003000        +6.52667000
@O        +1.08556000        -2.77232000        +4.67766000
@O        +1.57638000        +0.59474000        +4.63977000
@O        +1.04889000        +1.88270000        +6.41332000
@C        +2.87303000        +1.21294000        +4.58496000
@C        +2.86170000        -2.22035000        +6.58329000
@C        -1.70466000        -1.90443000        +5.45302000
@C        -2.90098000        -1.18883000        +5.52569000
@C        -2.91459000        +0.19428000        +5.64788000
@C        -1.73307000        +0.93577000        +5.70664000
@H        +2.77689000        +2.29162000        +4.45390000
@H        +2.74632000        -3.30146000        +6.67409000
@H        -3.86500000        +0.71498000        +5.69564000
@H        +3.42852000        +1.01266000        +5.50310000
@H        +3.37038000        +0.76442000        +3.72787000
@H        +3.34949000        -1.81108000        +7.46504000
@H        +3.43743000        -1.99761000        +5.68313000
@H        -3.84038000        -1.73038000        +5.48866000
@H        -1.75032000        +1.96337000        +5.80030000
@H        -1.70024000        -2.93220000        +5.35979000
$end

$rem
JOBTYPE                   SP
METHOD                    B3LYP
DFT_D                     d3_op
BASIS                     6-311++G(d,p)
SYMMETRY                  False
THRESH                    12
SCF_CONVERGENCE           8
MAX_SUB_FILE_NUM          128
MEM_STATIC                400
MEM_TOTAL                 4000
$end
--------------------------------------------------------------

             Standard Nuclear Orientation (Angstroms)
    I     Atom           X                Y                Z
 ----------------------------------------------------------------
    1      C      -0.5444400000    -0.6837000000    -0.0668900000
    2      C      -0.5570900000     0.7187800000     0.0549300000
    3      C       0.7496900000    -1.4377600000    -0.0937400000
    4      C       0.7284300000     1.4843600000     0.0659800000
    5      O       1.5364500000    -1.0917600000     0.9481300000
    6      O       1.0470200000    -2.2840500000    -0.9008800000
    7      O       1.5378400000     1.0830100000    -0.9387700000
    8      O       1.0103500000     2.3709700000     0.8347800000
    9      C       2.8344900000     1.7012100000    -0.9935800000
   10      C       2.8231600000    -1.7320800000     1.0047500000
   11      C      -1.7432000000    -1.4161600000    -0.1255200000
   12      C      -2.9395200000    -0.7005600000    -0.0528500000
   13      C      -2.9531300000     0.6825500000     0.0693400000
   14      C      -1.7716100000     1.4240400000     0.1281000000
   15      H       2.7383500000     2.7798900000    -1.1246400000
   16      H       2.7077800000    -2.8131900000     1.0955500000
   17      H      -3.9035400000     1.2032500000     0.1171000000
   18      H       3.3899800000     1.5009300000    -0.0754400000
   19      H       3.3318400000     1.2526900000    -1.8506700000
   20      H       3.3109500000    -1.3228100000     1.8865000000
   21      H       3.3988900000    -1.5093400000     0.1045900000
   22      H      -3.8789200000    -1.2421100000    -0.0898800000
   23      H      -1.7888600000     2.4516400000     0.2217600000
   24      H      -1.7387800000    -2.4439300000    -0.2187500000
   25      GH     -0.5059000000    -1.1719700000     5.5116500000
   26      GH     -0.5185500000     0.2305100000     5.6334700000
   27      GH      0.7882300000    -1.9260300000     5.4848000000
   28      GH      0.7669700000     0.9960900000     5.6445200000
   29      GH      1.5749900000    -1.5800300000     6.5266700000
   30      GH      1.0855600000    -2.7723200000     4.6776600000
   31      GH      1.5763800000     0.5947400000     4.6397700000
   32      GH      1.0488900000     1.8827000000     6.4133200000
   33      GH      2.8730300000     1.2129400000     4.5849600000
   34      GH      2.8617000000    -2.2203500000     6.5832900000
   35      GH     -1.7046600000    -1.9044300000     5.4530200000
   36      GH     -2.9009800000    -1.1888300000     5.5256900000
   37      GH     -2.9145900000     0.1942800000     5.6478800000
   38      GH     -1.7330700000     0.9357700000     5.7066400000
   39      GH      2.7768900000     2.2916200000     4.4539000000
   40      GH      2.7463200000    -3.3014600000     6.6740900000
   41      GH     -3.8650000000     0.7149800000     5.6956400000
   42      GH      3.4285200000     1.0126600000     5.5031000000
   43      GH      3.3703800000     0.7644200000     3.7278700000
   44      GH      3.3494900000    -1.8110800000     7.4650400000
   45      GH      3.4374300000    -1.9976100000     5.6831300000
   46      GH     -3.8403800000    -1.7303800000     5.4886600000
   47      GH     -1.7503200000     1.9633700000     5.8003000000
   48      GH     -1.7002400000    -2.9322000000     5.3597900000
 ----------------------------------------------------------------

   14    -688.2109297582      5.70E-09 Convergence criterion met
 Total energy in the final basis set = -688.21092976

                    Orbital Energies (a.u.)
 --------------------------------------------------------------

 Alpha MOs
 -- Occupied --
-19.178 -19.178 -19.122 -19.122 -10.314 -10.314 -10.233 -10.233
-10.215 -10.214 -10.198 -10.198 -10.197 -10.197  -1.123  -1.117
 -1.033  -1.032  -0.887  -0.800  -0.787  -0.744  -0.733  -0.656
 -0.646  -0.596  -0.579  -0.555  -0.524  -0.516  -0.493  -0.492
 -0.485  -0.479  -0.472  -0.468  -0.440  -0.431  -0.416  -0.408
 -0.389  -0.387  -0.384  -0.369  -0.366  -0.324  -0.315  -0.301
 -0.297  -0.275  -0.272

          Ground-State Mulliken Net Atomic Charges

     Atom                 Charge (a.u.)
  ----------------------------------------
      1 C                     0.780594
      2 C                     0.988453
      3 C                    -0.680537
      4 C                    -0.881827
      5 O                     0.085470
      6 O                    -0.178613
      7 O                     0.056436
      8 O                    -0.123280
      9 C                    -0.191235
     10 C                    -0.332652
     11 C                    -0.412720
     12 C                    -0.236803
     13 C                    -0.191226
     14 C                    -0.450262
     15 H                     0.170970
     16 H                     0.192472
     17 H                     0.183444
     18 H                     0.177263
     19 H                     0.172231
     20 H                     0.119200
     21 H                     0.189316
     22 H                     0.181163
     23 H                     0.188598
     24 H                     0.196826
     25 GH                   -0.048565
     26 GH                    0.064624
     27 GH                    0.020319
     28 GH                   -0.019852
     29 GH                    0.000030
     30 GH                   -0.001185
     31 GH                   -0.004089
     32 GH                   -0.000036
     33 GH                   -0.005696
     34 GH                   -0.002571
     35 GH                   -0.003499
     36 GH                   -0.012243
     37 GH                    0.009231
     38 GH                   -0.009145
     39 GH                   -0.000421
     40 GH                    0.000148
     41 GH                    0.000067
     42 GH                    0.000435
     43 GH                    0.009560
     44 GH                   -0.000128
     45 GH                    0.001601
     46 GH                   -0.000674
     47 GH                   -0.001768
     48 GH                    0.000574
  ----------------------------------------
  Sum of atomic charges =     0.000000

                    Cartesian Multipole Moments
 -----------------------------------------------------------------
    Charge (ESU x 10^10)
                -0.0000
    Dipole Moment (Debye)
         X      -0.0469      Y      -0.1154      Z       0.0796
       Tot       0.1478
    Quadrupole Moments (Debye-Ang)
        XX     -61.3162     XY      -0.0453     YY     -84.3209
        XZ       0.0705     YZ      -9.7190     ZZ     -87.0498

 Total job time:  1105.54s(wall), 2194.59s(cpu)
        *  Thank you very much for using Q-Chem.  Have a nice day.  *
