 Q-Chem 5.0, Q-Chem, Inc., Pleasanton, CA (2017)
 Q-Chem 5.0.1 for Intel X86 EM64T Linux

User input:
--------------------------------------------------------------
$molecule
0  1
--
0  1
C        -0.54444000        -0.68370000        -0.06689000
C        -0.55709000        +0.71878000        +0.05493000
C        +0.74969000        -1.43776000        -0.09374000
C        +0.72843000        +1.48436000        +0.06598000
O        +1.53645000        -1.09176000        +0.94813000
O        +1.04702000        -2.28405000        -0.90088000
O        +1.53784000        +1.08301000        -0.93877000
O        +1.01035000        +2.37097000        +0.83478000
C        +2.83449000        +1.70121000        -0.99358000
C        +2.82316000        -1.73208000        +1.00475000
C        -1.74320000        -1.41616000        -0.12552000
C        -2.93952000        -0.70056000        -0.05285000
C        -2.95313000        +0.68255000        +0.06934000
C        -1.77161000        +1.42404000        +0.12810000
H        +2.73835000        +2.77989000        -1.12464000
H        +2.70778000        -2.81319000        +1.09555000
H        -3.90354000        +1.20325000        +0.11710000
H        +3.38998000        +1.50093000        -0.07544000
H        +3.33184000        +1.25269000        -1.85067000
H        +3.31095000        -1.32281000        +1.88650000
H        +3.39889000        -1.50934000        +0.10459000
H        -3.87892000        -1.24211000        -0.08988000
H        -1.78886000        +2.45164000        +0.22176000
H        -1.73878000        -2.44393000        -0.21875000
--
0  1
C        -0.50590000        -1.17197000        +5.51165000
C        -0.51855000        +0.23051000        +5.63347000
C        +0.78823000        -1.92603000        +5.48480000
C        +0.76697000        +0.99609000        +5.64452000
O        +1.57499000        -1.58003000        +6.52667000
O        +1.08556000        -2.77232000        +4.67766000
O        +1.57638000        +0.59474000        +4.63977000
O        +1.04889000        +1.88270000        +6.41332000
C        +2.87303000        +1.21294000        +4.58496000
C        +2.86170000        -2.22035000        +6.58329000
C        -1.70466000        -1.90443000        +5.45302000
C        -2.90098000        -1.18883000        +5.52569000
C        -2.91459000        +0.19428000        +5.64788000
C        -1.73307000        +0.93577000        +5.70664000
H        +2.77689000        +2.29162000        +4.45390000
H        +2.74632000        -3.30146000        +6.67409000
H        -3.86500000        +0.71498000        +5.69564000
H        +3.42852000        +1.01266000        +5.50310000
H        +3.37038000        +0.76442000        +3.72787000
H        +3.34949000        -1.81108000        +7.46504000
H        +3.43743000        -1.99761000        +5.68313000
H        -3.84038000        -1.73038000        +5.48866000
H        -1.75032000        +1.96337000        +5.80030000
H        -1.70024000        -2.93220000        +5.35979000
$end

$rem
JOBTYPE                   SP
METHOD                    B3LYP
DFT_D                     d3_op
BASIS                     6-311++G(d,p)
SYMMETRY                  False
THRESH                    12
SCF_CONVERGENCE           8
MAX_SUB_FILE_NUM          128
MEM_STATIC                400
MEM_TOTAL                 4000
$end
--------------------------------------------------------------

             Standard Nuclear Orientation (Angstroms)
    I     Atom           X                Y                Z
 ----------------------------------------------------------------
    1      C      -2.7777078960     0.8082321851     0.8199351133
    2      C      -2.8398256297     0.8296260239    -0.5863486333
    3      C      -2.6928669848    -0.4900792257     1.5624237417
    4      C      -2.9155289012    -0.4516337378    -1.3553993125
    5      O      -1.6970026199    -1.2635155587     1.0784291137
    6      O      -3.3797663159    -0.8007178947     2.5046338026
    7      O      -3.8511035478    -1.2741337816    -0.8320039631
    8      O      -2.2659886056    -0.7204100289    -2.3364529951
    9      C      -3.9727825115    -2.5680241501    -1.4464293391
   10      C      -1.5443054948    -2.5528904366     1.6973266521
   11      C      -2.7526077740     2.0023909724     1.5617676018
   12      C      -2.7860125946     3.2031995291     0.8507902749
   13      C      -2.8452490983     3.2254550528    -0.5363307107
   14      C      -2.8715728632     2.0485841067    -1.2870180649
   15      H      -4.2442660503    -2.4676328675    -2.4981842745
   16      H      -1.3145766274    -2.4422322319     2.7581449333
   17      H      -2.8754444778     4.1790689978    -1.0524676681
   18      H      -3.0307564738    -3.1144512380    -1.3711521179
   19      H      -4.7589990115    -3.0771154510    -0.8934192636
   20      H      -0.7184807818    -3.0288026110     1.1734514521
   21      H      -2.4598982192    -3.1372833864     1.5898975622
   22      H      -2.7617315932     4.1392630130     1.3988008317
   23      H      -2.9128035727     2.0722884717    -2.3179252623
   24      H      -2.7110594209     1.9915194780     2.5928728763
   25      C       2.8169913869     0.8283583423     0.5771670609
   26      C       2.7548736533     0.8497521811    -0.8291166858
   27      C       2.9018322982    -0.4699530685     1.3196556893
   28      C       2.6791703817    -0.4315075806    -1.5981673649
   29      O       3.8976966630    -1.2433894015     0.8356610612
   30      O       2.2149329671    -0.7805917375     2.2618657502
   31      O       1.7435957352    -1.2540076244    -1.0747720155
   32      O       3.3287106774    -0.7002838717    -2.5792210476
   33      C       1.6219167714    -2.5478979929    -1.6891973915
   34      C       4.0503937881    -2.5327642794     1.4545585997
   35      C       2.8420915089     2.0225171296     1.3189995493
   36      C       2.8086866883     3.2233256863     0.6080222225
   37      C       2.7494501846     3.2455812100    -0.7790987631
   38      C       2.7231264198     2.0687102639    -1.5297861173
   39      H       1.3504332327    -2.4475067103    -2.7409523269
   40      H       4.2801226556    -2.4221060747     2.5153768809
   41      H       2.7192548051     4.1991951550    -1.2952357205
   42      H       2.5639428091    -3.0943250808    -1.6139201703
   43      H       0.8357002714    -3.0569892938    -1.1361873160
   44      H       4.8762185012    -3.0086764538     0.9306833997
   45      H       3.1348010637    -3.1171572292     1.3471295098
   46      H       2.8329676897     4.1593891702     1.1560327793
   47      H       2.6818957103     2.0924146289    -2.5606933148
   48      H       2.8836398620     2.0116456352     2.3501048239
 ----------------------------------------------------------------

   15   -1376.4243228752      5.05E-09 Convergence criterion met
 Total energy in the final basis set = -1376.42432288

                    Orbital Energies (a.u.)
 --------------------------------------------------------------

 Alpha MOs
 -- Occupied --
-19.178 -19.177 -19.173 -19.172 -19.121 -19.121 -19.117 -19.117
-10.313 -10.313 -10.310 -10.309 -10.233 -10.233 -10.229 -10.228
-10.212 -10.212 -10.211 -10.211 -10.196 -10.195 -10.195 -10.195
-10.195 -10.194 -10.194 -10.194  -1.121  -1.120  -1.113  -1.112
 -1.032  -1.031  -1.028  -1.027  -0.884  -0.884  -0.797  -0.797
 -0.784  -0.784  -0.741  -0.741  -0.730  -0.729  -0.654  -0.653
 -0.643  -0.643  -0.593  -0.593  -0.576  -0.576  -0.552  -0.552
 -0.521  -0.521  -0.513  -0.512  -0.491  -0.491  -0.488  -0.488
 -0.483  -0.481  -0.477  -0.475  -0.469  -0.469  -0.465  -0.465
 -0.439  -0.437  -0.430  -0.427  -0.413  -0.413  -0.406  -0.405
 -0.387  -0.386  -0.385  -0.383  -0.381  -0.381  -0.367  -0.366
 -0.363  -0.362  -0.321  -0.321  -0.312  -0.311  -0.299  -0.299
 -0.294  -0.293  -0.273  -0.272  -0.269  -0.268

          Ground-State Mulliken Net Atomic Charges

     Atom                 Charge (a.u.)
  ----------------------------------------
      1 C                     0.839346
      2 C                     0.959178
      3 C                    -0.700954
      4 C                    -0.870867
      5 O                     0.092028
      6 O                    -0.182973
      7 O                     0.058224
      8 O                    -0.130968
      9 C                    -0.191517
     10 C                    -0.324262
     11 C                    -0.414578
     12 C                    -0.225230
     13 C                    -0.203257
     14 C                    -0.457012
     15 H                     0.170879
     16 H                     0.195917
     17 H                     0.179748
     18 H                     0.173820
     19 H                     0.172591
     20 H                     0.113376
     21 H                     0.186130
     22 H                     0.178832
     23 H                     0.187196
     24 H                     0.195506
     25 C                     0.939356
     26 C                     0.876921
     27 C                    -0.921382
     28 C                    -0.656668
     29 O                     0.066590
     30 O                    -0.120266
     31 O                     0.076732
     32 O                    -0.186174
     33 C                    -0.330250
     34 C                    -0.192055
     35 C                    -0.445233
     36 C                    -0.199418
     37 C                    -0.234321
     38 C                    -0.430158
     39 H                     0.198639
     40 H                     0.170385
     41 H                     0.178434
     42 H                     0.189898
     43 H                     0.110105
     44 H                     0.170898
     45 H                     0.173432
     46 H                     0.180398
     47 H                     0.196831
     48 H                     0.186156
  ----------------------------------------
  Sum of atomic charges =    -0.000000

                    Cartesian Multipole Moments
 -----------------------------------------------------------------
    Charge (ESU x 10^10)
                -0.0000
    Dipole Moment (Debye)
         X       0.1859      Y       0.1562      Z       0.2064
       Tot       0.3186
    Quadrupole Moments (Debye-Ang)
        XX    -170.3358     XY      -0.7607     YY    -124.2647
        XZ      18.9072     YZ       0.5092     ZZ    -173.6178

 Total job time:  1215.47s(wall), 2416.52s(cpu)
        *  Thank you very much for using Q-Chem.  Have a nice day.  *
