 Q-Chem 5.0, Q-Chem, Inc., Pleasanton, CA (2017)
 Q-Chem 5.0.1 for Intel X86 EM64T Linux

User input:
--------------------------------------------------------------
$molecule
0  1
--
0  1
C        +0.22270000        +1.04488000        +0.58595000
C        +0.62626000        -0.41353000        +0.99871000
C        -1.18200000        +1.23223000        +0.04377000
C        -0.37457000        -1.51643000        +0.72333000
O        -2.09172000        +0.78832000        +0.93966000
O        -1.47336000        +1.75939000        -0.99882000
O        -0.91364000        -1.42792000        -0.50620000
O        -0.62208000        -2.40877000        +1.49911000
C        -1.86134000        -2.44741000        -0.86560000
C        -3.47068000        +0.87492000        +0.53920000
C        +1.33008000        +1.39974000        -0.43491000
C        +2.63070000        +1.71700000        +0.32855000
C        +3.04336000        +0.29351000        +0.80300000
C        +1.94423000        -0.59299000        +0.15262000
O        +1.62840000        +0.13663000        -1.04376000
H        +0.27811000        +1.68786000        +1.46900000
H        +0.83923000        -0.48042000        +2.06408000
H        -2.68749000        -2.46677000        -0.15296000
H        -3.76076000        +1.91522000        +0.38406000
H        +3.37234000        +2.13782000        -0.35195000
H        +2.48236000        +2.42488000        +1.14651000
H        +4.02182000        +0.00994000        +0.41161000
H        +3.07359000        +0.18738000        +1.88928000
H        -2.21148000        -2.17765000        -1.85937000
H        -1.38062000        -3.42697000        -0.88096000
H        -4.03855000        +0.43623000        +1.35671000
H        -3.63120000        +0.31700000        -0.38495000
C        +2.35450000        -2.01267000        -0.16812000
H        +3.26311000        -2.00678000        -0.77366000
H        +2.54990000        -2.57059000        +0.75079000
H        +1.57335000        -2.52896000        -0.72872000
H        +1.03270000        +2.19943000        -1.08064000
--
0  1
C        +0.25191000        +2.69962000        +5.93581000
C        +0.65547000        +1.24121000        +6.34857000
C        -1.15279000        +2.88697000        +5.39363000
C        -0.34536000        +0.13831000        +6.07319000
O        -2.06251000        +2.44306000        +6.28952000
O        -1.44415000        +3.41413000        +4.35104000
O        -0.88443000        +0.22682000        +4.84366000
O        -0.59287000        -0.75403000        +6.84897000
C        -1.83213000        -0.79267000        +4.48426000
C        -3.44147000        +2.52966000        +5.88906000
C        +1.35929000        +3.05448000        +4.91495000
C        +2.65991000        +3.37174000        +5.67841000
C        +3.07257000        +1.94825000        +6.15286000
C        +1.97344000        +1.06175000        +5.50248000
O        +1.65761000        +1.79137000        +4.30610000
H        +0.30732000        +3.34260000        +6.81886000
H        +0.86844000        +1.17432000        +7.41394000
H        -2.65828000        -0.81203000        +5.19690000
H        -3.73155000        +3.56996000        +5.73392000
H        +3.40155000        +3.79256000        +4.99791000
H        +2.51157000        +4.07962000        +6.49637000
H        +4.05103000        +1.66468000        +5.76147000
H        +3.10280000        +1.84212000        +7.23914000
H        -2.18227000        -0.52291000        +3.49049000
H        -1.35141000        -1.77223000        +4.46890000
H        -4.00934000        +2.09097000        +6.70657000
H        -3.60199000        +1.97174000        +4.96491000
C        +2.38371000        -0.35793000        +5.18174000
H        +3.29232000        -0.35204000        +4.57620000
H        +2.57911000        -0.91585000        +6.10065000
H        +1.60256000        -0.87422000        +4.62114000
H        +1.06191000        +3.85417000        +4.26922000
$end

$rem
JOBTYPE                   SP
METHOD                    B3LYP
DFT_D                     d3_op
BASIS                     6-311++G(d,p)
SYMMETRY                  False
THRESH                    12
SCF_CONVERGENCE           8
MAX_SUB_FILE_NUM          128
MEM_STATIC                400
MEM_TOTAL                 4000
$end
--------------------------------------------------------------

             Standard Nuclear Orientation (Angstroms)
    I     Atom           X                Y                Z
 ----------------------------------------------------------------
    1      C      -1.9676213562     0.2085556580     1.1183521304
    2      C      -2.0936409926     0.5670814551    -0.4034131351
    3      C      -2.4330110384    -1.1757498085     1.5298762295
    4      C      -2.7615808426    -0.4504659157    -1.3047105046
    5      O      -1.7703968937    -2.1201171984     0.8253351117
    6      O      -3.2248481417    -1.4256672848     2.4018380866
    7      O      -3.8886808628    -0.9526681225    -0.7684148828
    8      O      -2.3587676864    -0.7398899431    -2.4062284470
    9      C      -4.6044791771    -1.9128643836    -1.5636000332
   10      C      -2.1387562231    -3.4849689751     1.0915859060
   11      C      -2.7751085544     1.3519343049     1.7779132861
   12      C      -1.9252757051     2.6375015772     1.7624737198
   13      C      -1.9810627223     3.0041850159     0.2511346041
   14      C      -2.9241597651     1.9038491573    -0.3117082846
   15      O      -3.7880864381     1.6384004222     0.8047981912
   16      H      -0.9127133317     0.2537823179     1.4036492736
   17      H      -1.1181445637     0.7484950244    -0.8510062137
   18      H      -3.9604867758    -2.7589128977    -1.8090182489
   19      H      -1.9187617114    -3.7468326270     2.1276692804
   20      H      -2.3979028236     3.4073292190     2.3741833083
   21      H      -0.9117837176     2.4824146352     2.1378927436
   22      H      -2.4299338153     3.9865359076     0.0946625109
   23      H      -1.0033066678     3.0014981682    -0.2348361224
   24      H      -5.4433674464    -2.2287509451    -0.9476215904
   25      H      -4.9587097538    -1.4543185814    -2.4883280405
   26      H      -1.5413209850    -4.0853913414     0.4090817145
   27      H      -3.2037020830    -3.6321480428     0.9036410823
   28      C      -3.7216278020     2.2905445825    -1.5369422627
   29      H      -4.2688486321     3.2156874131    -1.3447298229
   30      H      -3.0580388468     2.4473352842    -2.3907091213
   31      H      -4.4433258590     1.5138865167    -1.7957418182
   32      H      -3.0992597072     1.0910663555     2.7637023794
   33      C       3.6204735942     0.1252809793     0.7629933480
   34      C       3.4944539578     0.4838067764    -0.7587719175
   35      C       3.1550839120    -1.2590244872     1.1745174471
   36      C       2.8265141078    -0.5337405944    -1.6600692870
   37      O       3.8176980567    -2.2033918771     0.4699763293
   38      O       2.3632468087    -1.5089419635     2.0464793042
   39      O       1.6994140876    -1.0359428012    -1.1237736652
   40      O       3.2293272640    -0.8231646218    -2.7615872294
   41      C       0.9836157733    -1.9961390623    -1.9189588156
   42      C       3.4493387273    -3.5682436538     0.7362271236
   43      C       2.8129863960     1.2686596262     1.4225545037
   44      C       3.6628192454     2.5542268985     1.4071149374
   45      C       3.6070322281     2.9209103372    -0.1042241783
   46      C       2.6639351853     1.8205744785    -0.6670670670
   47      O       1.8000085123     1.5551257435     0.4494394088
   48      H       4.6753816188     0.1705076392     1.0482904912
   49      H       4.4699503868     0.6652203457    -1.2063649961
   50      H       1.6276081747    -2.8421875764    -2.1643770313
   51      H       3.6693332390    -3.8301073057     1.7723104980
   52      H       3.1901921268     3.3240545403     2.0188245259
   53      H       4.6763112328     2.3991399565     1.7825339612
   54      H       3.1581611351     3.9032612289    -0.2606962715
   55      H       4.5847882826     2.9182234895    -0.5901949047
   56      H       0.1447275040    -2.3120256238    -1.3029803728
   57      H       0.6293851966    -1.5375932601    -2.8436868229
   58      H       4.0467739654    -4.1686660201     0.0537229321
   59      H       2.3843928674    -3.7154227215     0.5482822999
   60      C       1.8664671484     2.2072699038    -1.8923010451
   61      H       1.3192463183     3.1324127343    -1.7000886053
   62      H       2.5300561036     2.3640606055    -2.7460679037
   63      H       1.1447690914     1.4306118380    -2.1511006006
   64      H       2.4888352433     1.0077916768     2.4083435970
 ----------------------------------------------------------------

   15   -1610.4049920498      5.38E-09 Convergence criterion met
 Total energy in the final basis set = -1610.40499205

                    Orbital Energies (a.u.)
 --------------------------------------------------------------

 Alpha MOs
 -- Occupied --
-19.178 -19.172 -19.171 -19.170 -19.139 -19.123 -19.123 -19.116
-19.114 -19.112 -10.312 -10.306 -10.303 -10.302 -10.251 -10.239
-10.235 -10.234 -10.229 -10.229 -10.222 -10.220 -10.209 -10.207
-10.196 -10.194 -10.185 -10.184 -10.176 -10.171 -10.168 -10.166
 -1.121  -1.116  -1.113  -1.109  -1.071  -1.056  -1.034  -1.026
 -1.026  -1.024  -0.837  -0.824  -0.801  -0.789  -0.789  -0.776
 -0.747  -0.742  -0.728  -0.725  -0.701  -0.691  -0.659  -0.648
 -0.610  -0.600  -0.595  -0.583  -0.568  -0.565  -0.565  -0.556
 -0.538  -0.527  -0.521  -0.513  -0.511  -0.505  -0.496  -0.492
 -0.486  -0.485  -0.485  -0.479  -0.476  -0.473  -0.472  -0.468
 -0.464  -0.454  -0.447  -0.438  -0.436  -0.429  -0.426  -0.420
 -0.418  -0.411  -0.408  -0.399  -0.397  -0.394  -0.394  -0.385
 -0.383  -0.375  -0.374  -0.372  -0.370  -0.365  -0.364  -0.358
 -0.356  -0.353  -0.347  -0.343  -0.338  -0.337  -0.326  -0.324
 -0.321  -0.316  -0.312  -0.309  -0.293  -0.285  -0.284  -0.279
 -0.277  -0.267

          Ground-State Mulliken Net Atomic Charges

     Atom                 Charge (a.u.)
  ----------------------------------------
      1 C                    -0.110857
      2 C                     0.823938
      3 C                    -0.710863
      4 C                    -0.802510
      5 O                     0.037871
      6 O                    -0.176691
      7 O                     0.047254
      8 O                    -0.094294
      9 C                    -0.175122
     10 C                    -0.244134
     11 C                    -0.260154
     12 C                    -0.411287
     13 C                    -0.269916
     14 C                    -0.379133
     15 O                     0.010201
     16 H                     0.246933
     17 H                     0.274115
     18 H                     0.193214
     19 H                     0.188687
     20 H                     0.197708
     21 H                     0.120781
     22 H                     0.187028
     23 H                     0.070351
     24 H                     0.179403
     25 H                     0.175569
     26 H                     0.129786
     27 H                     0.184758
     28 C                    -0.271186
     29 H                     0.183286
     30 H                     0.158632
     31 H                     0.181738
     32 H                     0.288684
     33 C                    -0.009655
     34 C                     0.496391
     35 C                    -0.599653
     36 C                    -0.878187
     37 O                     0.013960
     38 O                    -0.113362
     39 O                     0.043522
     40 O                    -0.099950
     41 C                    -0.314862
     42 C                    -0.160362
     43 C                    -0.160938
     44 C                    -0.652784
     45 C                    -0.319463
     46 C                    -0.310276
     47 O                     0.215838
     48 H                     0.248727
     49 H                     0.285716
     50 H                     0.211303
     51 H                     0.170965
     52 H                     0.178756
     53 H                     0.139504
     54 H                     0.168478
     55 H                     0.147464
     56 H                     0.129661
     57 H                     0.215371
     58 H                     0.165626
     59 H                     0.179483
     60 C                    -0.224146
     61 H                     0.194851
     62 H                     0.191843
     63 H                     0.198412
     64 H                     0.273974
  ----------------------------------------
  Sum of atomic charges =    -0.000000

                    Cartesian Multipole Moments
 -----------------------------------------------------------------
    Charge (ESU x 10^10)
                -0.0000
    Dipole Moment (Debye)
         X       2.8869      Y       0.0614      Z       0.1678
       Tot       2.8924
    Quadrupole Moments (Debye-Ang)
        XX    -189.5666     XY       8.9280     YY    -164.8892
        XZ      19.8624     YZ       0.6758     ZZ    -208.2064

 Total job time:  7438.07s(wall), 7420.80s(cpu)
        *  Thank you very much for using Q-Chem.  Have a nice day.  *
