 Q-Chem 5.0, Q-Chem, Inc., Pleasanton, CA (2017)
 Q-Chem 5.0.1 for Intel X86 EM64T Linux

User input:
--------------------------------------------------------------
$molecule
0  1
C        +0.22270000        +1.04488000        +0.58595000
C        +0.62626000        -0.41353000        +0.99871000
C        -1.18200000        +1.23223000        +0.04377000
C        -0.37457000        -1.51643000        +0.72333000
O        -2.09172000        +0.78832000        +0.93966000
O        -1.47336000        +1.75939000        -0.99882000
O        -0.91364000        -1.42792000        -0.50620000
O        -0.62208000        -2.40877000        +1.49911000
C        -1.86134000        -2.44741000        -0.86560000
C        -3.47068000        +0.87492000        +0.53920000
C        +1.33008000        +1.39974000        -0.43491000
C        +2.63070000        +1.71700000        +0.32855000
C        +3.04336000        +0.29351000        +0.80300000
C        +1.94423000        -0.59299000        +0.15262000
O        +1.62840000        +0.13663000        -1.04376000
H        +0.27811000        +1.68786000        +1.46900000
H        +0.83923000        -0.48042000        +2.06408000
H        -2.68749000        -2.46677000        -0.15296000
H        -3.76076000        +1.91522000        +0.38406000
H        +3.37234000        +2.13782000        -0.35195000
H        +2.48236000        +2.42488000        +1.14651000
H        +4.02182000        +0.00994000        +0.41161000
H        +3.07359000        +0.18738000        +1.88928000
H        -2.21148000        -2.17765000        -1.85937000
H        -1.38062000        -3.42697000        -0.88096000
H        -4.03855000        +0.43623000        +1.35671000
H        -3.63120000        +0.31700000        -0.38495000
C        +0.90028000        +2.39077000        -1.49430000
C        +2.35450000        -2.01267000        -0.16812000
H        +3.26311000        -2.00678000        -0.77366000
H        +2.54990000        -2.57059000        +0.75079000
H        +1.57335000        -2.52896000        -0.72872000
H        +1.71845000        +2.58186000        -2.15686000
H        +0.59919000        +3.30478000        -1.02650000
H        +0.07925000        +1.98653000        -2.04874000
@C        +0.25191000        +2.69962000        +5.93581000
@C        +0.65547000        +1.24121000        +6.34857000
@C        -1.15279000        +2.88697000        +5.39363000
@C        -0.34536000        +0.13831000        +6.07319000
@O        -2.06251000        +2.44306000        +6.28952000
@O        -1.44415000        +3.41413000        +4.35104000
@O        -0.88443000        +0.22682000        +4.84366000
@O        -0.59287000        -0.75403000        +6.84897000
@C        -1.83213000        -0.79267000        +4.48426000
@C        -3.44147000        +2.52966000        +5.88906000
@C        +1.35929000        +3.05448000        +4.91495000
@C        +2.65991000        +3.37174000        +5.67841000
@C        +3.07257000        +1.94825000        +6.15286000
@C        +1.97344000        +1.06175000        +5.50248000
@O        +1.65761000        +1.79137000        +4.30610000
@H        +0.30732000        +3.34260000        +6.81886000
@H        +0.86844000        +1.17432000        +7.41394000
@H        -2.65828000        -0.81203000        +5.19690000
@H        -3.73155000        +3.56996000        +5.73392000
@H        +3.40155000        +3.79256000        +4.99791000
@H        +2.51157000        +4.07962000        +6.49637000
@H        +4.05103000        +1.66468000        +5.76147000
@H        +3.10280000        +1.84212000        +7.23914000
@H        -2.18227000        -0.52291000        +3.49049000
@H        -1.35141000        -1.77223000        +4.46890000
@H        -4.00934000        +2.09097000        +6.70657000
@H        -3.60199000        +1.97174000        +4.96491000
@C        +0.92949000        +4.04551000        +3.85556000
@C        +2.38371000        -0.35793000        +5.18174000
@H        +3.29232000        -0.35204000        +4.57620000
@H        +2.57911000        -0.91585000        +6.10065000
@H        +1.60256000        -0.87422000        +4.62114000
@H        +1.74766000        +4.23660000        +3.19300000
@H        +0.62840000        +4.95952000        +4.32336000
@H        +0.10846000        +3.64127000        +3.30112000
$end

$rem
JOBTYPE                   SP
METHOD                    B3LYP
DFT_D                     d3_op
BASIS                     6-311++G(d,p)
SYMMETRY                  False
THRESH                    12
SCF_CONVERGENCE           8
MAX_SUB_FILE_NUM          128
MEM_STATIC                400
MEM_TOTAL                 4000
$end
--------------------------------------------------------------

             Standard Nuclear Orientation (Angstroms)
    I     Atom           X                Y                Z
 ----------------------------------------------------------------
    1      C       0.2227000000     1.0448800000     0.5859500000
    2      C       0.6262600000    -0.4135300000     0.9987100000
    3      C      -1.1820000000     1.2322300000     0.0437700000
    4      C      -0.3745700000    -1.5164300000     0.7233300000
    5      O      -2.0917200000     0.7883200000     0.9396600000
    6      O      -1.4733600000     1.7593900000    -0.9988200000
    7      O      -0.9136400000    -1.4279200000    -0.5062000000
    8      O      -0.6220800000    -2.4087700000     1.4991100000
    9      C      -1.8613400000    -2.4474100000    -0.8656000000
   10      C      -3.4706800000     0.8749200000     0.5392000000
   11      C       1.3300800000     1.3997400000    -0.4349100000
   12      C       2.6307000000     1.7170000000     0.3285500000
   13      C       3.0433600000     0.2935100000     0.8030000000
   14      C       1.9442300000    -0.5929900000     0.1526200000
   15      O       1.6284000000     0.1366300000    -1.0437600000
   16      H       0.2781100000     1.6878600000     1.4690000000
   17      H       0.8392300000    -0.4804200000     2.0640800000
   18      H      -2.6874900000    -2.4667700000    -0.1529600000
   19      H      -3.7607600000     1.9152200000     0.3840600000
   20      H       3.3723400000     2.1378200000    -0.3519500000
   21      H       2.4823600000     2.4248800000     1.1465100000
   22      H       4.0218200000     0.0099400000     0.4116100000
   23      H       3.0735900000     0.1873800000     1.8892800000
   24      H      -2.2114800000    -2.1776500000    -1.8593700000
   25      H      -1.3806200000    -3.4269700000    -0.8809600000
   26      H      -4.0385500000     0.4362300000     1.3567100000
   27      H      -3.6312000000     0.3170000000    -0.3849500000
   28      C       0.9002800000     2.3907700000    -1.4943000000
   29      C       2.3545000000    -2.0126700000    -0.1681200000
   30      H       3.2631100000    -2.0067800000    -0.7736600000
   31      H       2.5499000000    -2.5705900000     0.7507900000
   32      H       1.5733500000    -2.5289600000    -0.7287200000
   33      H       1.7184500000     2.5818600000    -2.1568600000
   34      H       0.5991900000     3.3047800000    -1.0265000000
   35      H       0.0792500000     1.9865300000    -2.0487400000
   36      GH      0.2519100000     2.6996200000     5.9358100000
   37      GH      0.6554700000     1.2412100000     6.3485700000
   38      GH     -1.1527900000     2.8869700000     5.3936300000
   39      GH     -0.3453600000     0.1383100000     6.0731900000
   40      GH     -2.0625100000     2.4430600000     6.2895200000
   41      GH     -1.4441500000     3.4141300000     4.3510400000
   42      GH     -0.8844300000     0.2268200000     4.8436600000
   43      GH     -0.5928700000    -0.7540300000     6.8489700000
   44      GH     -1.8321300000    -0.7926700000     4.4842600000
   45      GH     -3.4414700000     2.5296600000     5.8890600000
   46      GH      1.3592900000     3.0544800000     4.9149500000
   47      GH      2.6599100000     3.3717400000     5.6784100000
   48      GH      3.0725700000     1.9482500000     6.1528600000
   49      GH      1.9734400000     1.0617500000     5.5024800000
   50      GH      1.6576100000     1.7913700000     4.3061000000
   51      GH      0.3073200000     3.3426000000     6.8188600000
   52      GH      0.8684400000     1.1743200000     7.4139400000
   53      GH     -2.6582800000    -0.8120300000     5.1969000000
   54      GH     -3.7315500000     3.5699600000     5.7339200000
   55      GH      3.4015500000     3.7925600000     4.9979100000
   56      GH      2.5115700000     4.0796200000     6.4963700000
   57      GH      4.0510300000     1.6646800000     5.7614700000
   58      GH      3.1028000000     1.8421200000     7.2391400000
   59      GH     -2.1822700000    -0.5229100000     3.4904900000
   60      GH     -1.3514100000    -1.7722300000     4.4689000000
   61      GH     -4.0093400000     2.0909700000     6.7065700000
   62      GH     -3.6019900000     1.9717400000     4.9649100000
   63      GH      0.9294900000     4.0455100000     3.8555600000
   64      GH      2.3837100000    -0.3579300000     5.1817400000
   65      GH      3.2923200000    -0.3520400000     4.5762000000
   66      GH      2.5791100000    -0.9158500000     6.1006500000
   67      GH      1.6025600000    -0.8742200000     4.6211400000
   68      GH      1.7476600000     4.2366000000     3.1930000000
   69      GH      0.6284000000     4.9595200000     4.3233600000
   70      GH      0.1084600000     3.6412700000     3.3011200000
 ----------------------------------------------------------------

   14    -844.5175483552      5.81E-09 Convergence criterion met
 Total energy in the final basis set = -844.51754836

                    Orbital Energies (a.u.)
 --------------------------------------------------------------

 Alpha MOs
 -- Occupied --
-19.176 -19.174 -19.125 -19.117 -19.116 -10.311 -10.306 -10.242
-10.232 -10.231 -10.231 -10.204 -10.203 -10.178 -10.175 -10.169
-10.136  -1.121  -1.114  -1.061  -1.034  -1.027  -0.832  -0.804
 -0.784  -0.748  -0.730  -0.720  -0.674  -0.644  -0.603  -0.579
 -0.570  -0.561  -0.525  -0.514  -0.508  -0.493  -0.489  -0.480
 -0.476  -0.471  -0.459  -0.442  -0.435  -0.433  -0.414  -0.411
 -0.403  -0.399  -0.395  -0.374  -0.372  -0.364  -0.358  -0.355
 -0.349  -0.346  -0.333  -0.328  -0.321  -0.313  -0.284  -0.272
 -0.270

          Ground-State Mulliken Net Atomic Charges

     Atom                 Charge (a.u.)
  ----------------------------------------
      1 C                     0.135760
      2 C                     0.579193
      3 C                    -0.523791
      4 C                    -0.670295
      5 O                     0.079010
      6 O                    -0.124352
      7 O                     0.033009
      8 O                    -0.082821
      9 C                    -0.162692
     10 C                    -0.253116
     11 C                    -0.712809
     12 C                    -0.164695
     13 C                    -0.064827
     14 C                    -0.652179
     15 O                     0.165719
     16 H                     0.142106
     17 H                     0.225760
     18 H                     0.195121
     19 H                     0.184051
     20 H                     0.198959
     21 H                     0.140639
     22 H                     0.198832
     23 H                     0.111248
     24 H                     0.173771
     25 H                     0.177669
     26 H                     0.140444
     27 H                     0.188774
     28 C                    -0.429165
     29 C                    -0.242057
     30 H                     0.175516
     31 H                     0.169223
     32 H                     0.180772
     33 H                     0.143148
     34 H                     0.147117
     35 H                     0.204036
     36 GH                    0.002460
     37 GH                    0.002609
     38 GH                   -0.002450
     39 GH                    0.019549
     40 GH                    0.000229
     41 GH                    0.000834
     42 GH                    0.003593
     43 GH                    0.000145
     44 GH                   -0.005820
     45 GH                    0.000800
     46 GH                   -0.023588
     47 GH                   -0.003122
     48 GH                   -0.004187
     49 GH                   -0.033418
     50 GH                    0.003602
     51 GH                    0.000039
     52 GH                    0.000289
     53 GH                   -0.001982
     54 GH                   -0.000019
     55 GH                    0.000918
     56 GH                    0.000001
     57 GH                   -0.000135
     58 GH                    0.000052
     59 GH                    0.001207
     60 GH                   -0.003422
     61 GH                    0.000018
     62 GH                   -0.000972
     63 GH                   -0.003298
     64 GH                    0.006587
     65 GH                    0.011075
     66 GH                   -0.000131
     67 GH                    0.000356
     68 GH                    0.003336
     69 GH                    0.000040
     70 GH                    0.017731
  ----------------------------------------
  Sum of atomic charges =     0.000000

                    Cartesian Multipole Moments
 -----------------------------------------------------------------
    Charge (ESU x 10^10)
                 0.0000
    Dipole Moment (Debye)
         X      -0.3306      Y       0.5002      Z       0.9143
       Tot       1.0933
    Quadrupole Moments (Debye-Ang)
        XX     -89.0285     XY       1.8239     YY    -103.5078
        XZ       3.5026     YZ      10.8117     ZZ    -108.3793

 Total job time:  3513.68s(wall), 6991.42s(cpu)
        *  Thank you very much for using Q-Chem.  Have a nice day.  *
