 Q-Chem 5.0, Q-Chem, Inc., Pleasanton, CA (2017)
 Q-Chem 5.0.1 for Intel X86 EM64T Linux

User input:
--------------------------------------------------------------
$molecule
0  1
--
0  1
C        +0.22270000        +1.04488000        +0.58595000
C        +0.62626000        -0.41353000        +0.99871000
C        -1.18200000        +1.23223000        +0.04377000
C        -0.37457000        -1.51643000        +0.72333000
O        -2.09172000        +0.78832000        +0.93966000
O        -1.47336000        +1.75939000        -0.99882000
O        -0.91364000        -1.42792000        -0.50620000
O        -0.62208000        -2.40877000        +1.49911000
C        -1.86134000        -2.44741000        -0.86560000
C        -3.47068000        +0.87492000        +0.53920000
C        +1.33008000        +1.39974000        -0.43491000
C        +2.63070000        +1.71700000        +0.32855000
C        +3.04336000        +0.29351000        +0.80300000
C        +1.94423000        -0.59299000        +0.15262000
O        +1.62840000        +0.13663000        -1.04376000
H        +0.27811000        +1.68786000        +1.46900000
H        +0.83923000        -0.48042000        +2.06408000
H        -2.68749000        -2.46677000        -0.15296000
H        -3.76076000        +1.91522000        +0.38406000
H        +3.37234000        +2.13782000        -0.35195000
H        +2.48236000        +2.42488000        +1.14651000
H        +4.02182000        +0.00994000        +0.41161000
H        +3.07359000        +0.18738000        +1.88928000
H        -2.21148000        -2.17765000        -1.85937000
H        -1.38062000        -3.42697000        -0.88096000
H        -4.03855000        +0.43623000        +1.35671000
H        -3.63120000        +0.31700000        -0.38495000
C        +0.90028000        +2.39077000        -1.49430000
C        +2.35450000        -2.01267000        -0.16812000
H        +3.26311000        -2.00678000        -0.77366000
H        +2.54990000        -2.57059000        +0.75079000
H        +1.57335000        -2.52896000        -0.72872000
H        +1.71845000        +2.58186000        -2.15686000
H        +0.59919000        +3.30478000        -1.02650000
H        +0.07925000        +1.98653000        -2.04874000
--
0  1
C        +0.25191000        +2.69962000        +5.93581000
C        +0.65547000        +1.24121000        +6.34857000
C        -1.15279000        +2.88697000        +5.39363000
C        -0.34536000        +0.13831000        +6.07319000
O        -2.06251000        +2.44306000        +6.28952000
O        -1.44415000        +3.41413000        +4.35104000
O        -0.88443000        +0.22682000        +4.84366000
O        -0.59287000        -0.75403000        +6.84897000
C        -1.83213000        -0.79267000        +4.48426000
C        -3.44147000        +2.52966000        +5.88906000
C        +1.35929000        +3.05448000        +4.91495000
C        +2.65991000        +3.37174000        +5.67841000
C        +3.07257000        +1.94825000        +6.15286000
C        +1.97344000        +1.06175000        +5.50248000
O        +1.65761000        +1.79137000        +4.30610000
H        +0.30732000        +3.34260000        +6.81886000
H        +0.86844000        +1.17432000        +7.41394000
H        -2.65828000        -0.81203000        +5.19690000
H        -3.73155000        +3.56996000        +5.73392000
H        +3.40155000        +3.79256000        +4.99791000
H        +2.51157000        +4.07962000        +6.49637000
H        +4.05103000        +1.66468000        +5.76147000
H        +3.10280000        +1.84212000        +7.23914000
H        -2.18227000        -0.52291000        +3.49049000
H        -1.35141000        -1.77223000        +4.46890000
H        -4.00934000        +2.09097000        +6.70657000
H        -3.60199000        +1.97174000        +4.96491000
C        +0.92949000        +4.04551000        +3.85556000
C        +2.38371000        -0.35793000        +5.18174000
H        +3.29232000        -0.35204000        +4.57620000
H        +2.57911000        -0.91585000        +6.10065000
H        +1.60256000        -0.87422000        +4.62114000
H        +1.74766000        +4.23660000        +3.19300000
H        +0.62840000        +4.95952000        +4.32336000
H        +0.10846000        +3.64127000        +3.30112000
$end

$rem
JOBTYPE                   SP
METHOD                    B3LYP
DFT_D                     d3_op
BASIS                     6-311++G(d,p)
SYMMETRY                  False
THRESH                    12
SCF_CONVERGENCE           8
MAX_SUB_FILE_NUM          128
MEM_STATIC                400
MEM_TOTAL                 4000
$end
--------------------------------------------------------------

             Standard Nuclear Orientation (Angstroms)
    I     Atom           X                Y                Z
 ----------------------------------------------------------------
    1      C      -1.9476064423     0.2531888822     0.8534091839
    2      C      -2.0384063270     0.3999001255    -0.7055720255
    3      C      -2.4094628453    -1.0684589463     1.4383681102
    4      C      -2.6729682777    -0.7395138665    -1.4756045760
    5      O      -1.7197116339    -2.0908545668     0.8850003119
    6      O      -3.2207124268    -1.2081434822     2.3170856815
    7      O      -3.8082840810    -1.1792121819    -0.9029808566
    8      O      -2.2393583626    -1.1705126360    -2.5175205929
    9      C      -4.4939624765    -2.2480338100    -1.5768717792
   10      C      -2.0810686143    -3.4116728568     1.3257481206
   11      C      -2.7830205652     1.4646834949     1.3316719467
   12      C      -1.9459654239     2.7474762731     1.1616165377
   13      C      -1.9669060785     2.9046244252    -0.3864728672
   14      C      -2.8843144291     1.7255064939    -0.8165960749
   15      O      -3.7736994905     1.6027002200     0.3047120314
   16      H      -0.9008115875     0.3508610330     1.1549909040
   17      H      -1.0536893125     0.5318395188    -1.1502833113
   18      H      -3.8355021600    -3.1108961580    -1.6893572522
   19      H      -1.8849258674    -3.5273635379     2.3927919834
   20      H      -2.4416914532     3.5868930495     1.6513458419
   21      H      -0.9408636821     2.6584023844     1.5787421095
   22      H      -2.4214453219     3.8505139729    -0.6859208398
   23      H      -0.9771122748     2.8490029859    -0.8440711078
   24      H      -5.3450665627    -2.4884808867    -0.9438201795
   25      H      -4.8290934637    -1.9241669039    -2.5636153579
   26      H      -1.4604718313    -4.0912214285     0.7458160342
   27      H      -3.1393576661    -3.5972489865     1.1342268367
   28      C      -3.4574821050     1.2611168907     2.6706409314
   29      C      -3.6541451744     1.9314381764    -2.1017574222
   30      H      -4.2153058436     2.8667185524    -2.0504267557
   31      H      -2.9706280693     1.9796256541    -2.9528354496
   32      H      -4.3612169902     1.1172393909    -2.2695454777
   33      H      -4.0118060041     2.1394158807     2.9279718266
   34      H      -2.7156872210     1.0754889218     3.4190986225
   35      H      -4.1219304878     0.4244885773     2.6117735889
   36      C       3.6482795010     0.1971202278     0.6461978742
   37      C       3.5574796163     0.3438314711    -0.9127833352
   38      C       3.1864230980    -1.1245276007     1.2311568005
   39      C       2.9229176656    -0.7955825210    -1.6828158857
   40      O       3.8761743094    -2.1469232213     0.6777890022
   41      O       2.3751735165    -1.2642121366     2.1098743718
   42      O       1.7876018623    -1.2352808364    -1.1101921663
   43      O       3.3565275807    -1.2265812905    -2.7247319026
   44      C       1.1019234668    -2.3041024644    -1.7840830889
   45      C       3.5148173290    -3.4677415112     1.1185368109
   46      C       2.8128653781     1.4086148405     1.1244606370
   47      C       3.6499205194     2.6914076187     0.9544052280
   48      C       3.6289798648     2.8485557707    -0.5936841769
   49      C       2.7115715142     1.6694378395    -1.0238073846
   50      O       1.8221864528     1.5466315656     0.0975007217
   51      H       4.6950743558     0.2947923785     0.9477795943
   52      H       4.5421966308     0.4757708644    -1.3574946211
   53      H       1.7603837833    -3.1669648124    -1.8965685619
   54      H       3.7109600759    -3.5834321924     2.1855806737
   55      H       3.1541944901     3.5308243951     1.4441345322
   56      H       4.6550222612     2.6023337300     1.3715307998
   57      H       3.1744406214     3.7944453185    -0.8931321495
   58      H       4.6187736685     2.7929343315    -1.0512824175
   59      H       0.2508193806    -2.5445495411    -1.1510314892
   60      H       0.7667924796    -1.9802355583    -2.7708266676
   61      H       4.1354141120    -4.1472900829     0.5386047245
   62      H       2.4565282772    -3.6533176410     0.9270155270
   63      C       2.1384038383     1.2050482363     2.4634296217
   64      C       1.9417407689     1.8753695219    -2.3089687319
   65      H       1.3805800997     2.8106498980    -2.2576380654
   66      H       2.6252578740     1.9235569996    -3.1600467593
   67      H       1.2346689531     1.0611707364    -2.4767567874
   68      H       1.5840799392     2.0833472263     2.7207605169
   69      H       2.8801987223     1.0194202673     3.2118873128
   70      H       1.4739554555     0.3684199229     2.4045622792
 ----------------------------------------------------------------

   15   -1689.0467937679      5.41E-09 Convergence criterion met
 Total energy in the final basis set = -1689.04679377

                    Orbital Energies (a.u.)
 --------------------------------------------------------------

 Alpha MOs
 -- Occupied --
-19.179 -19.172 -19.172 -19.172 -19.133 -19.121 -19.118 -19.115
-19.115 -19.111 -10.315 -10.305 -10.305 -10.303 -10.248 -10.238
-10.236 -10.235 -10.231 -10.230 -10.223 -10.222 -10.208 -10.206
-10.196 -10.194 -10.182 -10.180 -10.173 -10.169 -10.165 -10.164
-10.144 -10.130  -1.123  -1.118  -1.113  -1.111  -1.068  -1.054
 -1.037  -1.029  -1.026  -1.026  -0.836  -0.824  -0.809  -0.797
 -0.788  -0.776  -0.748  -0.745  -0.731  -0.726  -0.724  -0.715
 -0.678  -0.669  -0.649  -0.637  -0.606  -0.598  -0.584  -0.574
 -0.570  -0.566  -0.564  -0.556  -0.528  -0.518  -0.516  -0.511
 -0.510  -0.502  -0.496  -0.491  -0.488  -0.485  -0.482  -0.476
 -0.475  -0.473  -0.472  -0.466  -0.462  -0.453  -0.445  -0.438
 -0.438  -0.434  -0.429  -0.429  -0.419  -0.413  -0.409  -0.408
 -0.406  -0.403  -0.398  -0.395  -0.394  -0.390  -0.377  -0.373
 -0.371  -0.369  -0.368  -0.363  -0.359  -0.358  -0.355  -0.351
 -0.351  -0.347  -0.342  -0.339  -0.337  -0.334  -0.327  -0.323
 -0.321  -0.318  -0.312  -0.311  -0.285  -0.282  -0.279  -0.274
 -0.265  -0.265

          Ground-State Mulliken Net Atomic Charges

     Atom                 Charge (a.u.)
  ----------------------------------------
      1 C                     0.124226
      2 C                     0.590438
      3 C                    -0.563568
      4 C                    -0.632544
      5 O                     0.072714
      6 O                    -0.127609
      7 O                     0.037917
      8 O                    -0.095019
      9 C                    -0.162275
     10 C                    -0.235681
     11 C                    -0.743587
     12 C                    -0.169825
     13 C                    -0.060167
     14 C                    -0.649002
     15 O                     0.159606
     16 H                     0.209801
     17 H                     0.173969
     18 H                     0.192339
     19 H                     0.186650
     20 H                     0.194281
     21 H                     0.147410
     22 H                     0.194168
     23 H                     0.106193
     24 H                     0.174361
     25 H                     0.177525
     26 H                     0.131927
     27 H                     0.189328
     28 C                    -0.425650
     29 C                    -0.239988
     30 H                     0.174971
     31 H                     0.165737
     32 H                     0.177866
     33 H                     0.141019
     34 H                     0.148042
     35 H                     0.202007
     36 C                    -0.130255
     37 C                     0.519552
     38 C                    -0.592249
     39 C                    -0.781091
     40 O                     0.039126
     41 O                    -0.084936
     42 O                     0.039283
     43 O                    -0.099984
     44 C                    -0.295719
     45 C                    -0.163021
     46 C                     0.027739
     47 C                    -0.416009
     48 C                    -0.412751
     49 C                    -0.310342
     50 O                     0.303701
     51 H                     0.266583
     52 H                     0.286813
     53 H                     0.211349
     54 H                     0.168483
     55 H                     0.174523
     56 H                     0.150647
     57 H                     0.169203
     58 H                     0.147979
     59 H                     0.141387
     60 H                     0.215262
     61 H                     0.165548
     62 H                     0.176235
     63 C                    -0.624553
     64 C                    -0.349550
     65 H                     0.197502
     66 H                     0.192599
     67 H                     0.203683
     68 H                     0.131536
     69 H                     0.175589
     70 H                     0.188557
  ----------------------------------------
  Sum of atomic charges =    -0.000000

                    Cartesian Multipole Moments
 -----------------------------------------------------------------
    Charge (ESU x 10^10)
                -0.0000
    Dipole Moment (Debye)
         X       2.5550      Y      -0.5580      Z       0.4855
       Tot       2.6599
    Quadrupole Moments (Debye-Ang)
        XX    -202.9240     XY      11.4469     YY    -180.0656
        XZ      17.8907     YZ      -6.3067     ZZ    -220.4787

 Total job time:  3700.63s(wall), 7367.86s(cpu)
        *  Thank you very much for using Q-Chem.  Have a nice day.  *
