 Q-Chem 5.0, Q-Chem, Inc., Pleasanton, CA (2017)
 Q-Chem 5.0.1 for Intel X86 EM64T Linux

User input:
--------------------------------------------------------------
$molecule
0  1
--
0  1
C        -0.54444000        -0.68370000        -0.06689000
C        -0.55709000        +0.71878000        +0.05493000
C        +0.74969000        -1.43776000        -0.09374000
C        +0.72843000        +1.48436000        +0.06598000
O        +1.53645000        -1.09176000        +0.94813000
O        +1.04702000        -2.28405000        -0.90088000
O        +1.53784000        +1.08301000        -0.93877000
O        +1.01035000        +2.37097000        +0.83478000
C        +2.83449000        +1.70121000        -0.99358000
C        +2.82316000        -1.73208000        +1.00475000
C        -1.74320000        -1.41616000        -0.12552000
C        -2.93952000        -0.70056000        -0.05285000
C        -2.95313000        +0.68255000        +0.06934000
C        -1.77161000        +1.42404000        +0.12810000
H        +2.73835000        +2.77989000        -1.12464000
H        +2.70778000        -2.81319000        +1.09555000
H        -3.90354000        +1.20325000        +0.11710000
H        +3.38998000        +1.50093000        -0.07544000
H        +3.33184000        +1.25269000        -1.85067000
H        +3.31095000        -1.32281000        +1.88650000
H        +3.39889000        -1.50934000        +0.10459000
H        -3.87892000        -1.24211000        -0.08988000
C        -1.83960000        +2.92746000        +0.24839000
H        -1.24214000        +3.42352000        -0.52065000
H        -1.45503000        +3.26427000        +1.21284000
H        -2.87211000        +3.26623000        +0.14638000
H        -1.73878000        -2.44393000        -0.21875000
--
0  1
C        -0.50590000        -1.17197000        +5.51165000
C        -0.51855000        +0.23051000        +5.63347000
C        +0.78823000        -1.92603000        +5.48480000
C        +0.76697000        +0.99609000        +5.64452000
O        +1.57499000        -1.58003000        +6.52667000
O        +1.08556000        -2.77232000        +4.67766000
O        +1.57638000        +0.59474000        +4.63977000
O        +1.04889000        +1.88270000        +6.41332000
C        +2.87303000        +1.21294000        +4.58496000
C        +2.86170000        -2.22035000        +6.58329000
C        -1.70466000        -1.90443000        +5.45302000
C        -2.90098000        -1.18883000        +5.52569000
C        -2.91459000        +0.19428000        +5.64788000
C        -1.73307000        +0.93577000        +5.70664000
H        +2.77689000        +2.29162000        +4.45390000
H        +2.74632000        -3.30146000        +6.67409000
H        -3.86500000        +0.71498000        +5.69564000
H        +3.42852000        +1.01266000        +5.50310000
H        +3.37038000        +0.76442000        +3.72787000
H        +3.34949000        -1.81108000        +7.46504000
H        +3.43743000        -1.99761000        +5.68313000
H        -3.84038000        -1.73038000        +5.48866000
C        -1.80106000        +2.43919000        +5.82693000
H        -1.20360000        +2.93525000        +5.05789000
H        -1.41649000        +2.77600000        +6.79138000
H        -2.83357000        +2.77796000        +5.72492000
H        -1.70024000        -2.93220000        +5.35979000
$end

$rem
JOBTYPE                   SP
METHOD                    B3LYP
DFT_D                     d3_op
BASIS                     6-311++G(d,p)
SYMMETRY                  False
THRESH                    12
SCF_CONVERGENCE           8
MAX_SUB_FILE_NUM          128
MEM_STATIC                400
MEM_TOTAL                 4000
$end
--------------------------------------------------------------

             Standard Nuclear Orientation (Angstroms)
    I     Atom           X                Y                Z
 ----------------------------------------------------------------
    1      C      -2.7669436061     0.2381400837     1.2074188113
    2      C      -2.8320320640     0.7402345366    -0.1062078245
    3      C      -2.6739973580    -1.2355954328     1.4595387938
    4      C      -2.9027914764    -0.1999222276    -1.2680575883
    5      O      -1.6752044319    -1.7906510649     0.7394510696
    6      O      -3.3573902599    -1.8543097278     2.2381617033
    7      O      -3.8331085189    -1.1571519001    -1.0583661776
    8      O      -2.2538928847    -0.1123476744    -2.2818972866
    9      C      -3.9494639819    -2.1624590006    -2.0792949892
   10      C      -1.5146999934    -3.2132308576     0.8785309365
   11      C      -2.7463995521     1.1055395483     2.3138349973
   12      C      -2.7873510437     2.4771616556     2.0578631212
   13      C      -2.8495236795     2.9735086721     0.7625318497
   14      C      -2.8713972020     2.1253785087    -0.3462722101
   15      H      -4.2235946251    -1.7089046947    -3.0327681391
   16      H      -1.2833770096    -3.4718783561     1.9129134408
   17      H      -2.8856134419     4.0461246266     0.6047940327
   18      H      -3.0045231197    -2.6963974668    -2.1961656839
   19      H      -4.7319568410    -2.8346368995    -1.7343134262
   20      H      -0.6875366928    -3.4760664795     0.2230598162
   21      H      -2.4275291849    -3.7303263324     0.5773311634
   22      H      -2.7667096473     3.1686001670     2.8936900777
   23      C      -2.9522068269     2.7139835585    -1.7342123819
   24      H      -3.7709294372     2.2785558274    -2.3126174953
   25      H      -2.0350655343     2.5279033535    -2.2961063846
   26      H      -3.1139044542     3.7918326913    -1.6763921651
   27      H      -2.7026974234     0.7418981963     3.2786549977
   28      C       2.8270754281     0.3709136116     0.9853294331
   29      C       2.7619869702     0.8730080645    -0.3282972027
   30      C       2.9200216762    -1.1028219048     1.2374494157
   31      C       2.6912275577    -0.0671486997    -1.4901469665
   32      O       3.9188146023    -1.6578775369     0.5173616915
   33      O       2.2366287742    -1.7215361999     2.0160723251
   34      O       1.7609105152    -1.0243783722    -1.2804555557
   35      O       3.3401261495     0.0204258535    -2.5039866647
   36      C       1.6445550522    -2.0296854727    -2.3013843674
   37      C       4.0793190407    -3.0804573297     0.6564415583
   38      C       2.8476194821     1.2383130762     2.0917456191
   39      C       2.8066679904     2.6099351836     1.8357737431
   40      C       2.7444953547     3.1062822000     0.5404424715
   41      C       2.7226218322     2.2581520366    -0.5683615883
   42      H       1.3704244090    -1.5761311668    -3.2548575173
   43      H       4.3106420245    -3.3391048282     1.6908240626
   44      H       2.7084055923     4.1788981545     0.3827046546
   45      H       2.5894959145    -2.5636239388    -2.4182550621
   46      H       0.8620621932    -2.7018633716    -1.9564028044
   47      H       4.9064823413    -3.3432929516     0.0009704381
   48      H       3.1664898493    -3.5975528045     0.3552417852
   49      H       2.8273093869     3.3013736949     2.6716006996
   50      C       2.6418122072     2.8467570864    -1.9563017601
   51      H       1.8230895970     2.4113293553    -2.5347068735
   52      H       3.5589534998     2.6606768814    -2.5181957628
   53      H       2.4801145800     3.9246062192    -1.8984815433
   54      H       2.8913216108     0.8746717242     3.0565656196
 ----------------------------------------------------------------

   15   -1455.0910077930      5.84E-09 Convergence criterion met
 Total energy in the final basis set = -1455.09100779

                    Orbital Energies (a.u.)
 --------------------------------------------------------------

 Alpha MOs
 -- Occupied --
-19.176 -19.176 -19.173 -19.170 -19.120 -19.118 -19.117 -19.114
-10.312 -10.310 -10.309 -10.306 -10.233 -10.232 -10.229 -10.226
-10.209 -10.208 -10.205 -10.205 -10.204 -10.204 -10.191 -10.191
-10.189 -10.188 -10.187 -10.187 -10.173 -10.170  -1.120  -1.119
 -1.112  -1.110  -1.032  -1.029  -1.028  -1.025  -0.883  -0.883
 -0.799  -0.798  -0.792  -0.792  -0.745  -0.744  -0.729  -0.728
 -0.702  -0.701  -0.653  -0.652  -0.624  -0.624  -0.579  -0.578
 -0.574  -0.570  -0.547  -0.547  -0.519  -0.518  -0.511  -0.511
 -0.490  -0.490  -0.486  -0.486  -0.480  -0.479  -0.476  -0.475
 -0.470  -0.469  -0.445  -0.444  -0.433  -0.432  -0.430  -0.429
 -0.427  -0.425  -0.411  -0.409  -0.405  -0.403  -0.393  -0.393
 -0.382  -0.380  -0.376  -0.374  -0.368  -0.367  -0.363  -0.362
 -0.361  -0.359  -0.320  -0.320  -0.311  -0.309  -0.295  -0.294
 -0.291  -0.290  -0.267  -0.266  -0.262  -0.261

          Ground-State Mulliken Net Atomic Charges

     Atom                 Charge (a.u.)
  ----------------------------------------
      1 C                     0.467217
      2 C                     1.144862
      3 C                    -0.510264
      4 C                    -0.966001
      5 O                     0.103448
      6 O                    -0.182716
      7 O                     0.079447
      8 O                    -0.101218
      9 C                    -0.191612
     10 C                    -0.322722
     11 C                    -0.599745
     12 C                    -0.164661
     13 C                    -0.463221
     14 C                     0.222899
     15 H                     0.167494
     16 H                     0.196640
     17 H                     0.144821
     18 H                     0.176245
     19 H                     0.172092
     20 H                     0.108345
     21 H                     0.185375
     22 H                     0.184826
     23 C                    -0.558222
     24 H                     0.173466
     25 H                     0.193235
     26 H                     0.147316
     27 H                     0.188947
     28 C                     0.650714
     29 C                     0.958521
     30 C                    -0.857810
     31 C                    -0.746321
     32 O                     0.067459
     33 O                    -0.109581
     34 O                     0.099895
     35 O                    -0.158769
     36 C                    -0.312003
     37 C                    -0.187098
     38 C                    -0.570508
     39 C                    -0.156054
     40 C                    -0.502169
     41 C                     0.319045
     42 H                     0.191285
     43 H                     0.170749
     44 H                     0.145248
     45 H                     0.193566
     46 H                     0.114896
     47 H                     0.171786
     48 H                     0.171826
     49 H                     0.185645
     50 C                    -0.556025
     51 H                     0.194083
     52 H                     0.212453
     53 H                     0.136858
     54 H                     0.176018
  ----------------------------------------
  Sum of atomic charges =     0.000000

                    Cartesian Multipole Moments
 -----------------------------------------------------------------
    Charge (ESU x 10^10)
                 0.0000
    Dipole Moment (Debye)
         X       0.2634      Y       0.3551      Z      -0.8248
       Tot       0.9359
    Quadrupole Moments (Debye-Ang)
        XX    -182.9313     XY      -7.1618     YY    -144.1118
        XZ      17.0112     YZ      14.1601     ZZ    -179.9731

 Total job time:  1637.85s(wall), 3259.89s(cpu)
        *  Thank you very much for using Q-Chem.  Have a nice day.  *
