 Q-Chem 5.0, Q-Chem, Inc., Pleasanton, CA (2017)
 Q-Chem 5.0.1 for Intel X86 EM64T Linux

User input:
--------------------------------------------------------------
$molecule
0  1
--
0  1
C        -0.54444000        -0.68370000        -0.06689000
C        -0.55709000        +0.71878000        +0.05493000
C        +0.74969000        -1.43776000        -0.09374000
C        +0.72843000        +1.48436000        +0.06598000
O        +1.53645000        -1.09176000        +0.94813000
O        +1.04702000        -2.28405000        -0.90088000
O        +1.53784000        +1.08301000        -0.93877000
O        +1.01035000        +2.37097000        +0.83478000
C        +2.83449000        +1.70121000        -0.99358000
C        +2.82316000        -1.73208000        +1.00475000
C        -1.74320000        -1.41616000        -0.12552000
C        -2.93952000        -0.70056000        -0.05285000
C        -2.95313000        +0.68255000        +0.06934000
C        -1.77161000        +1.42404000        +0.12810000
H        +2.73835000        +2.77989000        -1.12464000
H        +2.70778000        -2.81319000        +1.09555000
H        -3.90354000        +1.20325000        +0.11710000
H        +3.38998000        +1.50093000        -0.07544000
H        +3.33184000        +1.25269000        -1.85067000
H        +3.31095000        -1.32281000        +1.88650000
H        +3.39889000        -1.50934000        +0.10459000
H        -3.87892000        -1.24211000        -0.08988000
C        -1.83960000        +2.92746000        +0.24839000
C        -1.78103000        -2.92226000        -0.24590000
H        -1.39752000        -3.25223000        -1.21323000
H        -2.80572000        -3.28175000        -0.13627000
H        -1.16958000        -3.40777000        +0.51926000
H        -1.24214000        +3.42352000        -0.52065000
H        -1.45503000        +3.26427000        +1.21284000
H        -2.87211000        +3.26623000        +0.14638000
--
0  1
C        -0.50590000        -1.17197000        +5.51165000
C        -0.51855000        +0.23051000        +5.63347000
C        +0.78823000        -1.92603000        +5.48480000
C        +0.76697000        +0.99609000        +5.64452000
O        +1.57499000        -1.58003000        +6.52667000
O        +1.08556000        -2.77232000        +4.67766000
O        +1.57638000        +0.59474000        +4.63977000
O        +1.04889000        +1.88270000        +6.41332000
C        +2.87303000        +1.21294000        +4.58496000
C        +2.86170000        -2.22035000        +6.58329000
C        -1.70466000        -1.90443000        +5.45302000
C        -2.90098000        -1.18883000        +5.52569000
C        -2.91459000        +0.19428000        +5.64788000
C        -1.73307000        +0.93577000        +5.70664000
H        +2.77689000        +2.29162000        +4.45390000
H        +2.74632000        -3.30146000        +6.67409000
H        -3.86500000        +0.71498000        +5.69564000
H        +3.42852000        +1.01266000        +5.50310000
H        +3.37038000        +0.76442000        +3.72787000
H        +3.34949000        -1.81108000        +7.46504000
H        +3.43743000        -1.99761000        +5.68313000
H        -3.84038000        -1.73038000        +5.48866000
C        -1.80106000        +2.43919000        +5.82693000
C        -1.74249000        -3.41053000        +5.33264000
H        -1.35898000        -3.74050000        +4.36531000
H        -2.76718000        -3.77002000        +5.44227000
H        -1.13104000        -3.89604000        +6.09780000
H        -1.20360000        +2.93525000        +5.05789000
H        -1.41649000        +2.77600000        +6.79138000
H        -2.83357000        +2.77796000        +5.72492000
$end

$rem
JOBTYPE                   SP
METHOD                    B3LYP
DFT_D                     d3_op
BASIS                     6-311++G(d,p)
SYMMETRY                  False
THRESH                    12
SCF_CONVERGENCE           8
MAX_SUB_FILE_NUM          128
MEM_STATIC                400
MEM_TOTAL                 4000
$end
--------------------------------------------------------------

             Standard Nuclear Orientation (Angstroms)
    I     Atom           X                Y                Z
 ----------------------------------------------------------------
    1      C      -2.7731726999     0.4958159828     0.8428023299
    2      C      -2.8397248844     0.5629450807    -0.5618381138
    3      C      -2.6857110036    -0.8259442495     1.5423737723
    4      C      -2.9175719659    -0.6926319530    -1.3719385112
    5      O      -1.6912081812    -1.5829011596     1.0303378685
    6      O      -3.3695712157    -1.1673015288     2.4761281784
    7      O      -3.8513143558    -1.5320289516    -0.8726522596
    8      O      -2.2710670272    -0.9291304950    -2.3632555253
    9      C      -3.9746470504    -2.8052767678    -1.5284766597
   10      C      -1.5362818915    -2.8916857150     1.6064619725
   11      C      -2.7459953267     1.6652077986     1.6230233483
   12      C      -2.7819007278     2.8885077653     0.9516115336
   13      C      -2.8455115170     2.9558753753    -0.4338574025
   14      C      -2.8739441795     1.8040500260    -1.2223620736
   15      H      -4.2494643216    -2.6707968998    -2.5755491491
   16      H      -1.3032364057    -2.8155362120     2.6695927600
   17      H      -2.8775399717     3.9257717747    -0.9185880784
   18      H      -3.0322697974    -3.3535629933    -1.4739825691
   19      H      -4.7590068681    -3.3323470826    -0.9898608034
   20      H      -0.7120081760    -3.3500325715     1.0647839496
   21      H      -2.4520814530    -3.4725656577     1.4829475134
   22      H      -2.7560969542     3.8062485337     1.5297170870
   23      C      -2.9560570027     1.9302353568    -2.7245933365
   24      C      -2.6647138400     1.6446533485     3.1320728829
   25      H      -3.5753240170     1.2340634074     3.5724050936
   26      H      -2.5187498112     2.6567190870     3.5137256521
   27      H      -1.8352979608     1.0273806083     3.4871849100
   28      H      -3.7781618435     1.3399298426    -3.1370730662
   29      H      -2.0412311658     1.5735901200    -3.2014546651
   30      H      -3.1130847207     2.9730154125    -3.0060184675
   31      C       2.8207295415     0.5256211933     0.5832434364
   32      C       2.7541773570     0.5927502911    -0.8213970073
   33      C       2.9081912378    -0.7961390390     1.2828148789
   34      C       2.6763302755    -0.6628267425    -1.6314974047
   35      O       3.9026940602    -1.5530959491     0.7707789750
   36      O       2.2243310257    -1.1374963183     2.2165692849
   37      O       1.7425878856    -1.5022237411    -1.1322111531
   38      O       3.3228352142    -0.8993252845    -2.6228144188
   39      C       1.6192551910    -2.7754715573    -1.7880355532
   40      C       4.0576203499    -2.8618805045     1.3469030790
   41      C       2.8479069147     1.6950130091     1.3634644548
   42      C       2.8120015136     2.9183129758     0.6920526401
   43      C       2.7483907244     2.9856805858    -0.6934162960
   44      C       2.7199580619     1.8338552365    -1.4819209671
   45      H       1.3444379198    -2.6409916893    -2.8351080426
   46      H       4.2906658357    -2.7857310015     2.4100338665
   47      H       2.7163622697     3.9555769852    -1.1781469719
   48      H       2.5616324440    -3.3237577828    -1.7335414626
   49      H       0.8348953733    -3.3025418721    -1.2494196969
   50      H       4.8818940654    -3.3202273610     0.8052250561
   51      H       3.1418207884    -3.4427604472     1.2233886199
   52      H       2.8378052872     3.8360537442     1.2701581935
   53      C       2.6378452387     1.9600405673    -2.9841522300
   54      C       2.9291884014     1.6744585590     2.8725139894
   55      H       2.0185782244     1.2638686178     3.3128462001
   56      H       3.0751524302     2.6865242975     3.2541667586
   57      H       3.7586042806     1.0571858188     3.2276260165
   58      H       1.8157403979     1.3697350530    -3.3966319597
   59      H       3.5526710756     1.6033953305    -3.4610135586
   60      H       2.4808175207     3.0028206230    -3.2655773610
 ----------------------------------------------------------------

   14   -1533.7569625271      9.37E-09 Convergence criterion met
 Total energy in the final basis set = -1533.75696253

                    Orbital Energies (a.u.)
 --------------------------------------------------------------

 Alpha MOs
 -- Occupied --
-19.175 -19.175 -19.171 -19.170 -19.118 -19.118 -19.115 -19.114
-10.310 -10.309 -10.307 -10.306 -10.232 -10.232 -10.228 -10.227
-10.203 -10.202 -10.202 -10.202 -10.199 -10.199 -10.198 -10.198
-10.184 -10.184 -10.183 -10.183 -10.170 -10.169 -10.167 -10.167
 -1.119  -1.118  -1.111  -1.110  -1.030  -1.030  -1.026  -1.025
 -0.882  -0.882  -0.805  -0.804  -0.793  -0.792  -0.744  -0.744
 -0.732  -0.731  -0.722  -0.722  -0.673  -0.672  -0.646  -0.646
 -0.618  -0.617  -0.575  -0.574  -0.562  -0.562  -0.534  -0.534
 -0.515  -0.514  -0.512  -0.512  -0.489  -0.489  -0.485  -0.484
 -0.478  -0.477  -0.475  -0.474  -0.467  -0.466  -0.441  -0.439
 -0.432  -0.431  -0.428  -0.426  -0.418  -0.417  -0.414  -0.413
 -0.409  -0.409  -0.403  -0.403  -0.394  -0.393  -0.385  -0.385
 -0.378  -0.377  -0.371  -0.369  -0.360  -0.359  -0.356  -0.355
 -0.355  -0.354  -0.319  -0.318  -0.310  -0.309  -0.292  -0.291
 -0.289  -0.288  -0.264  -0.263  -0.251  -0.250

          Ground-State Mulliken Net Atomic Charges

     Atom                 Charge (a.u.)
  ----------------------------------------
      1 C                     0.517516
      2 C                     0.789645
      3 C                    -0.702543
      4 C                    -1.055302
      5 O                     0.128038
      6 O                    -0.153494
      7 O                     0.073350
      8 O                    -0.087252
      9 C                    -0.187715
     10 C                    -0.311240
     11 C                     0.550155
     12 C                    -0.489029
     13 C                    -0.472509
     14 C                     0.350064
     15 H                     0.166961
     16 H                     0.188753
     17 H                     0.155987
     18 H                     0.173344
     19 H                     0.173014
     20 H                     0.110740
     21 H                     0.189942
     22 H                     0.150760
     23 C                    -0.654910
     24 C                    -0.642167
     25 H                     0.212885
     26 H                     0.135833
     27 H                     0.192576
     28 H                     0.171561
     29 H                     0.186975
     30 H                     0.138629
     31 C                     0.771707
     32 C                     0.497967
     33 C                    -1.106771
     34 C                    -0.648191
     35 O                     0.087863
     36 O                    -0.075055
     37 O                     0.106968
     38 O                    -0.155503
     39 C                    -0.312521
     40 C                    -0.187093
     41 C                     0.359238
     42 C                    -0.460211
     43 C                    -0.487450
     44 C                     0.557719
     45 H                     0.191373
     46 H                     0.166374
     47 H                     0.150342
     48 H                     0.193082
     49 H                     0.110101
     50 H                     0.171008
     51 H                     0.172919
     52 H                     0.156871
     53 C                    -0.631165
     54 C                    -0.667547
     55 H                     0.187624
     56 H                     0.139617
     57 H                     0.171647
     58 H                     0.192026
     59 H                     0.211917
     60 H                     0.134578
  ----------------------------------------
  Sum of atomic charges =     0.000000

                    Cartesian Multipole Moments
 -----------------------------------------------------------------
    Charge (ESU x 10^10)
                 0.0000
    Dipole Moment (Debye)
         X       0.1838      Y      -0.1053      Z       0.1844
       Tot       0.2809
    Quadrupole Moments (Debye-Ang)
        XX    -195.6158     XY      -1.3716     YY    -154.0757
        XZ      17.7870     YZ       1.7239     ZZ    -195.8562

 Total job time:  2208.44s(wall), 4394.89s(cpu)
        *  Thank you very much for using Q-Chem.  Have a nice day.  *
