 Q-Chem 5.0, Q-Chem, Inc., Pleasanton, CA (2017)
 Q-Chem 5.0.1 for Intel X86 EM64T Linux

User input:
--------------------------------------------------------------
$molecule
0  1
C        -0.50590000        -1.17197000        +5.51165000
C        -0.51855000        +0.23051000        +5.63347000
C        +0.78823000        -1.92603000        +5.48480000
C        +0.76697000        +0.99609000        +5.64452000
O        +1.57499000        -1.58003000        +6.52667000
O        +1.08556000        -2.77232000        +4.67766000
O        +1.57638000        +0.59474000        +4.63977000
O        +1.04889000        +1.88270000        +6.41332000
C        +2.87303000        +1.21294000        +4.58496000
C        +2.86170000        -2.22035000        +6.58329000
C        -1.70466000        -1.90443000        +5.45302000
C        -2.90098000        -1.18883000        +5.52569000
C        -2.91459000        +0.19428000        +5.64788000
C        -1.73307000        +0.93577000        +5.70664000
H        +2.77689000        +2.29162000        +4.45390000
H        +2.74632000        -3.30146000        +6.67409000
H        -3.86500000        +0.71498000        +5.69564000
H        +3.42852000        +1.01266000        +5.50310000
H        +3.37038000        +0.76442000        +3.72787000
H        +3.34949000        -1.81108000        +7.46504000
H        +3.43743000        -1.99761000        +5.68313000
H        -3.84038000        -1.73038000        +5.48866000
C        -1.80106000        +2.43919000        +5.82693000
C        -1.74249000        -3.41053000        +5.33264000
H        -1.35898000        -3.74050000        +4.36531000
H        -2.76718000        -3.77002000        +5.44227000
H        -1.13104000        -3.89604000        +6.09780000
H        -1.20360000        +2.93525000        +5.05789000
H        -1.41649000        +2.77600000        +6.79138000
H        -2.83357000        +2.77796000        +5.72492000
@C        -0.54444000        -0.68370000        -0.06689000
@C        -0.55709000        +0.71878000        +0.05493000
@C        +0.74969000        -1.43776000        -0.09374000
@C        +0.72843000        +1.48436000        +0.06598000
@O        +1.53645000        -1.09176000        +0.94813000
@O        +1.04702000        -2.28405000        -0.90088000
@O        +1.53784000        +1.08301000        -0.93877000
@O        +1.01035000        +2.37097000        +0.83478000
@C        +2.83449000        +1.70121000        -0.99358000
@C        +2.82316000        -1.73208000        +1.00475000
@C        -1.74320000        -1.41616000        -0.12552000
@C        -2.93952000        -0.70056000        -0.05285000
@C        -2.95313000        +0.68255000        +0.06934000
@C        -1.77161000        +1.42404000        +0.12810000
@H        +2.73835000        +2.77989000        -1.12464000
@H        +2.70778000        -2.81319000        +1.09555000
@H        -3.90354000        +1.20325000        +0.11710000
@H        +3.38998000        +1.50093000        -0.07544000
@H        +3.33184000        +1.25269000        -1.85067000
@H        +3.31095000        -1.32281000        +1.88650000
@H        +3.39889000        -1.50934000        +0.10459000
@H        -3.87892000        -1.24211000        -0.08988000
@C        -1.83960000        +2.92746000        +0.24839000
@C        -1.78103000        -2.92226000        -0.24590000
@H        -1.39752000        -3.25223000        -1.21323000
@H        -2.80572000        -3.28175000        -0.13627000
@H        -1.16958000        -3.40777000        +0.51926000
@H        -1.24214000        +3.42352000        -0.52065000
@H        -1.45503000        +3.26427000        +1.21284000
@H        -2.87211000        +3.26623000        +0.14638000
$end

$rem
JOBTYPE                   SP
METHOD                    B3LYP
DFT_D                     d3_op
BASIS                     6-311++G(d,p)
SYMMETRY                  False
THRESH                    12
SCF_CONVERGENCE           8
MAX_SUB_FILE_NUM          128
MEM_STATIC                400
MEM_TOTAL                 4000
$end
--------------------------------------------------------------

             Standard Nuclear Orientation (Angstroms)
    I     Atom           X                Y                Z
 ----------------------------------------------------------------
    1      C      -0.5059000000    -1.1719700000     5.5116500000
    2      C      -0.5185500000     0.2305100000     5.6334700000
    3      C       0.7882300000    -1.9260300000     5.4848000000
    4      C       0.7669700000     0.9960900000     5.6445200000
    5      O       1.5749900000    -1.5800300000     6.5266700000
    6      O       1.0855600000    -2.7723200000     4.6776600000
    7      O       1.5763800000     0.5947400000     4.6397700000
    8      O       1.0488900000     1.8827000000     6.4133200000
    9      C       2.8730300000     1.2129400000     4.5849600000
   10      C       2.8617000000    -2.2203500000     6.5832900000
   11      C      -1.7046600000    -1.9044300000     5.4530200000
   12      C      -2.9009800000    -1.1888300000     5.5256900000
   13      C      -2.9145900000     0.1942800000     5.6478800000
   14      C      -1.7330700000     0.9357700000     5.7066400000
   15      H       2.7768900000     2.2916200000     4.4539000000
   16      H       2.7463200000    -3.3014600000     6.6740900000
   17      H      -3.8650000000     0.7149800000     5.6956400000
   18      H       3.4285200000     1.0126600000     5.5031000000
   19      H       3.3703800000     0.7644200000     3.7278700000
   20      H       3.3494900000    -1.8110800000     7.4650400000
   21      H       3.4374300000    -1.9976100000     5.6831300000
   22      H      -3.8403800000    -1.7303800000     5.4886600000
   23      C      -1.8010600000     2.4391900000     5.8269300000
   24      C      -1.7424900000    -3.4105300000     5.3326400000
   25      H      -1.3589800000    -3.7405000000     4.3653100000
   26      H      -2.7671800000    -3.7700200000     5.4422700000
   27      H      -1.1310400000    -3.8960400000     6.0978000000
   28      H      -1.2036000000     2.9352500000     5.0578900000
   29      H      -1.4164900000     2.7760000000     6.7913800000
   30      H      -2.8335700000     2.7779600000     5.7249200000
   31      GH     -0.5444400000    -0.6837000000    -0.0668900000
   32      GH     -0.5570900000     0.7187800000     0.0549300000
   33      GH      0.7496900000    -1.4377600000    -0.0937400000
   34      GH      0.7284300000     1.4843600000     0.0659800000
   35      GH      1.5364500000    -1.0917600000     0.9481300000
   36      GH      1.0470200000    -2.2840500000    -0.9008800000
   37      GH      1.5378400000     1.0830100000    -0.9387700000
   38      GH      1.0103500000     2.3709700000     0.8347800000
   39      GH      2.8344900000     1.7012100000    -0.9935800000
   40      GH      2.8231600000    -1.7320800000     1.0047500000
   41      GH     -1.7432000000    -1.4161600000    -0.1255200000
   42      GH     -2.9395200000    -0.7005600000    -0.0528500000
   43      GH     -2.9531300000     0.6825500000     0.0693400000
   44      GH     -1.7716100000     1.4240400000     0.1281000000
   45      GH      2.7383500000     2.7798900000    -1.1246400000
   46      GH      2.7077800000    -2.8131900000     1.0955500000
   47      GH     -3.9035400000     1.2032500000     0.1171000000
   48      GH      3.3899800000     1.5009300000    -0.0754400000
   49      GH      3.3318400000     1.2526900000    -1.8506700000
   50      GH      3.3109500000    -1.3228100000     1.8865000000
   51      GH      3.3988900000    -1.5093400000     0.1045900000
   52      GH     -3.8789200000    -1.2421100000    -0.0898800000
   53      GH     -1.8396000000     2.9274600000     0.2483900000
   54      GH     -1.7810300000    -2.9222600000    -0.2459000000
   55      GH     -1.3975200000    -3.2522300000    -1.2132300000
   56      GH     -2.8057200000    -3.2817500000    -0.1362700000
   57      GH     -1.1695800000    -3.4077700000     0.5192600000
   58      GH     -1.2421400000     3.4235200000    -0.5206500000
   59      GH     -1.4550300000     3.2642700000     1.2128400000
   60      GH     -2.8721100000     3.2662300000     0.1463800000
 ----------------------------------------------------------------

   14    -766.8769140638      5.96E-09 Convergence criterion met
 Total energy in the final basis set = -766.87691406

                    Orbital Energies (a.u.)
 --------------------------------------------------------------

 Alpha MOs
 -- Occupied --
-19.176 -19.176 -19.119 -19.119 -10.311 -10.311 -10.232 -10.232
-10.205 -10.205 -10.201 -10.201 -10.187 -10.186 -10.171 -10.170
 -1.121  -1.114  -1.031  -1.030  -0.885  -0.807  -0.795  -0.747
 -0.734  -0.725  -0.675  -0.649  -0.620  -0.577  -0.565  -0.537
 -0.517  -0.515  -0.491  -0.489  -0.480  -0.477  -0.469  -0.442
 -0.434  -0.429  -0.420  -0.416  -0.411  -0.406  -0.396  -0.387
 -0.380  -0.373  -0.362  -0.359  -0.357  -0.321  -0.313  -0.293
 -0.292  -0.266  -0.253

          Ground-State Mulliken Net Atomic Charges

     Atom                 Charge (a.u.)
  ----------------------------------------
      1 C                     0.754428
      2 C                     0.467896
      3 C                    -1.103603
      4 C                    -0.648305
      5 O                     0.086176
      6 O                    -0.066212
      7 O                     0.101995
      8 O                    -0.151164
      9 C                    -0.324388
     10 C                    -0.187805
     11 C                     0.354125
     12 C                    -0.455764
     13 C                    -0.481975
     14 C                     0.568388
     15 H                     0.187580
     16 H                     0.166455
     17 H                     0.153188
     18 H                     0.195229
     19 H                     0.114864
     20 H                     0.170495
     21 H                     0.175940
     22 H                     0.159143
     23 C                    -0.621355
     24 C                    -0.657568
     25 H                     0.196375
     26 H                     0.139972
     27 H                     0.171944
     28 H                     0.187276
     29 H                     0.212787
     30 H                     0.136954
     31 GH                    0.010082
     32 GH                    0.016352
     33 GH                    0.007724
     34 GH                   -0.011523
     35 GH                   -0.005240
     36 GH                   -0.000126
     37 GH                    0.000122
     38 GH                    0.000513
     39 GH                   -0.002884
     40 GH                   -0.005213
     41 GH                   -0.010436
     42 GH                   -0.002104
     43 GH                   -0.000156
     44 GH                    0.000304
     45 GH                    0.000128
     46 GH                   -0.001030
     47 GH                   -0.000272
     48 GH                    0.001544
     49 GH                   -0.000168
     50 GH                    0.017476
     51 GH                    0.000473
     52 GH                   -0.001002
     53 GH                   -0.005850
     54 GH                   -0.007524
     55 GH                    0.000030
     56 GH                    0.000492
     57 GH                   -0.000694
     58 GH                   -0.000041
     59 GH                   -0.004158
     60 GH                    0.000107
  ----------------------------------------
  Sum of atomic charges =     0.000000

                    Cartesian Multipole Moments
 -----------------------------------------------------------------
    Charge (ESU x 10^10)
                 0.0000
    Dipole Moment (Debye)
         X       0.0683      Y      -0.1076      Z       0.0552
       Tot       0.1389
    Quadrupole Moments (Debye-Ang)
        XX     -76.1482     XY      -0.1200     YY     -95.3272
        XZ       0.5267     YZ      -9.5734     ZZ     -98.8856

 Total job time:  2110.38s(wall), 4198.97s(cpu)
        *  Thank you very much for using Q-Chem.  Have a nice day.  *
