                               Psi4 1.1 release

  ==> Input File <==

--------------------------------------------------------------------------
memory 750000 mb

molecule mol {
0 1
C         -0.14230       -1.73813        0.16690
O          0.09691       -2.52407       -0.71074
O         -1.20077       -1.86228        1.00655
C         -2.14533       -2.89369        0.66941
H         -1.65689       -3.86851        0.63899
H         -2.59290       -2.68071       -0.30268
H         -2.89899       -2.86648        1.45383
--
0 1
C         -1.37019        0.85200       -0.17075
O         -1.67359        0.11515       -1.07440
O         -2.13335        1.89734        0.22345
C         -3.35128        2.10070       -0.51844
H         -3.13131        2.28038       -1.57184
H         -3.82220        2.97245       -0.06962
H         -3.99903        1.22707       -0.43181
--
0 1
C          2.65427       -1.20325       -1.06634
H          3.52625       -0.75591       -1.54978
H          2.99155       -2.03223       -0.43918
H          1.98235       -1.60404       -1.82059
H          0.52692        2.66149       -0.45716
C         -0.09292        0.81275        0.64111
C          0.68739       -0.54075        0.60387
C          0.95142        1.75590       -0.02848
C          2.14556        1.96475        0.92772
C          2.89769        0.61492        0.75433
C          1.96574       -0.15328       -0.22503
O          1.48433        0.92751       -1.05847
H         -0.32751        1.13183        1.65588
H          0.98485       -0.78601        1.62725
H          2.75369        2.80782        0.59695
H          1.82667        2.15972        1.95373
H          3.87084        0.76417        0.28330
H          3.05495        0.07903        1.69237

symmetry c1
no_reorient
no_com
}

set {
basis jun-cc-pvdz
scf_type df
guess sad
freeze_core true
}

energy('fisapt0')
--------------------------------------------------------------------------

    Molecular point group: c1

    Geometry (in Angstrom), charge = 0, multiplicity = 1:

       Center              X                  Y                   Z               Mass
    ------------   -----------------  -----------------  -----------------  -----------------
           C         -0.142300000000    -1.738130000000     0.166900000000    12.000000000000
           O          0.096910000000    -2.524070000000    -0.710740000000    15.994914619560
           O         -1.200770000000    -1.862280000000     1.006550000000    15.994914619560
           C         -2.145330000000    -2.893690000000     0.669410000000    12.000000000000
           H         -1.656890000000    -3.868510000000     0.638990000000     1.007825032070
           H         -2.592900000000    -2.680710000000    -0.302680000000     1.007825032070
           H         -2.898990000000    -2.866480000000     1.453830000000     1.007825032070
           C         -1.370190000000     0.852000000000    -0.170750000000    12.000000000000
           O         -1.673590000000     0.115150000000    -1.074400000000    15.994914619560
           O         -2.133350000000     1.897340000000     0.223450000000    15.994914619560
           C         -3.351280000000     2.100700000000    -0.518440000000    12.000000000000
           H         -3.131310000000     2.280380000000    -1.571840000000     1.007825032070
           H         -3.822200000000     2.972450000000    -0.069620000000     1.007825032070
           H         -3.999030000000     1.227070000000    -0.431810000000     1.007825032070
           C          2.654270000000    -1.203250000000    -1.066340000000    12.000000000000
           H          3.526250000000    -0.755910000000    -1.549780000000     1.007825032070
           H          2.991550000000    -2.032230000000    -0.439180000000     1.007825032070
           H          1.982350000000    -1.604040000000    -1.820590000000     1.007825032070
           H          0.526920000000     2.661490000000    -0.457160000000     1.007825032070
           C         -0.092920000000     0.812750000000     0.641110000000    12.000000000000
           C          0.687390000000    -0.540750000000     0.603870000000    12.000000000000
           C          0.951420000000     1.755900000000    -0.028480000000    12.000000000000
           C          2.145560000000     1.964750000000     0.927720000000    12.000000000000
           C          2.897690000000     0.614920000000     0.754330000000    12.000000000000
           C          1.965740000000    -0.153280000000    -0.225030000000    12.000000000000
           O          1.484330000000     0.927510000000    -1.058470000000    15.994914619560
           H         -0.327510000000     1.131830000000     1.655880000000     1.007825032070
           H          0.984850000000    -0.786010000000     1.627250000000     1.007825032070
           H          2.753690000000     2.807820000000     0.596950000000     1.007825032070
           H          1.826670000000     2.159720000000     1.953730000000     1.007825032070
           H          3.870840000000     0.764170000000     0.283300000000     1.007825032070
           H          3.054950000000     0.079030000000     1.692370000000     1.007825032070

  Charge       = 0
  Multiplicity = 1
  Basis Set: JUN-CC-PVDZ
    Blend: JUN-CC-PVDZ
  Basis Set: (JUN-CC-PVDZ AUX)
    Blend: JUN-CC-PVDZ-JKFIT

    Orbital Energies (a.u.)
    -----------------------

    Doubly Occupied:

       1A    -20.614074     2A    -20.602002     3A    -20.564879
       4A    -20.558017     5A    -20.548028     6A    -11.392226
       7A    -11.386858     8A    -11.300387     9A    -11.299058
      10A    -11.298211    11A    -11.287427    12A    -11.267151
      13A    -11.265007    14A    -11.241934    15A    -11.237702
      16A    -11.214776    17A     -1.469766    18A     -1.457802
      19A     -1.402822    20A     -1.368872    21A     -1.359403
      22A     -1.114688    23A     -1.062134    24A     -1.047146
      25A     -0.994875    26A     -0.965212    27A     -0.927935
      28A     -0.881690    29A     -0.818224    30A     -0.800501
      31A     -0.772438    32A     -0.754396    33A     -0.721305
      34A     -0.696709    35A     -0.687481    36A     -0.678567
      37A     -0.667829    38A     -0.667210    39A     -0.659571
      40A     -0.650355    41A     -0.627256    42A     -0.593330
      43A     -0.583382    44A     -0.578340    45A     -0.564699
      46A     -0.559375    47A     -0.542166    48A     -0.534374
      49A     -0.525640    50A     -0.516544    51A     -0.511067
      52A     -0.506063    53A     -0.504693    54A     -0.492109
      55A     -0.476211    56A     -0.471060    57A     -0.467159
      58A     -0.456227    59A     -0.447663    60A     -0.427178
      61A     -0.422353

  @DF-RHF Final Energy:  -800.26837796710720

   => Energetics <=

    Nuclear Repulsion Energy =           1249.1772238564460622
    One-Electron Energy =               -3577.8680926675824594
    Two-Electron Energy =                1528.4224908440289710
    DFT Exchange-Correlation Energy =       0.0000000000000000
    Empirical Dispersion Energy =           0.0000000000000000
    PCM Polarization Energy =               0.0000000000000000
    EFP Energy =                            0.0000000000000000
    Total Energy =                       -800.2683779671071989
  Basis Set: (JUN-CC-PVDZ AUX)
    Blend: JUN-CC-PVDZ-JKFIT
  Basis Set: (JUN-CC-PVDZ AUX)
    Blend: JUN-CC-PVDZ-JKFIT
  Basis Set: (JUN-CC-PVDZ AUX)
    Blend: JUN-CC-PVDZ-JKFIT
  Basis Set: (JUN-CC-PVDZ AUX)
    Blend: JUN-CC-PVDZ-JKFIT
  Basis Set: (JUN-CC-PVDZ AUX)
    Blend: JUN-CC-PVDZ-RI

    SAPT Results
  --------------------------------------------------------------------------------------------------------
    Electrostatics                 11.71243504 [mEh]       7.34966426 [kcal/mol]      30.75099820 [kJ/mol]
      Elst10,r                     11.71243504 [mEh]       7.34966426 [kcal/mol]      30.75099820 [kJ/mol]

    Exchange                        8.20016198 [mEh]       5.14567954 [kcal/mol]      21.52952528 [kJ/mol]
      Exch10                        8.20016198 [mEh]       5.14567954 [kcal/mol]      21.52952528 [kJ/mol]
      Exch10(S^2)                   8.17184828 [mEh]       5.12791243 [kcal/mol]      21.45518767 [kJ/mol]

    Induction                      -2.69456675 [mEh]      -1.69086623 [kcal/mol]      -7.07458500 [kJ/mol]
      Ind20,r                      -5.32258512 [mEh]      -3.33997273 [kcal/mol]     -13.97444725 [kJ/mol]
      Exch-Ind20,r                  3.22365744 [mEh]       2.02287567 [kcal/mol]       8.46371261 [kJ/mol]
      delta HF,r (2)               -0.59563907 [mEh]      -0.37376917 [kcal/mol]      -1.56385037 [kJ/mol]
      Induction (A<-B)             -1.56031645 [mEh]      -0.97911339 [kcal/mol]      -4.09661083 [kJ/mol]
      Induction (B<-A)             -1.13425030 [mEh]      -0.71175284 [kcal/mol]      -2.97797417 [kJ/mol]

    Dispersion                     -3.78136383 [mEh]      -2.37284173 [kcal/mol]      -9.92797074 [kJ/mol]
      Disp20                       -4.43000815 [mEh]      -2.77987220 [kcal/mol]     -11.63098640 [kJ/mol]
      Exch-Disp20                   0.64864432 [mEh]       0.40703047 [kcal/mol]       1.70301565 [kJ/mol]

  Total HF                         17.21803027 [mEh]      10.80447757 [kcal/mol]      45.20593847 [kJ/mol]
  Total SAPT0                      13.43666644 [mEh]       8.43163584 [kcal/mol]      35.27796773 [kJ/mol]

  --------------------------------------------------------------------------------------------------------

*** Psi4 exiting successfully. Buy a developer a beer!
