                               Psi4 1.1 release

  ==> Input File <==

--------------------------------------------------------------------------
memory 750000 mb

molecule mol {
0 1
C          2.58623       -1.59219       -0.70839
H          3.50306       -1.31747       -1.23521
H          2.82412       -2.31989        0.06819
H          1.90521       -2.06477       -1.41467
--
0 1
C         -0.23982       -1.65055        0.37426
O          0.18447       -2.78016        0.33292
O         -1.54412       -1.35634        0.24292
C         -2.42732       -2.46165       -0.02327
H         -2.39236       -3.18239        0.79494
H         -2.14505       -2.95474       -0.95389
H         -3.41910       -2.02363       -0.10805
--
0 1
H          0.87129        2.49330       -0.95575
C         -1.27734        1.15395       -0.23637
O         -1.43988        1.08959       -1.42788
O         -2.26709        1.45906        0.63569
C         -3.57921        1.59359        0.06621
H         -3.87593        0.66533       -0.42531
H         -3.60269        2.40478       -0.66340
H         -4.24017        1.81189        0.90247
C          0.04606        1.01189        0.49572
C          0.62294       -0.43870        0.69252
C          1.18974        1.66387       -0.32917
C          2.39451        1.93498        0.59484
C          2.95966        0.49692        0.76560
C          1.98303       -0.34121       -0.10961
O          1.64458        0.58919       -1.15161
H         -0.07456        1.49288        1.46592
H          0.85373       -0.58053        1.75238
H          3.11218        2.58871        0.09688
H          2.10465        2.40682        1.53594
H          3.96935        0.41718        0.35924
H          2.98798        0.15733        1.80281

symmetry c1
no_reorient
no_com
}

set {
basis jun-cc-pvdz
scf_type df
guess sad
freeze_core true
}

energy('fisapt0')
--------------------------------------------------------------------------

    Molecular point group: c1

    Geometry (in Angstrom), charge = 0, multiplicity = 1:

       Center              X                  Y                   Z               Mass
    ------------   -----------------  -----------------  -----------------  -----------------
           C          2.586230000000    -1.592190000000    -0.708390000000    12.000000000000
           H          3.503060000000    -1.317470000000    -1.235210000000     1.007825032070
           H          2.824120000000    -2.319890000000     0.068190000000     1.007825032070
           H          1.905210000000    -2.064770000000    -1.414670000000     1.007825032070
           C         -0.239820000000    -1.650550000000     0.374260000000    12.000000000000
           O          0.184470000000    -2.780160000000     0.332920000000    15.994914619560
           O         -1.544120000000    -1.356340000000     0.242920000000    15.994914619560
           C         -2.427320000000    -2.461650000000    -0.023270000000    12.000000000000
           H         -2.392360000000    -3.182390000000     0.794940000000     1.007825032070
           H         -2.145050000000    -2.954740000000    -0.953890000000     1.007825032070
           H         -3.419100000000    -2.023630000000    -0.108050000000     1.007825032070
           H          0.871290000000     2.493300000000    -0.955750000000     1.007825032070
           C         -1.277340000000     1.153950000000    -0.236370000000    12.000000000000
           O         -1.439880000000     1.089590000000    -1.427880000000    15.994914619560
           O         -2.267090000000     1.459060000000     0.635690000000    15.994914619560
           C         -3.579210000000     1.593590000000     0.066210000000    12.000000000000
           H         -3.875930000000     0.665330000000    -0.425310000000     1.007825032070
           H         -3.602690000000     2.404780000000    -0.663400000000     1.007825032070
           H         -4.240170000000     1.811890000000     0.902470000000     1.007825032070
           C          0.046060000000     1.011890000000     0.495720000000    12.000000000000
           C          0.622940000000    -0.438700000000     0.692520000000    12.000000000000
           C          1.189740000000     1.663870000000    -0.329170000000    12.000000000000
           C          2.394510000000     1.934980000000     0.594840000000    12.000000000000
           C          2.959660000000     0.496920000000     0.765600000000    12.000000000000
           C          1.983030000000    -0.341210000000    -0.109610000000    12.000000000000
           O          1.644580000000     0.589190000000    -1.151610000000    15.994914619560
           H         -0.074560000000     1.492880000000     1.465920000000     1.007825032070
           H          0.853730000000    -0.580530000000     1.752380000000     1.007825032070
           H          3.112180000000     2.588710000000     0.096880000000     1.007825032070
           H          2.104650000000     2.406820000000     1.535940000000     1.007825032070
           H          3.969350000000     0.417180000000     0.359240000000     1.007825032070
           H          2.987980000000     0.157330000000     1.802810000000     1.007825032070

  Charge       = 0
  Multiplicity = 1
  Basis Set: JUN-CC-PVDZ
    Blend: JUN-CC-PVDZ
  Basis Set: (JUN-CC-PVDZ AUX)
    Blend: JUN-CC-PVDZ-JKFIT

    Orbital Energies (a.u.)
    -----------------------

    Doubly Occupied:

       1A    -20.616783     2A    -20.606273     3A    -20.563120
       4A    -20.557141     5A    -20.547587     6A    -11.397320
       7A    -11.386869     8A    -11.302343     9A    -11.300047
      10A    -11.293707    11A    -11.293584    12A    -11.273459
      13A    -11.263644    14A    -11.239209    15A    -11.237758
      16A    -11.218861    17A     -1.474841    18A     -1.459971
      19A     -1.402950    20A     -1.370371    21A     -1.360107
      22A     -1.112348    23A     -1.059317    24A     -1.048542
      25A     -0.994566    26A     -0.971745    27A     -0.933127
      28A     -0.884060    29A     -0.817140    30A     -0.801463
      31A     -0.771202    32A     -0.762116    33A     -0.720919
      34A     -0.700384    35A     -0.688628    36A     -0.679476
      37A     -0.671625    38A     -0.662393    39A     -0.659134
      40A     -0.656290    41A     -0.627571    42A     -0.593614
      43A     -0.584119    44A     -0.580614    45A     -0.566756
      46A     -0.564305    47A     -0.548466    48A     -0.529811
      49A     -0.529256    50A     -0.516533    51A     -0.514414
      52A     -0.507576    53A     -0.498729    54A     -0.492556
      55A     -0.474741    56A     -0.469682    57A     -0.468239
      58A     -0.453815    59A     -0.448472    60A     -0.429939
      61A     -0.424158

  @DF-RHF Final Energy:  -800.26312541474692

   => Energetics <=

    Nuclear Repulsion Energy =           1249.8432356477339908
    One-Electron Energy =               -3579.0451453634636891
    Two-Electron Energy =                1528.9387843009831158
    DFT Exchange-Correlation Energy =       0.0000000000000000
    Empirical Dispersion Energy =           0.0000000000000000
    PCM Polarization Energy =               0.0000000000000000
    EFP Energy =                            0.0000000000000000
    Total Energy =                       -800.2631254147468098
  Basis Set: (JUN-CC-PVDZ AUX)
    Blend: JUN-CC-PVDZ-JKFIT
  Basis Set: (JUN-CC-PVDZ AUX)
    Blend: JUN-CC-PVDZ-JKFIT
  Basis Set: (JUN-CC-PVDZ AUX)
    Blend: JUN-CC-PVDZ-JKFIT
  Basis Set: (JUN-CC-PVDZ AUX)
    Blend: JUN-CC-PVDZ-JKFIT
  Basis Set: (JUN-CC-PVDZ AUX)
    Blend: JUN-CC-PVDZ-RI

    SAPT Results
  --------------------------------------------------------------------------------------------------------
    Electrostatics                  8.75976715 [mEh]       5.49683711 [kcal/mol]      22.99876866 [kJ/mol]
      Elst10,r                      8.75976715 [mEh]       5.49683711 [kcal/mol]      22.99876866 [kJ/mol]

    Exchange                        7.41758293 [mEh]       4.65460375 [kcal/mol]      19.47486397 [kJ/mol]
      Exch10                        7.41758293 [mEh]       4.65460375 [kcal/mol]      19.47486397 [kJ/mol]
      Exch10(S^2)                   7.38722064 [mEh]       4.63555113 [kcal/mol]      19.39514779 [kJ/mol]

    Induction                      -1.53592864 [mEh]      -0.96380981 [kcal/mol]      -4.03258064 [kJ/mol]
      Ind20,r                      -2.84991999 [mEh]      -1.78835187 [kcal/mol]      -7.48246493 [kJ/mol]
      Exch-Ind20,r                  1.83617052 [mEh]       1.15221445 [kcal/mol]       4.82086570 [kJ/mol]
      delta HF,r (2)               -0.52217917 [mEh]      -0.32767239 [kcal/mol]      -1.37098142 [kJ/mol]
      Induction (A<-B)             -1.22185890 [mEh]      -0.76672807 [kcal/mol]      -3.20799053 [kJ/mol]
      Induction (B<-A)             -0.31406974 [mEh]      -0.19708175 [kcal/mol]      -0.82459011 [kJ/mol]

    Dispersion                     -2.34702721 [mEh]      -1.47278187 [kcal/mol]      -6.16211994 [kJ/mol]
      Disp20                       -2.85189961 [mEh]      -1.78959410 [kcal/mol]      -7.48766242 [kJ/mol]
      Exch-Disp20                   0.50487240 [mEh]       0.31681223 [kcal/mol]       1.32554248 [kJ/mol]

  Total HF                         14.64142144 [mEh]       9.18763105 [kcal/mol]      38.44105199 [kJ/mol]
  Total SAPT0                      12.29439423 [mEh]       7.71484918 [kcal/mol]      32.27893205 [kJ/mol]

  --------------------------------------------------------------------------------------------------------

*** Psi4 exiting successfully. Buy a developer a beer!
