                               Psi4 1.1 release

  ==> Input File <==

--------------------------------------------------------------------------
memory 750000 mb

molecule mol {
0 1
C         -0.43518       -1.37667        0.57393
O         -0.68269       -2.26901        1.34971
O         -0.97425       -1.28816       -0.65560
C         -1.92195       -2.30765       -1.01500
H         -2.27209       -2.03789       -2.00877
H         -1.44123       -3.28721       -1.03036
H         -2.74810       -2.32701       -0.30236
--
0 1
C         -1.24261        1.37199       -0.10563
O         -1.53397        1.89915       -1.14822
O         -2.15233        0.92808        0.79026
C         -3.53129        1.01468        0.38980
H         -3.69181        0.45676       -0.53435
H         -3.82137        2.05498        0.23466
H         -4.09916        0.57599        1.20731
--
0 1
C          2.29389       -1.87291       -0.31752
H          3.20250       -1.86702       -0.92306
H          2.48929       -2.43083        0.60139
H          1.51274       -2.38920       -0.87812
H          0.96089        2.25101       -1.34490
C          0.16209        1.18464        0.43655
C          0.56565       -0.27377        0.84931
C          1.26947        1.53950       -0.58431
C          2.57009        1.85676        0.17915
C          2.98275        0.43327        0.65360
C          1.88362       -0.45323        0.00322
O          1.56779        0.27639       -1.19316
H          0.21750        1.82762        1.31960
H          0.77862       -0.34066        1.91468
H          3.31173        2.27758       -0.50135
H          2.42175        2.56464        0.99711
H          3.96121        0.14970        0.26221
H          3.01298        0.32714        1.73988

symmetry c1
no_reorient
no_com
}

set {
basis jun-cc-pvdz
scf_type df
guess sad
freeze_core true
}

energy('fisapt0')
--------------------------------------------------------------------------

    Molecular point group: c1

    Geometry (in Angstrom), charge = 0, multiplicity = 1:

       Center              X                  Y                   Z               Mass
    ------------   -----------------  -----------------  -----------------  -----------------
           C         -0.435180000000    -1.376670000000     0.573930000000    12.000000000000
           O         -0.682690000000    -2.269010000000     1.349710000000    15.994914619560
           O         -0.974250000000    -1.288160000000    -0.655600000000    15.994914619560
           C         -1.921950000000    -2.307650000000    -1.015000000000    12.000000000000
           H         -2.272090000000    -2.037890000000    -2.008770000000     1.007825032070
           H         -1.441230000000    -3.287210000000    -1.030360000000     1.007825032070
           H         -2.748100000000    -2.327010000000    -0.302360000000     1.007825032070
           C         -1.242610000000     1.371990000000    -0.105630000000    12.000000000000
           O         -1.533970000000     1.899150000000    -1.148220000000    15.994914619560
           O         -2.152330000000     0.928080000000     0.790260000000    15.994914619560
           C         -3.531290000000     1.014680000000     0.389800000000    12.000000000000
           H         -3.691810000000     0.456760000000    -0.534350000000     1.007825032070
           H         -3.821370000000     2.054980000000     0.234660000000     1.007825032070
           H         -4.099160000000     0.575990000000     1.207310000000     1.007825032070
           C          2.293890000000    -1.872910000000    -0.317520000000    12.000000000000
           H          3.202500000000    -1.867020000000    -0.923060000000     1.007825032070
           H          2.489290000000    -2.430830000000     0.601390000000     1.007825032070
           H          1.512740000000    -2.389200000000    -0.878120000000     1.007825032070
           H          0.960890000000     2.251010000000    -1.344900000000     1.007825032070
           C          0.162090000000     1.184640000000     0.436550000000    12.000000000000
           C          0.565650000000    -0.273770000000     0.849310000000    12.000000000000
           C          1.269470000000     1.539500000000    -0.584310000000    12.000000000000
           C          2.570090000000     1.856760000000     0.179150000000    12.000000000000
           C          2.982750000000     0.433270000000     0.653600000000    12.000000000000
           C          1.883620000000    -0.453230000000     0.003220000000    12.000000000000
           O          1.567790000000     0.276390000000    -1.193160000000    15.994914619560
           H          0.217500000000     1.827620000000     1.319600000000     1.007825032070
           H          0.778620000000    -0.340660000000     1.914680000000     1.007825032070
           H          3.311730000000     2.277580000000    -0.501350000000     1.007825032070
           H          2.421750000000     2.564640000000     0.997110000000     1.007825032070
           H          3.961210000000     0.149700000000     0.262210000000     1.007825032070
           H          3.012980000000     0.327140000000     1.739880000000     1.007825032070

  Charge       = 0
  Multiplicity = 1
  Basis Set: JUN-CC-PVDZ
    Blend: JUN-CC-PVDZ
  Basis Set: (JUN-CC-PVDZ AUX)
    Blend: JUN-CC-PVDZ-JKFIT

    Orbital Energies (a.u.)
    -----------------------

    Doubly Occupied:

       1A    -20.612648     2A    -20.610179     3A    -20.564965
       4A    -20.557565     5A    -20.555919     6A    -11.393105
       7A    -11.390589     8A    -11.306125     9A    -11.298267
      10A    -11.296636    11A    -11.290918    12A    -11.267679
      13A    -11.266041    14A    -11.240997    15A    -11.239787
      16A    -11.232281    17A     -1.472111    18A     -1.464256
      19A     -1.403403    20A     -1.368466    21A     -1.365826
      22A     -1.115852    23A     -1.064526    24A     -1.051769
      25A     -0.992318    26A     -0.972182    27A     -0.939334
      28A     -0.887742    29A     -0.821132    30A     -0.799191
      31A     -0.769502    32A     -0.765733    33A     -0.721141
      34A     -0.702932    35A     -0.695785    36A     -0.679186
      37A     -0.671899    38A     -0.666781    39A     -0.664192
      40A     -0.649872    41A     -0.626705    42A     -0.598649
      43A     -0.589012    44A     -0.584327    45A     -0.572047
      46A     -0.554679    47A     -0.543875    48A     -0.535869
      49A     -0.533895    50A     -0.526939    51A     -0.520251
      52A     -0.510942    53A     -0.500414    54A     -0.493570
      55A     -0.477352    56A     -0.472926    57A     -0.465976
      58A     -0.463419    59A     -0.449925    60A     -0.434983
      61A     -0.424667

  @DF-RHF Final Energy:  -800.27205849292318

   => Energetics <=

    Nuclear Repulsion Energy =           1265.7209751437712839
    One-Electron Energy =               -3610.5675666704828473
    Two-Electron Energy =                1544.5745330337883843
    DFT Exchange-Correlation Energy =       0.0000000000000000
    Empirical Dispersion Energy =           0.0000000000000000
    PCM Polarization Energy =               0.0000000000000000
    EFP Energy =                            0.0000000000000000
    Total Energy =                       -800.2720584929231791
  Basis Set: (JUN-CC-PVDZ AUX)
    Blend: JUN-CC-PVDZ-JKFIT
  Basis Set: (JUN-CC-PVDZ AUX)
    Blend: JUN-CC-PVDZ-JKFIT
  Basis Set: (JUN-CC-PVDZ AUX)
    Blend: JUN-CC-PVDZ-JKFIT
  Basis Set: (JUN-CC-PVDZ AUX)
    Blend: JUN-CC-PVDZ-JKFIT
  Basis Set: (JUN-CC-PVDZ AUX)
    Blend: JUN-CC-PVDZ-RI

    SAPT Results
  --------------------------------------------------------------------------------------------------------
    Electrostatics                 11.87713696 [mEh]       7.45301628 [kcal/mol]      31.18342309 [kJ/mol]
      Elst10,r                     11.87713696 [mEh]       7.45301628 [kcal/mol]      31.18342309 [kJ/mol]

    Exchange                        6.97952447 [mEh]       4.37971791 [kcal/mol]      18.32474151 [kJ/mol]
      Exch10                        6.97952447 [mEh]       4.37971791 [kcal/mol]      18.32474151 [kJ/mol]
      Exch10(S^2)                   6.96153419 [mEh]       4.36842884 [kcal/mol]      18.27750802 [kJ/mol]

    Induction                      -2.23839559 [mEh]      -1.40461450 [kcal/mol]      -5.87690761 [kJ/mol]
      Ind20,r                      -3.74377919 [mEh]      -2.34925700 [kcal/mol]      -9.82929225 [kJ/mol]
      Exch-Ind20,r                  2.03606460 [mEh]       1.27764988 [kcal/mol]       5.34568761 [kJ/mol]
      delta HF,r (2)               -0.53068100 [mEh]      -0.33300737 [kcal/mol]      -1.39330297 [kJ/mol]
      Induction (A<-B)             -1.21525187 [mEh]      -0.76258209 [kcal/mol]      -3.19064379 [kJ/mol]
      Induction (B<-A)             -1.02314372 [mEh]      -0.64203240 [kcal/mol]      -2.68626383 [kJ/mol]

    Dispersion                     -4.48789658 [mEh]      -2.81619774 [kcal/mol]     -11.78297247 [kJ/mol]
      Disp20                       -5.01327800 [mEh]      -3.14587957 [kcal/mol]     -13.16236139 [kJ/mol]
      Exch-Disp20                   0.52538142 [mEh]       0.32968183 [kcal/mol]       1.37938892 [kJ/mol]

  Total HF                         16.61826585 [mEh]      10.42811969 [kcal/mol]      43.63125698 [kJ/mol]
  Total SAPT0                      12.13036927 [mEh]       7.61192196 [kcal/mol]      31.84828452 [kJ/mol]

  --------------------------------------------------------------------------------------------------------

*** Psi4 exiting successfully. Buy a developer a beer!
