                               Psi4 1.1 release

  ==> Input File <==

--------------------------------------------------------------------------
memory 750000 mb

molecule mol {
0 1
C         -0.23870       -1.32473        0.66912
O         -1.06383       -1.67288        1.48362
O         -0.01570       -1.96815       -0.48222
C         -0.89322       -3.06650       -0.78762
H         -0.53065       -3.46799       -1.73103
H         -0.85537       -3.82241       -0.00207
H         -1.91522       -2.70197       -0.89905
--
0 1
C         -1.52688        0.88707       -0.32647
O         -1.77566        0.42858       -1.41439
O         -2.46609        1.17928        0.59601
C         -3.81823        0.81062        0.26554
H         -3.88704       -0.26859        0.12098
H         -4.41813        1.11796        1.11894
H         -4.14502        1.32161       -0.64121
--
0 1
C          2.83092       -1.20999        0.06546
H          2.32873       -2.02546       -0.45029
H          3.07192       -1.52838        1.08385
H          3.76713       -0.98931       -0.45233
H          0.44179        2.08853       -1.75001
C         -0.14738        1.19612        0.21599
C          0.59110       -0.05936        0.83862
C          0.88181        1.64030       -0.86246
C          1.98255        2.44595       -0.14937
C          2.69484        1.30593        0.63335
C          1.96475        0.03089        0.10169
O          1.56276        0.43605       -1.21940
H         -0.26820        1.95729        0.98576
H          0.69749        0.07206        1.91497
H          2.65001        2.89970       -0.88332
H          1.58669        3.23698        0.49087
H          3.75592        1.25190        0.38618
H          2.61135        1.40753        1.71769

symmetry c1
no_reorient
no_com
}

set {
basis jun-cc-pvdz
scf_type df
guess sad
freeze_core true
}

energy('fisapt0')
--------------------------------------------------------------------------

    Molecular point group: c1

    Geometry (in Angstrom), charge = 0, multiplicity = 1:

       Center              X                  Y                   Z               Mass
    ------------   -----------------  -----------------  -----------------  -----------------
           C         -0.238700000000    -1.324730000000     0.669120000000    12.000000000000
           O         -1.063830000000    -1.672880000000     1.483620000000    15.994914619560
           O         -0.015700000000    -1.968150000000    -0.482220000000    15.994914619560
           C         -0.893220000000    -3.066500000000    -0.787620000000    12.000000000000
           H         -0.530650000000    -3.467990000000    -1.731030000000     1.007825032070
           H         -0.855370000000    -3.822410000000    -0.002070000000     1.007825032070
           H         -1.915220000000    -2.701970000000    -0.899050000000     1.007825032070
           C         -1.526880000000     0.887070000000    -0.326470000000    12.000000000000
           O         -1.775660000000     0.428580000000    -1.414390000000    15.994914619560
           O         -2.466090000000     1.179280000000     0.596010000000    15.994914619560
           C         -3.818230000000     0.810620000000     0.265540000000    12.000000000000
           H         -3.887040000000    -0.268590000000     0.120980000000     1.007825032070
           H         -4.418130000000     1.117960000000     1.118940000000     1.007825032070
           H         -4.145020000000     1.321610000000    -0.641210000000     1.007825032070
           C          2.830920000000    -1.209990000000     0.065460000000    12.000000000000
           H          2.328730000000    -2.025460000000    -0.450290000000     1.007825032070
           H          3.071920000000    -1.528380000000     1.083850000000     1.007825032070
           H          3.767130000000    -0.989310000000    -0.452330000000     1.007825032070
           H          0.441790000000     2.088530000000    -1.750010000000     1.007825032070
           C         -0.147380000000     1.196120000000     0.215990000000    12.000000000000
           C          0.591100000000    -0.059360000000     0.838620000000    12.000000000000
           C          0.881810000000     1.640300000000    -0.862460000000    12.000000000000
           C          1.982550000000     2.445950000000    -0.149370000000    12.000000000000
           C          2.694840000000     1.305930000000     0.633350000000    12.000000000000
           C          1.964750000000     0.030890000000     0.101690000000    12.000000000000
           O          1.562760000000     0.436050000000    -1.219400000000    15.994914619560
           H         -0.268200000000     1.957290000000     0.985760000000     1.007825032070
           H          0.697490000000     0.072060000000     1.914970000000     1.007825032070
           H          2.650010000000     2.899700000000    -0.883320000000     1.007825032070
           H          1.586690000000     3.236980000000     0.490870000000     1.007825032070
           H          3.755920000000     1.251900000000     0.386180000000     1.007825032070
           H          2.611350000000     1.407530000000     1.717690000000     1.007825032070

  Charge       = 0
  Multiplicity = 1
  Basis Set: JUN-CC-PVDZ
    Blend: JUN-CC-PVDZ
  Basis Set: (JUN-CC-PVDZ AUX)
    Blend: JUN-CC-PVDZ-JKFIT

    Orbital Energies (a.u.)
    -----------------------

    Doubly Occupied:

       1A    -20.610393     2A    -20.605766     3A    -20.563051
       4A    -20.557626     5A    -20.554439     6A    -11.390947
       7A    -11.389775     8A    -11.302950     9A    -11.294516
      10A    -11.293232    11A    -11.290170    12A    -11.269104
      13A    -11.267335    14A    -11.240625    15A    -11.239675
      16A    -11.227501    17A     -1.469081    18A     -1.463743
      19A     -1.401948    20A     -1.366557    21A     -1.363132
      22A     -1.115039    23A     -1.061917    24A     -1.050471
      25A     -0.991456    26A     -0.967067    27A     -0.936553
      28A     -0.881918    29A     -0.822804    30A     -0.799128
      31A     -0.767792    32A     -0.763554    33A     -0.716516
      34A     -0.697667    35A     -0.690463    36A     -0.679504
      37A     -0.675590    38A     -0.664716    39A     -0.657880
      40A     -0.654175    41A     -0.626473    42A     -0.592994
      43A     -0.584570    44A     -0.575887    45A     -0.570206
      46A     -0.563138    47A     -0.541518    48A     -0.530686
      49A     -0.528331    50A     -0.521355    51A     -0.517335
      52A     -0.507668    53A     -0.499378    54A     -0.494540
      55A     -0.480364    56A     -0.467972    57A     -0.464242
      58A     -0.454210    59A     -0.451868    60A     -0.431095
      61A     -0.423835

  @DF-RHF Final Energy:  -800.26415143247527

   => Energetics <=

    Nuclear Repulsion Energy =           1259.3198482239265559
    One-Electron Energy =               -3598.0011141640634378
    Two-Electron Energy =                1538.4171145076613811
    DFT Exchange-Correlation Energy =       0.0000000000000000
    Empirical Dispersion Energy =           0.0000000000000000
    PCM Polarization Energy =               0.0000000000000000
    EFP Energy =                            0.0000000000000000
    Total Energy =                       -800.2641514324752734
  Basis Set: (JUN-CC-PVDZ AUX)
    Blend: JUN-CC-PVDZ-JKFIT
  Basis Set: (JUN-CC-PVDZ AUX)
    Blend: JUN-CC-PVDZ-JKFIT
  Basis Set: (JUN-CC-PVDZ AUX)
    Blend: JUN-CC-PVDZ-JKFIT
  Basis Set: (JUN-CC-PVDZ AUX)
    Blend: JUN-CC-PVDZ-JKFIT
  Basis Set: (JUN-CC-PVDZ AUX)
    Blend: JUN-CC-PVDZ-RI

    SAPT Results
  --------------------------------------------------------------------------------------------------------
    Electrostatics                 18.70850867 [mEh]      11.73976692 [kcal/mol]      49.11918952 [kJ/mol]
      Elst10,r                     18.70850867 [mEh]      11.73976692 [kcal/mol]      49.11918952 [kJ/mol]

    Exchange                        3.74376120 [mEh]       2.34924572 [kcal/mol]       9.82924504 [kJ/mol]
      Exch10                        3.74376120 [mEh]       2.34924572 [kcal/mol]       9.82924504 [kJ/mol]
      Exch10(S^2)                   3.74011131 [mEh]       2.34695538 [kcal/mol]       9.81966226 [kJ/mol]

    Induction                      -2.10577387 [mEh]      -1.32139311 [kcal/mol]      -5.52870931 [kJ/mol]
      Ind20,r                      -3.20456096 [mEh]      -2.01089245 [kcal/mol]      -8.41357481 [kJ/mol]
      Exch-Ind20,r                  1.27846643 [mEh]       0.80224983 [kcal/mol]       3.35661362 [kJ/mol]
      delta HF,r (2)               -0.17967935 [mEh]      -0.11275050 [kcal/mol]      -0.47174812 [kJ/mol]
      Induction (A<-B)             -1.14305730 [mEh]      -0.71727932 [kcal/mol]      -3.00109695 [kJ/mol]
      Induction (B<-A)             -0.96271657 [mEh]      -0.60411379 [kcal/mol]      -2.52761236 [kJ/mol]

    Dispersion                     -3.64485731 [mEh]      -2.28718259 [kcal/mol]      -9.56957286 [kJ/mol]
      Disp20                       -3.99331466 [mEh]      -2.50584288 [kcal/mol]     -10.48444763 [kJ/mol]
      Exch-Disp20                   0.34845735 [mEh]       0.21866030 [kcal/mol]       0.91487477 [kJ/mol]

  Total HF                         20.34649600 [mEh]      12.76761953 [kcal/mol]      53.41972525 [kJ/mol]
  Total SAPT0                      16.70163869 [mEh]      10.48043695 [kcal/mol]      43.85015239 [kJ/mol]

  --------------------------------------------------------------------------------------------------------

*** Psi4 exiting successfully. Buy a developer a beer!
