                               Psi4 1.1 release

  ==> Input File <==

--------------------------------------------------------------------------
memory 750000 mb

molecule mol {
0 1
C         -0.61879       -1.32178        0.74401
O         -1.27838       -1.61519        1.71389
O         -0.85218       -1.80874       -0.48403
C         -2.01505       -2.64025       -0.62077
H         -2.05670       -2.90894       -1.67414
H         -1.92824       -3.53246        0.00153
H         -2.90903       -2.08773       -0.32806
--
0 1
C         -1.08636        1.66624        0.18028
O         -1.32111        2.85293        0.17967
O         -1.98268        0.73904       -0.17952
C         -3.28527        1.22298       -0.55973
H         -3.86242        0.33476       -0.80595
H         -3.74492        1.76353        0.26840
H         -3.20658        1.88258       -1.42464
--
0 1
C          2.07890       -2.04347       -0.59568
H          2.97257       -2.04901       -1.22349
H          2.27288       -2.67484        0.27662
H          1.25043       -2.46792       -1.15705
H          1.01437        2.24375       -1.24604
C          0.28331        1.13713        0.56550
C          0.57831       -0.38549        0.82863
C          1.31905        1.44893       -0.56941
C          2.71067        1.60112        0.06703
C          3.01138        0.12270        0.43609
C          1.77773       -0.62712       -0.15430
O          1.41867        0.21113       -1.27364
H          0.53945        1.71673        1.45263
H          0.91159       -0.49579        1.86079
H          3.42040        1.97884       -0.67070
H          2.71193        2.27929        0.92206
H          3.92244       -0.23138       -0.04806
H          3.11784       -0.04256        1.51001

symmetry c1
no_reorient
no_com
}

set {
basis jun-cc-pvdz
scf_type df
guess sad
freeze_core true
}

energy('fisapt0')
--------------------------------------------------------------------------

    Molecular point group: c1

    Geometry (in Angstrom), charge = 0, multiplicity = 1:

       Center              X                  Y                   Z               Mass
    ------------   -----------------  -----------------  -----------------  -----------------
           C         -0.618790000000    -1.321780000000     0.744010000000    12.000000000000
           O         -1.278380000000    -1.615190000000     1.713890000000    15.994914619560
           O         -0.852180000000    -1.808740000000    -0.484030000000    15.994914619560
           C         -2.015050000000    -2.640250000000    -0.620770000000    12.000000000000
           H         -2.056700000000    -2.908940000000    -1.674140000000     1.007825032070
           H         -1.928240000000    -3.532460000000     0.001530000000     1.007825032070
           H         -2.909030000000    -2.087730000000    -0.328060000000     1.007825032070
           C         -1.086360000000     1.666240000000     0.180280000000    12.000000000000
           O         -1.321110000000     2.852930000000     0.179670000000    15.994914619560
           O         -1.982680000000     0.739040000000    -0.179520000000    15.994914619560
           C         -3.285270000000     1.222980000000    -0.559730000000    12.000000000000
           H         -3.862420000000     0.334760000000    -0.805950000000     1.007825032070
           H         -3.744920000000     1.763530000000     0.268400000000     1.007825032070
           H         -3.206580000000     1.882580000000    -1.424640000000     1.007825032070
           C          2.078900000000    -2.043470000000    -0.595680000000    12.000000000000
           H          2.972570000000    -2.049010000000    -1.223490000000     1.007825032070
           H          2.272880000000    -2.674840000000     0.276620000000     1.007825032070
           H          1.250430000000    -2.467920000000    -1.157050000000     1.007825032070
           H          1.014370000000     2.243750000000    -1.246040000000     1.007825032070
           C          0.283310000000     1.137130000000     0.565500000000    12.000000000000
           C          0.578310000000    -0.385490000000     0.828630000000    12.000000000000
           C          1.319050000000     1.448930000000    -0.569410000000    12.000000000000
           C          2.710670000000     1.601120000000     0.067030000000    12.000000000000
           C          3.011380000000     0.122700000000     0.436090000000    12.000000000000
           C          1.777730000000    -0.627120000000    -0.154300000000    12.000000000000
           O          1.418670000000     0.211130000000    -1.273640000000    15.994914619560
           H          0.539450000000     1.716730000000     1.452630000000     1.007825032070
           H          0.911590000000    -0.495790000000     1.860790000000     1.007825032070
           H          3.420400000000     1.978840000000    -0.670700000000     1.007825032070
           H          2.711930000000     2.279290000000     0.922060000000     1.007825032070
           H          3.922440000000    -0.231380000000    -0.048060000000     1.007825032070
           H          3.117840000000    -0.042560000000     1.510010000000     1.007825032070

  Charge       = 0
  Multiplicity = 1
  Basis Set: JUN-CC-PVDZ
    Blend: JUN-CC-PVDZ
  Basis Set: (JUN-CC-PVDZ AUX)
    Blend: JUN-CC-PVDZ-JKFIT

    Orbital Energies (a.u.)
    -----------------------

    Doubly Occupied:

       1A    -20.617451     2A    -20.605300     3A    -20.569056
       4A    -20.556420     5A    -20.550361     6A    -11.396315
       7A    -11.389196     8A    -11.305345     9A    -11.300365
      10A    -11.300027    11A    -11.294285    12A    -11.270725
      13A    -11.266544    14A    -11.241218    15A    -11.240579
      16A    -11.228376    17A     -1.475088    18A     -1.463390
      19A     -1.405729    20A     -1.369197    21A     -1.361562
      22A     -1.114458    23A     -1.064163    24A     -1.050950
      25A     -0.991631    26A     -0.973686    27A     -0.940376
      28A     -0.887420    29A     -0.820249    30A     -0.801829
      31A     -0.778279    32A     -0.769050    33A     -0.718809
      34A     -0.698813    35A     -0.693094    36A     -0.676101
      37A     -0.673534    38A     -0.667958    39A     -0.660614
      40A     -0.658578    41A     -0.629672    42A     -0.600297
      43A     -0.583430    44A     -0.578535    45A     -0.566721
      46A     -0.563970    47A     -0.549223    48A     -0.538152
      49A     -0.531153    50A     -0.522797    51A     -0.511817
      52A     -0.510132    53A     -0.502388    54A     -0.493331
      55A     -0.486209    56A     -0.471651    57A     -0.466768
      58A     -0.456928    59A     -0.448547    60A     -0.434028
      61A     -0.424384

  @DF-RHF Final Energy:  -800.26236581172293

   => Energetics <=

    Nuclear Repulsion Energy =           1256.9845558453619105
    One-Electron Energy =               -3593.0613335138464208
    Two-Electron Energy =                1535.8144118567613532
    DFT Exchange-Correlation Energy =       0.0000000000000000
    Empirical Dispersion Energy =           0.0000000000000000
    PCM Polarization Energy =               0.0000000000000000
    EFP Energy =                            0.0000000000000000
    Total Energy =                       -800.2623658117229297
  Basis Set: (JUN-CC-PVDZ AUX)
    Blend: JUN-CC-PVDZ-JKFIT
  Basis Set: (JUN-CC-PVDZ AUX)
    Blend: JUN-CC-PVDZ-JKFIT
  Basis Set: (JUN-CC-PVDZ AUX)
    Blend: JUN-CC-PVDZ-JKFIT
  Basis Set: (JUN-CC-PVDZ AUX)
    Blend: JUN-CC-PVDZ-JKFIT
  Basis Set: (JUN-CC-PVDZ AUX)
    Blend: JUN-CC-PVDZ-RI

    SAPT Results
  --------------------------------------------------------------------------------------------------------
    Electrostatics                 11.98641069 [mEh]       7.52158658 [kcal/mol]      31.47032126 [kJ/mol]
      Elst10,r                     11.98641069 [mEh]       7.52158658 [kcal/mol]      31.47032126 [kJ/mol]

    Exchange                        8.95761463 [mEh]       5.62098828 [kcal/mol]      23.51821721 [kJ/mol]
      Exch10                        8.95761463 [mEh]       5.62098828 [kcal/mol]      23.51821721 [kJ/mol]
      Exch10(S^2)                   8.92493251 [mEh]       5.60047994 [kcal/mol]      23.43241031 [kJ/mol]

    Induction                      -1.90328546 [mEh]      -1.19432971 [kcal/mol]      -4.99707597 [kJ/mol]
      Ind20,r                      -3.86537833 [mEh]      -2.42556162 [kcal/mol]     -10.14855080 [kJ/mol]
      Exch-Ind20,r                  2.51871294 [mEh]       1.58051630 [kcal/mol]       6.61288082 [kJ/mol]
      delta HF,r (2)               -0.55662007 [mEh]      -0.34928438 [kcal/mol]      -1.46140600 [kJ/mol]
      Induction (A<-B)             -0.64274738 [mEh]      -0.40333009 [kcal/mol]      -1.68753326 [kJ/mol]
      Induction (B<-A)             -1.26053808 [mEh]      -0.79099962 [kcal/mol]      -3.30954272 [kJ/mol]

    Dispersion                     -4.32696091 [mEh]      -2.71520907 [kcal/mol]     -11.36043586 [kJ/mol]
      Disp20                       -4.98470536 [mEh]      -3.12794997 [kcal/mol]     -13.08734391 [kJ/mol]
      Exch-Disp20                   0.65774445 [mEh]       0.41274089 [kcal/mol]       1.72690806 [kJ/mol]

  Total HF                         19.04073986 [mEh]      11.94824515 [kcal/mol]      49.99146249 [kJ/mol]
  Total SAPT0                      14.71377895 [mEh]       9.23303607 [kcal/mol]      38.63102663 [kJ/mol]

  --------------------------------------------------------------------------------------------------------

*** Psi4 exiting successfully. Buy a developer a beer!
