 Q-Chem 5.0, Q-Chem, Inc., Pleasanton, CA (2017)
 Q-Chem 5.0.1 for Intel X86 EM64T Linux

User input:
--------------------------------------------------------------
$molecule
0 1
C 0.02133377 -0.88426616 -0.01414056
C -1.11967587 -0.06375173 -0.06208015
C 1.37976165 -0.30821899 -0.24533835
C -1.05259990 1.43132244 -0.15568976
O 2.34887300 -1.06942054 0.30441592
O 1.60350935 0.69513266 -0.88065123
O -0.29320782 1.94799312 0.82532275
O -1.66358005 2.08658608 -0.96379451
C -0.05510138 3.36567552 0.75454673
C 3.69974790 -0.63055385 0.07073040
C -0.13539102 -2.26650258 0.13552151
C -1.40445520 -2.83237538 0.21996776
C -2.53315771 -2.01930769 0.14783576
C -2.38806277 -0.64164089 0.00362036
H 0.48614886 3.60101371 -0.16308312
H 3.90880222 -0.59408392 -0.99941208
H -3.52459153 -2.45426212 0.20342965
H -0.99703000 3.91515084 0.77699559
H 0.54916523 3.60082500 1.62774248
H 4.33129001 -1.36711780 0.56222087
H 3.85677263 0.35921781 0.50167836
H -1.51038268 -3.90535789 0.33137008
H -3.25946192 -0.00041853 -0.05156808
H 0.74513104 -2.89408017 0.16753608
$end

$rem
sym_ignore      true
jobtype         opt
method          b3lyp
basis           6-311++G(d,p)
dft_d           d3_op
mem_total       62000
MEM_STATIC      4000
ao2mo_disk      350000
max_scf_cycles  200
geom_opt_max_cycles 1000
geom_opt_tol_displacement 1
GEOM_OPT_TOL_GRADIENT       1
GEOM_OPT_TOL_ENERGY         1
$end

--------------------------------------------------------------

   15    -688.2160953985      7.20E-09 Convergence criterion met
 Total energy in the final basis set = -688.21609540
    9    -688.2160965755      8.68E-09 Convergence criterion met
 Total energy in the final basis set = -688.21609658
   11    -688.2160924731      3.91E-09 Convergence criterion met
 Total energy in the final basis set = -688.21609247
   10    -688.2160981426      9.53E-09 Convergence criterion met
 Total energy in the final basis set = -688.21609814
   10    -688.2160977761      7.59E-09 Convergence criterion met
 Total energy in the final basis set = -688.21609778
    9    -688.2160970754      7.97E-09 Convergence criterion met
 Total energy in the final basis set = -688.21609708
    9    -688.2160966987      7.44E-09 Convergence criterion met
 Total energy in the final basis set = -688.21609670
    9    -688.2160980519      5.42E-09 Convergence criterion met
    6    -688.2160974887      8.90E-09 Convergence criterion met
 Total energy in the final basis set = -688.21609749
    6    -688.2160974802      7.10E-09 Convergence criterion met
 Total energy in the final basis set = -688.21609748
    6    -688.2160974733      5.77E-09 Convergence criterion met
 Total energy in the final basis set = -688.21609747
    6    -688.2160974675      4.63E-09 Convergence criterion met
 Total energy in the final basis set = -688.21609747
    6    -688.2160974628      3.73E-09 Convergence criterion met
 Total energy in the final basis set = -688.21609746
    5    -688.2160974592      8.45E-09 Convergence criterion met
 Total energy in the final basis set = -688.21609746
 Final energy is   -688.216097459237
 **  OPTIMIZATION CONVERGED  **
 Total job time:  632.61s(wall), 9703.63s(cpu)
        *  Thank you very much for using Q-Chem.  Have a nice day.  *

User input: 2 of 2

r0110.ten.osc.edu 10.25.153
Q-Chem Developer Version! Running on 10.25.153.*
                  Welcome to Q-Chem
     A Quantum Leap Into The Future Of Chemistry

 Q-Chem 5.0, Q-Chem, Inc., Pleasanton, CA (2017)

 Yihan Shao,  Zhengting Gan,  E. Epifanovsky,  A. T. B. Gilbert,  M. Wormit,
 J. Kussmann,  A. W. Lange,  A. Behn,  Jia Deng,  Xintian Feng,  D. Ghosh,
 M. Goldey,  P. R. Horn,  L. D. Jacobson,  I. Kaliman,  T. Kus,  A. Landau,
 Jie Liu,  E. I. Proynov,  R. M. Richard,  R. P. Steele,  E. J. Sundstrom,
 H. L. Woodcock III,  P. M. Zimmerman,  D. Zuev,  B. Albrecht,  E. Alguire,
 S. A. Baeppler,  Z. Benda,  Y. A. Bernard,  E. J. Berquist,  K. B. Bravaya,
 D. Casanova,  Chun-Min Chang,  Yunqing Chen,  A. Chien,  K. D. Closser,
 M. P. Coons,  S. Dasgupta,  M. Diedenhofen,  Hainam Do,  R. G. Edgar,
 Po-Tung Fang,  S. Fatehi,  Qingguo Feng,  Qinghui Ge,  A. Ghysels,
 J. Gomes,  J. Gonthier,  A. Gunina,  M. W. D. Hanson-Heine,
 P. H. P. Harbach,  A. W. Hauser,  J. E. Herr,  E. G. Hohenstein,
 Z. C. Holden,  Kerwin Hui,  T.-C. Jagau,  Hyunjun Ji,  B. Kaduk,
 K. Khistyaev,  Jaehoon Kim,  P. Klunzinger,  K. Koh,  D. Kosenkov,
 T. Kowalczyk,  C. M. Krauter,  A. Kunitsa,  Ka Un Lao,  A. Laurent,
 K. V. Lawler,  Joonho Lee,  D. Lefrancois,  S. Lehtola,  D. S. Levine,
 Yi-Pei Li,  You-Sheng Lin,  Fenglai Liu,  E. Livshits,  A. Luenser,
 P. Manohar,  E. Mansoor,  S. F. Manzer,  Shan-Ping Mao,  Yuezhi Mao,
 N. Mardirossian,  A. V. Marenich,  L. A. Martinez-Martinez,  S. A. Maurer,
 N. J. Mayhall,  S. C. McKenzie,  J.-M. Mewes,  A. F. Morrison,  K. Nanda,
 T. S. Nguyen-Beck,  R. Olivares-Amaya,  J. A. Parkhill,  T. M. Perrine,
 F. Plasser,  S. Prager,  A. Prociuk,  D. R. Rehn,  F. Rob,  M. Schneider,
 N. Sergueev,  S. M. Sharada,  S. Sharma,  D. W. Small,  T. Stauch,
 T. Stein,  Yu-Chuan Su,  A. J. W. Thom,  T. Tsuchimochi,  L. Vogt,
 O. Vydrov,  M. A. Watson,  J. Wenzel,  M. de Wergifosse,  T. A. Wesolowski,
 A. White,  J. Witte,  A. Yamada,  Jun Yang,  K. Yao,  S. Yeganeh,
 S. R. Yost,  Zhi-Qiang You,  A. Zech,  Igor Ying Zhang,  Xing Zhang,
 Yan Zhao,  Ying Zhu,  B. R. Brooks,  G. K. L. Chan,  C. J. Cramer,
 M. S. Gordon,  W. J. Hehre,  A. Klamt,  M. W. Schmidt,  C. D. Sherrill,
 D. G. Truhlar,  A. Aspuru-Guzik,  R. Baer,  A. T. Bell,  N. A. Besley,
 Jeng-Da Chai,  A. Dreuw,  B. D. Dunietz,  T. R. Furlani,  Chao-Ping Hsu,
 Yousung Jung,  Jing Kong,  D. S. Lambrecht,  WanZhen Liang,  C. Ochsenfeld,
 V. A. Rassolov,  L. V. Slipchenko,  J. E. Subotnik,  T. Van Voorhis,
 J. M. Herbert,  A. I. Krylov,  P. M. W. Gill,  M. Head-Gordon

 Contributors to earlier versions of Q-Chem not listed above:
 R. D. Adamson,  B. Austin,  J. Baker,  G. J. O. Beran,  K. Brandhorst,
 S. T. Brown,  E. F. C. Byrd,  A. K. Chakraborty,  C.-L. Cheng,
 Siu Hung Chien,  D. M. Chipman,  D. L. Crittenden,  H. Dachsel,
 R. A. DiStasio Jr.,  R. J. Doerksen,  A. D. Dutoi,  L. Fusti-Molnar,
 W. A. Goddard III,  A. Golubeva-Zadorozhnaya,  S. R. Gwaltney,  G. Hawkins,
 A. Heyden,  S. Hirata,  G. Kedziora,  F. J. Keil,  C. Kelley,  Jihan Kim,
 R. A. King,  R. Z. Khaliullin,  P. P. Korambath,  W. Kurlancheek,
 A. M. Lee,  M. S. Lee,  S. V. Levchenko,  Ching Yeh Lin,  D. Liotard,
 R. C. Lochan,  I. Lotan,  P. E. Maslen,  N. Nair,  D. P. O'Neill,
 D. Neuhauser,  E. Neuscamman,  C. M. Oana,  R. Olson,  B. Peters,
 R. Peverati,  P. A. Pieniazek,  Y. M. Rhee,  J. Ritchie,  M. A. Rohrdanz,
 E. Rosta,  N. J. Russ,  H. F. Schaefer III,  N. E. Schultz,  N. Shenvi,
 A. C. Simmonett,  A. Sodt,  D. Stuck,  K. S. Thanthiriwatte,  V. Vanovschi,
 Tao Wang,  A. Warshel,  C. F. Williams,  Q. Wu,  X. Xu,  W. Zhang

 Please cite Q-Chem as follows:
 Y. Shao et al., Mol. Phys. 113, 184-215 (2015)
 DOI: 10.1080/00268976.2014.952696

 Q-Chem 5.0.1 for Intel X86 EM64T Linux

 Parts of Q-Chem use Armadillo 5.200.1 (Boston Tea Smuggler).
 http://arma.sourceforge.net/

 Q-Chem begins on Sat Oct 14 21:29:40 2017

Host: r0110.ten.osc.edu
0

     Scratch files written to /tmp/pbstmp.1310487/00//
Processing $rem in /users/PAS0291/osu6415/.qchemrc.
molden_format             true
The previous job contains 0 fragments, simply inherited here

Checking the input file for inconsistencies... 	...done.

--------------------------------------------------------------
User input:
--------------------------------------------------------------

$molecule
read
$end

$rem
sym_ignore      true
scf_guess       read
jobtype         freq
method          b3lyp
basis           6-311++G(d,p)
dft_d           d3_op
mem_total       62000
MEM_STATIC      4000
ao2mo_disk      350000
max_scf_cycles  200
$end
--------------------------------------------------------------

             Standard Nuclear Orientation (Angstroms)
    I     Atom           X                Y                Z
 ----------------------------------------------------------------
    1      C       0.0228578577    -0.8841568764    -0.0126882986
    2      C      -1.1177901951    -0.0631420693    -0.0609430898
    3      C       1.3813302916    -0.3081559479    -0.2431418656
    4      C      -1.0499642179     1.4317666594    -0.1587423473
    5      O       2.3511651760    -1.0768060302     0.2951801857
    6      O       1.6047266526     0.7019614920    -0.8677637995
    7      O      -0.3015097564     1.9513657487     0.8291501675
    8      O      -1.6516189894     2.0840745918    -0.9759700911
    9      C      -0.0626541123     3.3686899739     0.7570499918
   10      C       3.7016835952    -0.6362672318     0.0637177655
   11      C      -0.1346305418    -2.2663705911     0.1373089718
   12      C      -1.4038576709    -2.8315214496     0.2229757554
   13      C      -2.5321773545    -2.0178271538     0.1512610915
   14      C      -2.3864282918    -0.6403743208     0.0058087663
   15      H       0.5047601340     3.5984371870    -0.1461857496
   16      H       3.9090837702    -0.5891258726    -1.0063531008
   17      H      -3.5238191180    -2.4522218331     0.2075808286
   18      H      -1.0049894721     3.9177997747     0.7486833259
   19      H       0.5162101854     3.6098476546     1.6457029939
   20      H       4.3337887331    -1.3779758811     0.5466730154
   21      H       3.8599425475     0.3491166478     0.5042098675
   22      H      -1.5102968142    -3.9043981110     0.3348743916
   23      H      -3.2576181558     0.0011465085    -0.0497187739
   24      H       0.7456435570    -2.8943039296     0.1685064580
 ----------------------------------------------------------------

    2    -688.2160974608      6.27E-09 Convergence criterion met
 Total energy in the final basis set = -688.21609746

                    Orbital Energies (a.u.)
 --------------------------------------------------------------

 Alpha MOs
 -- Occupied --
-19.180 -19.170 -19.121 -19.115 -10.314 -10.308 -10.234 -10.224
-10.212 -10.211 -10.199 -10.199 -10.197 -10.197  -1.122  -1.112
 -1.033  -1.026  -0.887  -0.796  -0.787  -0.740  -0.729  -0.655
 -0.639  -0.594  -0.573  -0.553  -0.523  -0.503  -0.493  -0.489
 -0.486  -0.480  -0.463  -0.457  -0.435  -0.430  -0.419  -0.401
 -0.390  -0.382  -0.375  -0.372  -0.361  -0.323  -0.309  -0.298
 -0.293  -0.278  -0.270

          Ground-State Mulliken Net Atomic Charges

     Atom                 Charge (a.u.)
  ----------------------------------------
      1 C                     0.719476
      2 C                     0.323330
      3 C                    -0.366750
      4 C                    -0.665210
      5 O                    -0.067486
      6 O                    -0.214094
      7 O                    -0.002071
      8 O                    -0.210528
      9 C                    -0.246961
     10 C                    -0.235884
     11 C                    -0.083214
     12 C                    -0.200201
     13 C                    -0.192413
     14 C                    -0.295047
     15 H                     0.188178
     16 H                     0.189599
     17 H                     0.172334
     18 H                     0.168267
     19 H                     0.154031
     20 H                     0.158360
     21 H                     0.173440
     22 H                     0.174316
     23 H                     0.174764
     24 H                     0.183764
  ----------------------------------------
  Sum of atomic charges =    -0.000000

                    Cartesian Multipole Moments
 -----------------------------------------------------------------
    Charge (ESU x 10^10)
                -0.0000
    Dipole Moment (Debye)
         X       1.3732      Y      -2.2063      Z       2.2078
       Tot       3.4100
    Quadrupole Moments (Debye-Ang)
        XX     -69.0328     XY       3.9696     YY     -72.0381
        XZ      -1.9750     YZ       6.3352     ZZ     -87.3817

 Frequency:        26.74                  78.53                  82.18
 Force Cnst:      0.0029                 0.0164                 0.0146
 Red. Mass:       6.8508                 4.5220                 3.6783
 IR Intens:        0.591                  0.759                  4.324
 Frequency:        94.64                 126.52                 143.17
 Force Cnst:      0.0193                 0.0259                 0.0230
 Red. Mass:       3.6615                 2.7434                 1.9008
 IR Intens:        2.877                  1.637                  1.955
 Frequency:       156.83                 163.94                 213.11
 Force Cnst:      0.0167                 0.0296                 0.1332
 Red. Mass:       1.1491                 1.8711                 4.9772
 IR Intens:        0.139                  0.795                  1.047
 Frequency:       252.13                 285.48                 307.53
 Force Cnst:      0.2116                 0.2103                 0.2888
 Red. Mass:       5.6487                 4.3802                 5.1828
 IR Intens:        1.690                  8.922                  4.651
 Frequency:       333.54                 368.59                 395.91
 Force Cnst:      0.3476                 0.5229                 0.5062
 Red. Mass:       5.3026                 6.5324                 5.4813
 IR Intens:       14.428                 10.831                  1.244
 Frequency:       424.76                 533.51                 560.37
 Force Cnst:      0.4150                 0.8964                 0.8169
 Red. Mass:       3.9040                 5.3449                 4.4154
 IR Intens:        0.778                  2.709                  4.466
 Frequency:       664.56                 702.76                 715.89
 Force Cnst:      1.6410                 1.7639                 1.6025
 Red. Mass:       6.3064                 6.0617                 5.3070
 IR Intens:        4.543                  6.438                  8.643
 Frequency:       750.65                 798.16                 813.34
 Force Cnst:      0.6931                 1.0837                 1.4349
 Red. Mass:       2.0878                 2.8872                 3.6815
 IR Intens:       78.066                 19.670                  5.546
 Frequency:       828.98                 848.04                 903.19
 Force Cnst:      2.0406                 2.1671                 0.7140
 Red. Mass:       5.0400                 5.1145                 1.4856
 IR Intens:       11.158                  1.081                  0.728
 Frequency:       975.10                 984.51                 985.95
 Force Cnst:      1.3318                 3.2451                 1.4580
 Red. Mass:       2.3773                 5.6825                 2.5457
 IR Intens:       14.011                  2.872                  6.408
 Frequency:      1004.65                1062.62                1097.21
 Force Cnst:      0.7816                 1.6496                 3.4933
 Red. Mass:       1.3144                 2.4795                 4.9251
 IR Intens:        0.423                 16.564                 95.132
 Frequency:      1143.53                1156.17                1173.01
 Force Cnst:      2.2582                 1.4892                 1.0410
 Red. Mass:       2.9309                 1.8908                 1.2840
 IR Intens:      157.304                 56.377                  1.574
 Frequency:      1173.20                1189.75                1211.60
 Force Cnst:      1.0472                 0.9330                 1.3595
 Red. Mass:       1.2913                 1.1187                 1.5719
 IR Intens:        0.675                  2.303                 39.688
 Frequency:      1216.56                1275.55                1287.54
 Force Cnst:      1.3922                 3.0517                 3.0858
 Red. Mass:       1.5966                 3.1834                 3.1594
 IR Intens:       37.053                188.668                387.457
 Frequency:      1310.89                1334.12                1467.60
 Force Cnst:      2.2376                 7.6359                 1.6723
 Red. Mass:       2.2101                 7.2815                 1.3178
 IR Intens:      173.314                 24.855                 10.934
 Frequency:      1469.43                1475.79                1484.08
 Force Cnst:      1.5138                 2.3845                 1.3616
 Red. Mass:       1.1900                 1.8582                 1.0493
 IR Intens:       19.472                  9.491                  6.623
 Frequency:      1485.53                1496.38                1498.53
 Force Cnst:      1.3594                 1.3792                 1.3907
 Red. Mass:       1.0455                 1.0454                 1.0511
 IR Intens:       12.192                 11.303                  8.691
 Frequency:      1514.55                1611.88                1636.06
 Force Cnst:      3.5698                 9.6494                 9.0335
 Red. Mass:       2.6414                 6.3035                 5.7280
 IR Intens:       12.815                 12.753                  6.376
 Frequency:      1770.05                1782.68                3050.61
 Force Cnst:     21.7443                22.2484                 5.6452
 Red. Mass:      11.7794                11.8823                 1.0296
 IR Intens:      253.111                299.729                 28.716
 Frequency:      3050.99                3123.96                3127.27
 Force Cnst:      5.6458                 6.3657                 6.3810
 Red. Mass:       1.0294                 1.1071                 1.1074
 IR Intens:       40.956                 17.229                 14.468
 Frequency:      3157.97                3158.18                3172.85
 Force Cnst:      6.5005                 6.5013                 6.4459
 Red. Mass:       1.1063                 1.1063                 1.0868
 IR Intens:       13.777                 13.013                  1.589
 Frequency:      3186.74                3198.11                3212.41
 Force Cnst:      6.5305                 6.5996                 6.6486
 Red. Mass:       1.0914                 1.0952                 1.0935
 IR Intens:        8.704                  7.589                  3.373

 STANDARD THERMODYNAMIC QUANTITIES AT   298.15 K  AND     1.00 ATM

   This Molecule has  0 Imaginary Frequencies
   Zero point vibrational energy:      116.205 kcal/mol

   Atom    1 Element C  Has Mass   12.00000
   Atom    2 Element C  Has Mass   12.00000
   Atom    3 Element C  Has Mass   12.00000
   Atom    4 Element C  Has Mass   12.00000
   Atom    5 Element O  Has Mass   15.99491
   Atom    6 Element O  Has Mass   15.99491
   Atom    7 Element O  Has Mass   15.99491
   Atom    8 Element O  Has Mass   15.99491
   Atom    9 Element C  Has Mass   12.00000
   Atom   10 Element C  Has Mass   12.00000
   Atom   11 Element C  Has Mass   12.00000
   Atom   12 Element C  Has Mass   12.00000
   Atom   13 Element C  Has Mass   12.00000
   Atom   14 Element C  Has Mass   12.00000
   Atom   15 Element H  Has Mass    1.00783
   Atom   16 Element H  Has Mass    1.00783
   Atom   17 Element H  Has Mass    1.00783
   Atom   18 Element H  Has Mass    1.00783
   Atom   19 Element H  Has Mass    1.00783
   Atom   20 Element H  Has Mass    1.00783
   Atom   21 Element H  Has Mass    1.00783
   Atom   22 Element H  Has Mass    1.00783
   Atom   23 Element H  Has Mass    1.00783
   Atom   24 Element H  Has Mass    1.00783
   Molecular Mass:   194.057940 amu
   Principal axes and moments of inertia in amu*Bohr^2:
                             1           2           3
    Eigenvalues --     2397.87136  2467.18356  4480.80743
          X               0.97723     0.21215    -0.00414
          Y              -0.21214     0.97723     0.00339
          Z               0.00477    -0.00243     0.99999
   Rotational Symmetry Number is   1
   The Molecule is an Asymmetric Top
   Translational Enthalpy:        0.889 kcal/mol
   Rotational Enthalpy:           0.889 kcal/mol
   Vibrational Enthalpy:        122.830 kcal/mol
   gas constant (RT):             0.592 kcal/mol
   Translational Entropy:        41.694  cal/mol.K
   Rotational Entropy:           31.650  cal/mol.K
   Vibrational Entropy:          43.296  cal/mol.K

   Total Enthalpy:              125.200 kcal/mol
   Total Entropy:               116.640  cal/mol.K

 Total job time:  3231.94s(wall), 10304.94s(cpu)
        *  Thank you very much for using Q-Chem.  Have a nice day.  *
