 Q-Chem 5.0, Q-Chem, Inc., Pleasanton, CA (2017)
 Q-Chem 5.0.1 for Intel X86 EM64T Linux

User input:
--------------------------------------------------------------
$molecule
0 1
C -0.63435919 -0.68751480 -0.10617283
C -0.92215251 0.67925310 0.04126473
C 0.74470149 -1.23119896 -0.36026651
C 0.11369279 1.75461843 0.04234074
O 1.29685057 -1.69889142 0.77267858
O 1.24850097 -1.32257151 -1.45129675
O 1.36367609 1.26240666 0.12038026
O -0.13321683 2.93745292 -0.00854160
C 2.43483574 2.22004176 0.06302845
C 2.61040207 -2.27413949 0.63888890
C -1.67805928 -1.61555947 -0.08642379
C -2.99670711 -1.19948173 0.07191160
C -3.28631149 0.15706520 0.21054064
C -2.25376202 1.08623646 0.19255600
H 2.39613928 2.77402497 -0.87568869
H 2.58104363 -3.14507716 -0.01779311
H -4.31120423 0.48776866 0.33140007
H 2.36664490 2.91697516 0.89931232
H 3.34866442 1.63342271 0.12364634
H 2.90379377 -2.56183477 1.64583020
H 3.30395244 -1.53826373 0.22954981
H -3.79449089 -1.93363916 0.08421259
H -2.45506758 2.14484924 0.29727245
H -1.45441056 -2.66958017 -0.20417724
$end

$rem
sym_ignore      true
jobtype         ts
method          b3lyp
basis           6-311++G(d,p)
dft_d           d3_op
mem_total       62000
MEM_STATIC      4000
ao2mo_disk      350000
max_scf_cycles  200
geom_opt_max_cycles 1000
geom_opt_tol_displacement 1
GEOM_OPT_TOL_GRADIENT       1
GEOM_OPT_TOL_ENERGY         1
$end

--------------------------------------------------------------

   15    -688.2143824620      3.94E-09 Convergence criterion met
 Total energy in the final basis set = -688.21438246
   13    -688.2139904769      4.56E-09 Convergence criterion met
 Total energy in the final basis set = -688.21399048
   13    -688.2142662181      4.73E-09 Convergence criterion met
 Total energy in the final basis set = -688.21426622
   13    -688.2142764214      3.96E-09 Convergence criterion met
 Total energy in the final basis set = -688.21427642
   13    -688.2141165964      2.24E-09 Convergence criterion met
 Total energy in the final basis set = -688.21411660
   13    -688.2141799707      3.43E-09 Convergence criterion met
 Total energy in the final basis set = -688.21417997
   13    -688.2140162588      5.30E-09 Convergence criterion met
 Total energy in the final basis set = -688.21401626
   13    -688.2143626313      4.97E-09 Convergence criterion met
    7    -688.2143636117      7.76E-09 Convergence criterion met
 Total energy in the final basis set = -688.21436361
    7    -688.2143635556      5.39E-09 Convergence criterion met
 Total energy in the final basis set = -688.21436356
    7    -688.2143635225      3.36E-09 Convergence criterion met
 Total energy in the final basis set = -688.21436352
    6    -688.2143635001      7.88E-09 Convergence criterion met
 Total energy in the final basis set = -688.21436350
    6    -688.2143634865      4.84E-09 Convergence criterion met
 Total energy in the final basis set = -688.21436349
    5    -688.2143634794      6.64E-09 Convergence criterion met
 Total energy in the final basis set = -688.21436348
 Final energy is   -688.214363479376
 **  OPTIMIZATION CONVERGED  **
 Total job time:  966.04s(wall), 15233.61s(cpu)
        *  Thank you very much for using Q-Chem.  Have a nice day.  *

User input: 2 of 2

r0169.ten.osc.edu 10.25.155
Q-Chem Developer Version! Running on 10.25.155.*
                  Welcome to Q-Chem
     A Quantum Leap Into The Future Of Chemistry

 Q-Chem 5.0, Q-Chem, Inc., Pleasanton, CA (2017)

 Yihan Shao,  Zhengting Gan,  E. Epifanovsky,  A. T. B. Gilbert,  M. Wormit,
 J. Kussmann,  A. W. Lange,  A. Behn,  Jia Deng,  Xintian Feng,  D. Ghosh,
 M. Goldey,  P. R. Horn,  L. D. Jacobson,  I. Kaliman,  T. Kus,  A. Landau,
 Jie Liu,  E. I. Proynov,  R. M. Richard,  R. P. Steele,  E. J. Sundstrom,
 H. L. Woodcock III,  P. M. Zimmerman,  D. Zuev,  B. Albrecht,  E. Alguire,
 S. A. Baeppler,  Z. Benda,  Y. A. Bernard,  E. J. Berquist,  K. B. Bravaya,
 D. Casanova,  Chun-Min Chang,  Yunqing Chen,  A. Chien,  K. D. Closser,
 M. P. Coons,  S. Dasgupta,  M. Diedenhofen,  Hainam Do,  R. G. Edgar,
 Po-Tung Fang,  S. Fatehi,  Qingguo Feng,  Qinghui Ge,  A. Ghysels,
 J. Gomes,  J. Gonthier,  A. Gunina,  M. W. D. Hanson-Heine,
 P. H. P. Harbach,  A. W. Hauser,  J. E. Herr,  E. G. Hohenstein,
 Z. C. Holden,  Kerwin Hui,  T.-C. Jagau,  Hyunjun Ji,  B. Kaduk,
 K. Khistyaev,  Jaehoon Kim,  P. Klunzinger,  K. Koh,  D. Kosenkov,
 T. Kowalczyk,  C. M. Krauter,  A. Kunitsa,  Ka Un Lao,  A. Laurent,
 K. V. Lawler,  Joonho Lee,  D. Lefrancois,  S. Lehtola,  D. S. Levine,
 Yi-Pei Li,  You-Sheng Lin,  Fenglai Liu,  E. Livshits,  A. Luenser,
 P. Manohar,  E. Mansoor,  S. F. Manzer,  Shan-Ping Mao,  Yuezhi Mao,
 N. Mardirossian,  A. V. Marenich,  L. A. Martinez-Martinez,  S. A. Maurer,
 N. J. Mayhall,  S. C. McKenzie,  J.-M. Mewes,  A. F. Morrison,  K. Nanda,
 T. S. Nguyen-Beck,  R. Olivares-Amaya,  J. A. Parkhill,  T. M. Perrine,
 F. Plasser,  S. Prager,  A. Prociuk,  D. R. Rehn,  F. Rob,  M. Schneider,
 N. Sergueev,  S. M. Sharada,  S. Sharma,  D. W. Small,  T. Stauch,
 T. Stein,  Yu-Chuan Su,  A. J. W. Thom,  T. Tsuchimochi,  L. Vogt,
 O. Vydrov,  M. A. Watson,  J. Wenzel,  M. de Wergifosse,  T. A. Wesolowski,
 A. White,  J. Witte,  A. Yamada,  Jun Yang,  K. Yao,  S. Yeganeh,
 S. R. Yost,  Zhi-Qiang You,  A. Zech,  Igor Ying Zhang,  Xing Zhang,
 Yan Zhao,  Ying Zhu,  B. R. Brooks,  G. K. L. Chan,  C. J. Cramer,
 M. S. Gordon,  W. J. Hehre,  A. Klamt,  M. W. Schmidt,  C. D. Sherrill,
 D. G. Truhlar,  A. Aspuru-Guzik,  R. Baer,  A. T. Bell,  N. A. Besley,
 Jeng-Da Chai,  A. Dreuw,  B. D. Dunietz,  T. R. Furlani,  Chao-Ping Hsu,
 Yousung Jung,  Jing Kong,  D. S. Lambrecht,  WanZhen Liang,  C. Ochsenfeld,
 V. A. Rassolov,  L. V. Slipchenko,  J. E. Subotnik,  T. Van Voorhis,
 J. M. Herbert,  A. I. Krylov,  P. M. W. Gill,  M. Head-Gordon

 Contributors to earlier versions of Q-Chem not listed above:
 R. D. Adamson,  B. Austin,  J. Baker,  G. J. O. Beran,  K. Brandhorst,
 S. T. Brown,  E. F. C. Byrd,  A. K. Chakraborty,  C.-L. Cheng,
 Siu Hung Chien,  D. M. Chipman,  D. L. Crittenden,  H. Dachsel,
 R. A. DiStasio Jr.,  R. J. Doerksen,  A. D. Dutoi,  L. Fusti-Molnar,
 W. A. Goddard III,  A. Golubeva-Zadorozhnaya,  S. R. Gwaltney,  G. Hawkins,
 A. Heyden,  S. Hirata,  G. Kedziora,  F. J. Keil,  C. Kelley,  Jihan Kim,
 R. A. King,  R. Z. Khaliullin,  P. P. Korambath,  W. Kurlancheek,
 A. M. Lee,  M. S. Lee,  S. V. Levchenko,  Ching Yeh Lin,  D. Liotard,
 R. C. Lochan,  I. Lotan,  P. E. Maslen,  N. Nair,  D. P. O'Neill,
 D. Neuhauser,  E. Neuscamman,  C. M. Oana,  R. Olson,  B. Peters,
 R. Peverati,  P. A. Pieniazek,  Y. M. Rhee,  J. Ritchie,  M. A. Rohrdanz,
 E. Rosta,  N. J. Russ,  H. F. Schaefer III,  N. E. Schultz,  N. Shenvi,
 A. C. Simmonett,  A. Sodt,  D. Stuck,  K. S. Thanthiriwatte,  V. Vanovschi,
 Tao Wang,  A. Warshel,  C. F. Williams,  Q. Wu,  X. Xu,  W. Zhang

 Please cite Q-Chem as follows:
 Y. Shao et al., Mol. Phys. 113, 184-215 (2015)
 DOI: 10.1080/00268976.2014.952696

 Q-Chem 5.0.1 for Intel X86 EM64T Linux

 Parts of Q-Chem use Armadillo 5.200.1 (Boston Tea Smuggler).
 http://arma.sourceforge.net/

 Q-Chem begins on Sun Oct 15 23:27:33 2017

Host: r0169.ten.osc.edu
0

     Scratch files written to /tmp/pbstmp.1310585/01//
Processing $rem in /users/PAS0291/osu6415/.qchemrc.
molden_format             true
The previous job contains 0 fragments, simply inherited here

Checking the input file for inconsistencies... 	...done.

--------------------------------------------------------------
User input:
--------------------------------------------------------------

$molecule
read
$end

$rem
sym_ignore      true
scf_guess       read
jobtype         freq
method          b3lyp
basis           6-311++G(d,p)
dft_d           d3_op
mem_total       62000
MEM_STATIC      4000
ao2mo_disk      350000
max_scf_cycles  200
$end
--------------------------------------------------------------

             Standard Nuclear Orientation (Angstroms)
    I     Atom           X                Y                Z
 ----------------------------------------------------------------
    1      C      -0.6417586249    -0.6993936495    -0.1170249683
    2      C      -0.9186570935     0.6654320374     0.0668918733
    3      C       0.7352069969    -1.2577687995    -0.3521286431
    4      C       0.1225996591     1.7355728034     0.0944350979
    5      O       1.3019487263    -1.6459672393     0.8034409278
    6      O       1.2257271580    -1.4217721736    -1.4404984575
    7      O       1.3720735302     1.2401803293     0.0345014064
    8      O      -0.1198034403     2.9186574214     0.1624428469
    9      C       2.4418947692     2.2004204037    -0.0027788966
   10      C       2.6183194122    -2.2196427039     0.6945577831
   11      C      -1.6947553607    -1.6169802078    -0.1393367441
   12      C      -3.0108606098    -1.1941869940     0.0217199494
   13      C      -3.2891074002     0.1594942019     0.2043406798
   14      C      -2.2481072263     1.0788738473     0.2230205899
   15      H       2.3118195253     2.8789251474    -0.8465148567
   16      H       2.5965988505    -3.1102881882     0.0648724487
   17      H      -4.3118340456     0.4956562925     0.3284546583
   18      H       2.4677214214     2.7754049042     0.9239978465
   19      H       3.3506929254     1.6142723634    -0.1182528797
   20      H       2.9081889840    -2.4736279306     1.7114761740
   21      H       3.3104321334    -1.4930432341     0.2660682550
   22      H      -3.8152591201    -1.9209517094     0.0025972595
   23      H      -2.4401739911     2.1357095762     0.3584432112
   24      H      -1.4797507093    -2.6686135982    -0.2902724015
 ----------------------------------------------------------------

    2    -688.2143634797      5.76E-09 Convergence criterion met
 Total energy in the final basis set = -688.21436348

                    Orbital Energies (a.u.)
 --------------------------------------------------------------

 Alpha MOs
 -- Occupied --
-19.180 -19.178 -19.121 -19.119 -10.314 -10.313 -10.234 -10.233
-10.215 -10.211 -10.199 -10.198 -10.196 -10.194  -1.123  -1.118
 -1.033  -1.032  -0.887  -0.797  -0.785  -0.743  -0.734  -0.657
 -0.637  -0.594  -0.580  -0.555  -0.522  -0.510  -0.497  -0.490
 -0.485  -0.481  -0.467  -0.454  -0.438  -0.433  -0.420  -0.407
 -0.390  -0.382  -0.380  -0.366  -0.363  -0.325  -0.315  -0.300
 -0.293  -0.278  -0.271

          Ground-State Mulliken Net Atomic Charges

     Atom                 Charge (a.u.)
  ----------------------------------------
      1 C                     0.529079
      2 C                     0.593438
      3 C                    -1.079702
      4 C                    -0.136130
      5 O                     0.081777
      6 O                    -0.118235
      7 O                    -0.123283
      8 O                    -0.262304
      9 C                    -0.205510
     10 C                    -0.209915
     11 C                    -0.019008
     12 C                    -0.208869
     13 C                    -0.253010
     14 C                    -0.323994
     15 H                     0.187012
     16 H                     0.172765
     17 H                     0.172897
     18 H                     0.190638
     19 H                     0.143683
     20 H                     0.157802
     21 H                     0.170728
     22 H                     0.168789
     23 H                     0.195356
     24 H                     0.175994
  ----------------------------------------
  Sum of atomic charges =    -0.000000

                    Cartesian Multipole Moments
 -----------------------------------------------------------------
    Charge (ESU x 10^10)
                -0.0000
    Dipole Moment (Debye)
         X       0.5498      Y      -1.6979      Z       1.6375
       Tot       2.4221
    Quadrupole Moments (Debye-Ang)
        XX     -62.7602     XY       3.8700     YY     -81.5722
        XZ       3.3616     YZ      -3.1483     ZZ     -87.8961

 Frequency:       -27.03                  64.49                  83.84
 Force Cnst:      0.0028                 0.0102                 0.0144
 Red. Mass:       6.5005                 4.1525                 3.4875
 IR Intens:        2.079                  2.271                  0.200
 Frequency:       101.47                 107.37                 128.52
 Force Cnst:      0.0198                 0.0159                 0.0149
 Red. Mass:       3.2663                 2.3400                 1.5354
 IR Intens:        1.651                  3.778                  0.204
 Frequency:       145.02                 166.36                 194.00
 Force Cnst:      0.0259                 0.0243                 0.1073
 Red. Mass:       2.0864                 1.4928                 4.8387
 IR Intens:        2.188                  0.724                  0.174
 Frequency:       249.94                 273.39                 299.96
 Force Cnst:      0.2068                 0.2664                 0.2231
 Red. Mass:       5.6195                 6.0499                 4.2077
 IR Intens:        2.235                  2.394                  9.103
 Frequency:       339.25                 361.89                 406.71
 Force Cnst:      0.3050                 0.3603                 0.7106
 Red. Mass:       4.4978                 4.6689                 7.2908
 IR Intens:       10.972                  8.016                  3.937
 Frequency:       441.53                 498.46                 572.33
 Force Cnst:      0.4565                 1.0703                 0.7387
 Red. Mass:       3.9745                 7.3114                 3.8279
 IR Intens:        0.733                  7.057                  4.875
 Frequency:       663.06                 710.82                 716.94
 Force Cnst:      1.6431                 1.5291                 1.2024
 Red. Mass:       6.3434                 5.1365                 3.9702
 IR Intens:        2.258                 13.397                 24.855
 Frequency:       775.06                 776.37                 813.71
 Force Cnst:      0.6604                 2.2427                 1.2762
 Red. Mass:       1.8659                 6.3153                 3.2713
 IR Intens:       52.541                 17.639                  0.955
 Frequency:       827.63                 854.89                 897.94
 Force Cnst:      2.0641                 2.1727                 0.7049
 Red. Mass:       5.1146                 5.0459                 1.4839
 IR Intens:        9.284                 11.336                  0.319
 Frequency:       976.92                 982.94                 986.12
 Force Cnst:      2.0014                 1.9439                 1.3791
 Red. Mass:       3.5593                 3.4149                 2.4071
 IR Intens:        8.351                 10.118                  5.557
 Frequency:      1006.16                1063.30                1097.56
 Force Cnst:      0.7854                 1.6559                 3.5860
 Red. Mass:       1.3167                 2.4858                 5.0524
 IR Intens:        0.087                 27.818                 53.010
 Frequency:      1142.99                1153.57                1168.95
 Force Cnst:      1.5969                 2.0093                 1.0342
 Red. Mass:       2.0746                 2.5628                 1.2846
 IR Intens:       66.243                147.680                  0.750
 Frequency:      1169.39                1189.64                1210.56
 Force Cnst:      1.0317                 0.9327                 1.3594
 Red. Mass:       1.2805                 1.1186                 1.5745
 IR Intens:        1.152                  1.315                 20.226
 Frequency:      1214.91                1269.46                1300.80
 Force Cnst:      1.4226                 2.3507                 4.2751
 Red. Mass:       1.6358                 2.4757                 4.2882
 IR Intens:       41.710                 73.657                517.531
 Frequency:      1306.78                1333.46                1465.55
 Force Cnst:      2.4134                 5.9580                 1.6504
 Red. Mass:       2.3987                 5.6872                 1.3042
 IR Intens:      170.273                 25.381                  8.795
 Frequency:      1469.19                1476.14                1480.98
 Force Cnst:      1.5507                 2.3861                 1.3523
 Red. Mass:       1.2193                 1.8586                 1.0464
 IR Intens:       22.252                 15.267                  6.151
 Frequency:      1485.62                1495.44                1496.64
 Force Cnst:      1.3665                 1.3807                 1.3834
 Red. Mass:       1.0509                 1.0479                 1.0482
 IR Intens:        9.972                 14.585                  6.254
 Frequency:      1516.41                1610.91                1638.69
 Force Cnst:      3.4820                 9.8059                 8.9803
 Red. Mass:       2.5700                 6.4135                 5.6761
 IR Intens:        4.971                  3.121                 18.988
 Frequency:      1766.82                1789.80                3050.11
 Force Cnst:     21.3550                22.6219                 5.6438
 Red. Mass:      11.6109                11.9859                 1.0297
 IR Intens:      320.202                262.997                 28.915
 Frequency:      3052.10                3123.09                3126.73
 Force Cnst:      5.6503                 6.3612                 6.3771
 Red. Mass:       1.0295                 1.1069                 1.1071
 IR Intens:       39.440                 18.864                 15.175
 Frequency:      3159.24                3159.59                3170.97
 Force Cnst:      6.5060                 6.5068                 6.4363
 Red. Mass:       1.1064                 1.1063                 1.0864
 IR Intens:       14.660                 10.446                  0.603
 Frequency:      3182.87                3192.66                3206.24
 Force Cnst:      6.5095                 6.5784                 6.6285
 Red. Mass:       1.0906                 1.0954                 1.0944
 IR Intens:        7.830                 10.138                  5.158

 STANDARD THERMODYNAMIC QUANTITIES AT   298.15 K  AND     1.00 ATM

   This Molecule has  1 Imaginary Frequencies
   Zero point vibrational energy:      116.024 kcal/mol

   Atom    1 Element C  Has Mass   12.00000
   Atom    2 Element C  Has Mass   12.00000
   Atom    3 Element C  Has Mass   12.00000
   Atom    4 Element C  Has Mass   12.00000
   Atom    5 Element O  Has Mass   15.99491
   Atom    6 Element O  Has Mass   15.99491
   Atom    7 Element O  Has Mass   15.99491
   Atom    8 Element O  Has Mass   15.99491
   Atom    9 Element C  Has Mass   12.00000
   Atom   10 Element C  Has Mass   12.00000
   Atom   11 Element C  Has Mass   12.00000
   Atom   12 Element C  Has Mass   12.00000
   Atom   13 Element C  Has Mass   12.00000
   Atom   14 Element C  Has Mass   12.00000
   Atom   15 Element H  Has Mass    1.00783
   Atom   16 Element H  Has Mass    1.00783
   Atom   17 Element H  Has Mass    1.00783
   Atom   18 Element H  Has Mass    1.00783
   Atom   19 Element H  Has Mass    1.00783
   Atom   20 Element H  Has Mass    1.00783
   Atom   21 Element H  Has Mass    1.00783
   Atom   22 Element H  Has Mass    1.00783
   Atom   23 Element H  Has Mass    1.00783
   Atom   24 Element H  Has Mass    1.00783
   Molecular Mass:   194.057940 amu
   Principal axes and moments of inertia in amu*Bohr^2:
                             1           2           3
    Eigenvalues --     2114.34815  2642.66332  4346.73996
          X               0.99614     0.08783    -0.00063
          Y              -0.08782     0.99579    -0.02618
          Z              -0.00167     0.02613     0.99966
   Rotational Symmetry Number is   1
   The Molecule is an Asymmetric Top
   Translational Enthalpy:        0.889 kcal/mol
   Rotational Enthalpy:           0.889 kcal/mol
   Vibrational Enthalpy:        122.180 kcal/mol
   gas constant (RT):             0.592 kcal/mol
   Translational Entropy:        41.694  cal/mol.K
   Rotational Entropy:           31.563  cal/mol.K
   Vibrational Entropy:          38.355  cal/mol.K

   Total Enthalpy:              124.550 kcal/mol
   Total Entropy:               111.612  cal/mol.K

 Total job time:  3216.21s(wall), 10455.06s(cpu)
        *  Thank you very much for using Q-Chem.  Have a nice day.  *
