 Q-Chem 5.0, Q-Chem, Inc., Pleasanton, CA (2017)
 Q-Chem 5.0.1 for Intel X86 EM64T Linux

User input:
--------------------------------------------------------------
$molecule
0 1
C 0.81250552 -0.68722192 0.10655748
C 0.80884901 0.70310538 -0.09861124
C -0.42835462 -1.52267496 0.12966096
C -0.44324029 1.52138239 -0.13283357
O -1.31828521 -1.11658011 -0.79838694
O -0.59032478 -2.48754934 0.83750353
O -1.29530345 1.15646960 0.84626862
O -0.64646070 2.43281750 -0.89772453
C -2.56297411 1.83581946 0.86882148
C -2.56454733 -1.83401698 -0.83927467
C 2.02799692 -1.36276983 0.22986475
C 3.23245268 -0.67495877 0.11855843
C 3.22863036 0.69779418 -0.12168315
C 2.02097210 1.38224563 -0.22827422
H -2.42043577 2.91084725 0.98602328
H -2.39055567 -2.89356673 -1.03107970
H 4.16360368 1.23701940 -0.21946169
H -3.11044459 1.64519164 -0.05633417
H -3.09621542 1.42375834 1.72258341
H -3.12960304 -1.38414340 -1.65254212
H -3.09659724 -1.72331827 0.10752163
H 4.16962949 -1.21148707 0.21045741
H 2.00340782 2.45144844 -0.40033129
H 2.01284185 -2.43269561 0.39824069
$end

$rem
sym_ignore      true
jobtype         opt
method          b3lyp
basis           6-311++G(d,p)
dft_d           d3_op
mem_total       62000
MEM_STATIC      4000
ao2mo_disk      350000
max_scf_cycles  200
geom_opt_max_cycles 1000
geom_opt_tol_displacement 1
GEOM_OPT_TOL_GRADIENT       1
GEOM_OPT_TOL_ENERGY         1
$end

--------------------------------------------------------------

   15    -688.2165737395      3.59E-09 Convergence criterion met
 Total energy in the final basis set = -688.21657374
   11    -688.2165793163      6.52E-09 Convergence criterion met
 Total energy in the final basis set = -688.21657932
   11    -688.2165845469      5.41E-09 Convergence criterion met
 Total energy in the final basis set = -688.21658455
   12    -688.2165712953      2.52E-09 Convergence criterion met
 Total energy in the final basis set = -688.21657130
   12    -688.2165741714      2.40E-09 Convergence criterion met
 Total energy in the final basis set = -688.21657417
   11    -688.2165593520      7.86E-09 Convergence criterion met
 Total energy in the final basis set = -688.21655935
   11    -688.2165807075      6.56E-09 Convergence criterion met
 Total energy in the final basis set = -688.21658071
   10    -688.2165814188      6.67E-09 Convergence criterion met
    8    -688.2165809917      6.28E-09 Convergence criterion met
 Total energy in the final basis set = -688.21658099
    8    -688.2165809178      3.65E-09 Convergence criterion met
 Total energy in the final basis set = -688.21658092
    7    -688.2165809615      3.37E-09 Convergence criterion met
 Total energy in the final basis set = -688.21658096
    6    -688.2165809930      8.49E-09 Convergence criterion met
 Total energy in the final basis set = -688.21658099
    5    -688.2165810075      7.99E-09 Convergence criterion met
 Total energy in the final basis set = -688.21658101
    4    -688.2165810107      8.88E-09 Convergence criterion met
 Total energy in the final basis set = -688.21658101
 Final energy is   -688.216581010714
 **  OPTIMIZATION CONVERGED  **
 Total job time:  476.43s(wall), 7442.37s(cpu)
        *  Thank you very much for using Q-Chem.  Have a nice day.  *

User input: 2 of 2

r0141.ten.osc.edu 10.25.154
Q-Chem Developer Version! Running on 10.25.154.*
                  Welcome to Q-Chem
     A Quantum Leap Into The Future Of Chemistry

 Q-Chem 5.0, Q-Chem, Inc., Pleasanton, CA (2017)

 Yihan Shao,  Zhengting Gan,  E. Epifanovsky,  A. T. B. Gilbert,  M. Wormit,
 J. Kussmann,  A. W. Lange,  A. Behn,  Jia Deng,  Xintian Feng,  D. Ghosh,
 M. Goldey,  P. R. Horn,  L. D. Jacobson,  I. Kaliman,  T. Kus,  A. Landau,
 Jie Liu,  E. I. Proynov,  R. M. Richard,  R. P. Steele,  E. J. Sundstrom,
 H. L. Woodcock III,  P. M. Zimmerman,  D. Zuev,  B. Albrecht,  E. Alguire,
 S. A. Baeppler,  Z. Benda,  Y. A. Bernard,  E. J. Berquist,  K. B. Bravaya,
 D. Casanova,  Chun-Min Chang,  Yunqing Chen,  A. Chien,  K. D. Closser,
 M. P. Coons,  S. Dasgupta,  M. Diedenhofen,  Hainam Do,  R. G. Edgar,
 Po-Tung Fang,  S. Fatehi,  Qingguo Feng,  Qinghui Ge,  A. Ghysels,
 J. Gomes,  J. Gonthier,  A. Gunina,  M. W. D. Hanson-Heine,
 P. H. P. Harbach,  A. W. Hauser,  J. E. Herr,  E. G. Hohenstein,
 Z. C. Holden,  Kerwin Hui,  T.-C. Jagau,  Hyunjun Ji,  B. Kaduk,
 K. Khistyaev,  Jaehoon Kim,  P. Klunzinger,  K. Koh,  D. Kosenkov,
 T. Kowalczyk,  C. M. Krauter,  A. Kunitsa,  Ka Un Lao,  A. Laurent,
 K. V. Lawler,  Joonho Lee,  D. Lefrancois,  S. Lehtola,  D. S. Levine,
 Yi-Pei Li,  You-Sheng Lin,  Fenglai Liu,  E. Livshits,  A. Luenser,
 P. Manohar,  E. Mansoor,  S. F. Manzer,  Shan-Ping Mao,  Yuezhi Mao,
 N. Mardirossian,  A. V. Marenich,  L. A. Martinez-Martinez,  S. A. Maurer,
 N. J. Mayhall,  S. C. McKenzie,  J.-M. Mewes,  A. F. Morrison,  K. Nanda,
 T. S. Nguyen-Beck,  R. Olivares-Amaya,  J. A. Parkhill,  T. M. Perrine,
 F. Plasser,  S. Prager,  A. Prociuk,  D. R. Rehn,  F. Rob,  M. Schneider,
 N. Sergueev,  S. M. Sharada,  S. Sharma,  D. W. Small,  T. Stauch,
 T. Stein,  Yu-Chuan Su,  A. J. W. Thom,  T. Tsuchimochi,  L. Vogt,
 O. Vydrov,  M. A. Watson,  J. Wenzel,  M. de Wergifosse,  T. A. Wesolowski,
 A. White,  J. Witte,  A. Yamada,  Jun Yang,  K. Yao,  S. Yeganeh,
 S. R. Yost,  Zhi-Qiang You,  A. Zech,  Igor Ying Zhang,  Xing Zhang,
 Yan Zhao,  Ying Zhu,  B. R. Brooks,  G. K. L. Chan,  C. J. Cramer,
 M. S. Gordon,  W. J. Hehre,  A. Klamt,  M. W. Schmidt,  C. D. Sherrill,
 D. G. Truhlar,  A. Aspuru-Guzik,  R. Baer,  A. T. Bell,  N. A. Besley,
 Jeng-Da Chai,  A. Dreuw,  B. D. Dunietz,  T. R. Furlani,  Chao-Ping Hsu,
 Yousung Jung,  Jing Kong,  D. S. Lambrecht,  WanZhen Liang,  C. Ochsenfeld,
 V. A. Rassolov,  L. V. Slipchenko,  J. E. Subotnik,  T. Van Voorhis,
 J. M. Herbert,  A. I. Krylov,  P. M. W. Gill,  M. Head-Gordon

 Contributors to earlier versions of Q-Chem not listed above:
 R. D. Adamson,  B. Austin,  J. Baker,  G. J. O. Beran,  K. Brandhorst,
 S. T. Brown,  E. F. C. Byrd,  A. K. Chakraborty,  C.-L. Cheng,
 Siu Hung Chien,  D. M. Chipman,  D. L. Crittenden,  H. Dachsel,
 R. A. DiStasio Jr.,  R. J. Doerksen,  A. D. Dutoi,  L. Fusti-Molnar,
 W. A. Goddard III,  A. Golubeva-Zadorozhnaya,  S. R. Gwaltney,  G. Hawkins,
 A. Heyden,  S. Hirata,  G. Kedziora,  F. J. Keil,  C. Kelley,  Jihan Kim,
 R. A. King,  R. Z. Khaliullin,  P. P. Korambath,  W. Kurlancheek,
 A. M. Lee,  M. S. Lee,  S. V. Levchenko,  Ching Yeh Lin,  D. Liotard,
 R. C. Lochan,  I. Lotan,  P. E. Maslen,  N. Nair,  D. P. O'Neill,
 D. Neuhauser,  E. Neuscamman,  C. M. Oana,  R. Olson,  B. Peters,
 R. Peverati,  P. A. Pieniazek,  Y. M. Rhee,  J. Ritchie,  M. A. Rohrdanz,
 E. Rosta,  N. J. Russ,  H. F. Schaefer III,  N. E. Schultz,  N. Shenvi,
 A. C. Simmonett,  A. Sodt,  D. Stuck,  K. S. Thanthiriwatte,  V. Vanovschi,
 Tao Wang,  A. Warshel,  C. F. Williams,  Q. Wu,  X. Xu,  W. Zhang

 Please cite Q-Chem as follows:
 Y. Shao et al., Mol. Phys. 113, 184-215 (2015)
 DOI: 10.1080/00268976.2014.952696

 Q-Chem 5.0.1 for Intel X86 EM64T Linux

 Parts of Q-Chem use Armadillo 5.200.1 (Boston Tea Smuggler).
 http://arma.sourceforge.net/

 Q-Chem begins on Sat Oct 14 21:27:04 2017

Host: r0141.ten.osc.edu
0

     Scratch files written to /tmp/pbstmp.1310489/02//
Processing $rem in /users/PAS0291/osu6415/.qchemrc.
molden_format             true
The previous job contains 0 fragments, simply inherited here

Checking the input file for inconsistencies... 	...done.

--------------------------------------------------------------
User input:
--------------------------------------------------------------

$molecule
read
$end

$rem
sym_ignore      true
scf_guess       read
jobtype         freq
method          b3lyp
basis           6-311++G(d,p)
dft_d           d3_op
mem_total       62000
MEM_STATIC      4000
ao2mo_disk      350000
max_scf_cycles  200
$end
--------------------------------------------------------------

             Standard Nuclear Orientation (Angstroms)
    I     Atom           X                Y                Z
 ----------------------------------------------------------------
    1      C       0.8093776587    -0.6768732318     0.1123362897
    2      C       0.8128256135     0.7137011007    -0.0903884442
    3      C      -0.4392345090    -1.5010542220     0.1549243904
    4      C      -0.4329691950     1.5408527575    -0.1087957914
    5      O      -1.2998239919    -1.1435886207    -0.8195420270
    6      O      -0.6293259311    -2.4177559280     0.9170266959
    7      O      -1.3115033435     1.1313364403     0.8285441859
    8      O      -0.6125934053     2.4938545772    -0.8280914057
    9      C      -2.5736335518     1.8203439912     0.8604603963
   10      C      -2.5532743282    -1.8492756522    -0.8477317045
   11      C       2.0208890869    -1.3612262618     0.2217393901
   12      C       3.2288845070    -0.6815653068     0.0970179442
   13      C       3.2322892437     0.6917059825    -0.1404413447
   14      C       2.0285178617     1.3847527258    -0.2314788920
   15      H      -2.4241089113     2.8866564415     1.0342642464
   16      H      -2.3879315144    -2.9193520152    -0.9801341545
   17      H       4.1699739841     1.2244880071    -0.2469732104
   18      H      -3.1043895939     1.6813792177    -0.0834352426
   19      H      -3.1268907428     1.3708696010     1.6820176865
   20      H      -3.0972396025    -1.4373238209    -1.6947518887
   21      H      -3.1024257043    -1.6835468232     0.0811104811
   22      H       4.1632067542    -1.2248958067     0.1774646202
   23      H       2.0155065270     2.4545081368    -0.4001770166
   24      H       2.0014202983    -2.4310750698     0.3905591756
 ----------------------------------------------------------------

    2    -688.2165810110      8.05E-09 Convergence criterion met
 Total energy in the final basis set = -688.21658101

                    Orbital Energies (a.u.)
 --------------------------------------------------------------

 Alpha MOs
 -- Occupied --
-19.178 -19.178 -19.121 -19.121 -10.314 -10.314 -10.234 -10.234
-10.213 -10.212 -10.199 -10.199 -10.198 -10.198  -1.123  -1.117
 -1.033  -1.032  -0.888  -0.799  -0.785  -0.744  -0.734  -0.658
 -0.639  -0.593  -0.580  -0.556  -0.521  -0.512  -0.494  -0.493
 -0.487  -0.479  -0.467  -0.456  -0.440  -0.433  -0.419  -0.407
 -0.389  -0.384  -0.382  -0.367  -0.367  -0.326  -0.313  -0.301
 -0.297  -0.275  -0.274

          Ground-State Mulliken Net Atomic Charges

     Atom                 Charge (a.u.)
  ----------------------------------------
      1 C                     0.657056
      2 C                     0.713382
      3 C                    -0.545369
      4 C                    -0.495105
      5 O                     0.005035
      6 O                    -0.213947
      7 O                    -0.004263
      8 O                    -0.218768
      9 C                    -0.246036
     10 C                    -0.249635
     11 C                    -0.338026
     12 C                    -0.245256
     13 C                    -0.243040
     14 C                    -0.324177
     15 H                     0.176533
     16 H                     0.176209
     17 H                     0.172968
     18 H                     0.180730
     19 H                     0.161694
     20 H                     0.160788
     21 H                     0.179181
     22 H                     0.173142
     23 H                     0.184029
     24 H                     0.182876
  ----------------------------------------
  Sum of atomic charges =    -0.000000

                    Cartesian Multipole Moments
 -----------------------------------------------------------------
    Charge (ESU x 10^10)
                -0.0000
    Dipole Moment (Debye)
         X      -0.2247      Y      -0.0926      Z      -0.0922
       Tot       0.2599
    Quadrupole Moments (Debye-Ang)
        XX     -60.4936     XY       0.0185     YY     -86.0034
        XZ      -0.0599     YZ       9.2586     ZZ     -86.8336

 Frequency:        34.32                  71.38                  84.07
 Force Cnst:      0.0052                 0.0135                 0.0158
 Red. Mass:       7.4508                 4.4868                 3.7835
 IR Intens:        4.495                  0.968                  0.070
 Frequency:       112.82                 115.02                 130.44
 Force Cnst:      0.0218                 0.0322                 0.0313
 Red. Mass:       2.9081                 4.1332                 3.1185
 IR Intens:        3.868                  0.241                  4.020
 Frequency:       142.80                 150.57                 245.22
 Force Cnst:      0.0142                 0.0155                 0.1944
 Red. Mass:       1.1860                 1.1576                 5.4870
 IR Intens:        0.517                  0.447                  0.045
 Frequency:       258.95                 281.14                 295.81
 Force Cnst:      0.1890                 0.2195                 0.3299
 Red. Mass:       4.7835                 4.7125                 6.3999
 IR Intens:        4.909                  7.731                  3.180
 Frequency:       329.51                 368.45                 404.83
 Force Cnst:      0.2787                 0.4536                 0.7868
 Red. Mass:       4.3569                 5.6708                 8.1489
 IR Intens:        2.589                 15.485                  3.716
 Frequency:       418.42                 538.23                 556.58
 Force Cnst:      0.3892                 0.7648                 0.9228
 Red. Mass:       3.7727                 4.4808                 5.0559
 IR Intens:        2.397                  0.167                  6.103
 Frequency:       663.14                 708.02                 712.16
 Force Cnst:      1.6429                 1.7443                 1.7184
 Red. Mass:       6.3408                 5.9059                 5.7508
 IR Intens:        1.573                  0.280                 14.994
 Frequency:       755.57                 805.62                 808.43
 Force Cnst:      0.6702                 1.7694                 0.9899
 Red. Mass:       1.9925                 4.6273                 2.5708
 IR Intens:       83.789                  2.615                 10.817
 Frequency:       825.23                 853.31                 906.69
 Force Cnst:      2.0075                 2.2675                 0.7072
 Red. Mass:       5.0034                 5.2854                 1.4601
 IR Intens:        3.939                 13.797                  0.784
 Frequency:       974.79                 986.83                 987.13
 Force Cnst:      2.0207                 3.2219                 1.0659
 Red. Mass:       3.6093                 5.6153                 1.8565
 IR Intens:       12.712                  7.617                  1.733
 Frequency:      1007.29                1062.72                1097.16
 Force Cnst:      0.7867                 1.6629                 3.6033
 Red. Mass:       1.3160                 2.4991                 5.0805
 IR Intens:        0.463                 32.151                 34.998
 Frequency:      1142.22                1152.05                1172.44
 Force Cnst:      1.5126                 2.2707                 1.0366
 Red. Mass:       1.9678                 2.9038                 1.2799
 IR Intens:       51.582                166.937                  0.291
 Frequency:      1172.65                1190.07                1210.60
 Force Cnst:      1.0374                 0.9320                 1.3437
 Red. Mass:       1.2805                 1.1169                 1.5561
 IR Intens:        1.611                  1.193                 18.160
 Frequency:      1212.86                1263.37                1299.76
 Force Cnst:      1.4144                 2.4308                 4.8260
 Red. Mass:       1.6319                 2.5849                 4.8485
 IR Intens:       53.842                 80.118                609.111
 Frequency:      1310.40                1336.45                1466.93
 Force Cnst:      1.9054                 8.1094                 1.5693
 Red. Mass:       1.8833                 7.7060                 1.2377
 IR Intens:       39.281                  0.032                  9.423
 Frequency:      1469.94                1480.70                1483.36
 Force Cnst:      1.5228                 2.5588                 1.3730
 Red. Mass:       1.1962                 1.9809                 1.0591
 IR Intens:       26.910                  2.194                 11.853
 Frequency:      1484.37                1497.87                1501.22
 Force Cnst:      1.3725                 1.3932                 1.4049
 Red. Mass:       1.0573                 1.0539                 1.0581
 IR Intens:        6.369                 14.683                  6.251
 Frequency:      1513.87                1612.02                1640.89
 Force Cnst:      3.4551                 9.5995                 9.2401
 Red. Mass:       2.5588                 6.2698                 5.8246
 IR Intens:        2.789                  0.718                 11.974
 Frequency:      1775.75                1780.64                3047.80
 Force Cnst:     22.1214                22.0463                 5.6372
 Red. Mass:      11.9069                11.8014                 1.0300
 IR Intens:      566.339                 23.548                  9.446
 Frequency:      3048.83                3120.48                3121.57
 Force Cnst:      5.6419                 6.3487                 6.3530
 Red. Mass:       1.0302                 1.1066                 1.1066
 IR Intens:       54.974                 34.438                  3.066
 Frequency:      3157.36                3157.65                3175.18
 Force Cnst:      6.4962                 6.4983                 6.4544
 Red. Mass:       1.1060                 1.1062                 1.0866
 IR Intens:        5.695                 15.994                  1.480
 Frequency:      3187.75                3197.94                3202.91
 Force Cnst:      6.5278                 6.5878                 6.6299
 Red. Mass:       1.0903                 1.0933                 1.0969
 IR Intens:        5.509                  3.457                  9.490

 STANDARD THERMODYNAMIC QUANTITIES AT   298.15 K  AND     1.00 ATM

   This Molecule has  0 Imaginary Frequencies
   Zero point vibrational energy:      116.196 kcal/mol

   Atom    1 Element C  Has Mass   12.00000
   Atom    2 Element C  Has Mass   12.00000
   Atom    3 Element C  Has Mass   12.00000
   Atom    4 Element C  Has Mass   12.00000
   Atom    5 Element O  Has Mass   15.99491
   Atom    6 Element O  Has Mass   15.99491
   Atom    7 Element O  Has Mass   15.99491
   Atom    8 Element O  Has Mass   15.99491
   Atom    9 Element C  Has Mass   12.00000
   Atom   10 Element C  Has Mass   12.00000
   Atom   11 Element C  Has Mass   12.00000
   Atom   12 Element C  Has Mass   12.00000
   Atom   13 Element C  Has Mass   12.00000
   Atom   14 Element C  Has Mass   12.00000
   Atom   15 Element H  Has Mass    1.00783
   Atom   16 Element H  Has Mass    1.00783
   Atom   17 Element H  Has Mass    1.00783
   Atom   18 Element H  Has Mass    1.00783
   Atom   19 Element H  Has Mass    1.00783
   Atom   20 Element H  Has Mass    1.00783
   Atom   21 Element H  Has Mass    1.00783
   Atom   22 Element H  Has Mass    1.00783
   Atom   23 Element H  Has Mass    1.00783
   Atom   24 Element H  Has Mass    1.00783
   Molecular Mass:   194.057940 amu
   Principal axes and moments of inertia in amu*Bohr^2:
                             1           2           3
    Eigenvalues --     1980.60309  2718.34914  4171.29156
          X               0.99992    -0.00998     0.00743
          Y               0.00981     0.99971     0.02188
          Z              -0.00765    -0.02181     0.99973
   Rotational Symmetry Number is   1
   The Molecule is an Asymmetric Top
   Translational Enthalpy:        0.889 kcal/mol
   Rotational Enthalpy:           0.889 kcal/mol
   Vibrational Enthalpy:        122.829 kcal/mol
   gas constant (RT):             0.592 kcal/mol
   Translational Entropy:        41.694  cal/mol.K
   Rotational Entropy:           31.485  cal/mol.K
   Vibrational Entropy:          43.092  cal/mol.K

   Total Enthalpy:              125.199 kcal/mol
   Total Entropy:               116.271  cal/mol.K

 Total job time:  3275.62s(wall), 10573.80s(cpu)
        *  Thank you very much for using Q-Chem.  Have a nice day.  *
