 Q-Chem 5.0, Q-Chem, Inc., Pleasanton, CA (2017)
 Q-Chem 5.0.1 for Intel X86 EM64T Linux

User input:
--------------------------------------------------------------
$molecule
0  1
--
0  1
C        +0.22270000        +1.04488000        +0.58595000
C        +0.62626000        -0.41353000        +0.99871000
C        -1.18200000        +1.23223000        +0.04377000
C        -0.37457000        -1.51643000        +0.72333000
O        -2.09172000        +0.78832000        +0.93966000
O        -1.47336000        +1.75939000        -0.99882000
O        -0.91364000        -1.42792000        -0.50620000
O        -0.62208000        -2.40877000        +1.49911000
C        -1.86134000        -2.44741000        -0.86560000
C        -3.47068000        +0.87492000        +0.53920000
C        +1.33008000        +1.39974000        -0.43491000
C        +2.63070000        +1.71700000        +0.32855000
C        +3.04336000        +0.29351000        +0.80300000
C        +1.94423000        -0.59299000        +0.15262000
O        +1.62840000        +0.13663000        -1.04376000
H        +0.27811000        +1.68786000        +1.46900000
H        +0.83923000        -0.48042000        +2.06408000
H        -2.68749000        -2.46677000        -0.15296000
H        -3.76076000        +1.91522000        +0.38406000
H        +3.37234000        +2.13782000        -0.35195000
H        +2.48236000        +2.42488000        +1.14651000
H        +4.02182000        +0.00994000        +0.41161000
H        +3.07359000        +0.18738000        +1.88928000
H        -2.21148000        -2.17765000        -1.85937000
H        -1.38062000        -3.42697000        -0.88096000
H        -4.03855000        +0.43623000        +1.35671000
H        -3.63120000        +0.31700000        -0.38495000
H        +1.03270000        +2.19943000        -1.08064000
H        +2.24339000        -1.61496000        +0.04786000
--
0  1
C        +0.25922000        +3.11331000        +7.27327000
C        +0.66278000        +1.65490000        +7.68603000
C        -1.14548000        +3.30066000        +6.73109000
C        -0.33805000        +0.55200000        +7.41065000
O        -2.05520000        +2.85675000        +7.62698000
O        -1.43684000        +3.82782000        +5.68850000
O        -0.87712000        +0.64051000        +6.18112000
O        -0.58556000        -0.34034000        +8.18643000
C        -1.82482000        -0.37898000        +5.82172000
C        -3.43416000        +2.94335000        +7.22652000
C        +1.36660000        +3.46817000        +6.25241000
C        +2.66722000        +3.78543000        +7.01587000
C        +3.07988000        +2.36194000        +7.49032000
C        +1.98075000        +1.47544000        +6.83994000
O        +1.66492000        +2.20506000        +5.64356000
H        +0.31463000        +3.75629000        +8.15632000
H        +0.87575000        +1.58801000        +8.75140000
H        -2.65097000        -0.39834000        +6.53436000
H        -3.72424000        +3.98365000        +7.07138000
H        +3.40886000        +4.20625000        +6.33537000
H        +2.51888000        +4.49331000        +7.83383000
H        +4.05834000        +2.07837000        +7.09893000
H        +3.11011000        +2.25581000        +8.57660000
H        -2.17496000        -0.10922000        +4.82795000
H        -1.34410000        -1.35854000        +5.80636000
H        -4.00203000        +2.50466000        +8.04403000
H        -3.59468000        +2.38543000        +6.30237000
H        +1.06922000        +4.26786000        +5.60668000
H        +2.27991000        +0.45347000        +6.73518000
$end

$rem
JOBTYPE                   SP
METHOD                    B3LYP
DFT_D                     d3_op
BASIS                     6-311++G(d,p)
SYMMETRY                  False
THRESH                    12
SCF_CONVERGENCE           8
MAX_SUB_FILE_NUM          128
MEM_STATIC                400
MEM_TOTAL                 4000
$end
--------------------------------------------------------------

             Standard Nuclear Orientation (Angstroms)
    I     Atom           X                Y                Z
 ----------------------------------------------------------------
    1      C      -2.7688749276     0.5766654027     0.8455966960
    2      C      -2.8379620304     0.6524755088    -0.7195457957
    3      C      -3.2645407650    -0.7069445266     1.4850513011
    4      C      -3.4863208507    -0.5087381762    -1.4441814705
    5      O      -2.5891715365    -1.7674226775     0.9885354855
    6      O      -4.0889486461    -0.7895237799     2.3587300383
    7      O      -4.6371443839    -0.8987707151    -0.8665532855
    8      O      -3.0491146372    -0.9962291141    -2.4593513068
    9      C      -5.3363205283    -1.9839988859    -1.4990847444
   10      C      -2.9826194288    -3.0589006910     1.4852061510
   11      C      -3.5851135326     1.8253905038     1.2564633229
   12      C      -2.7201217618     3.0820669795     1.0380807792
   13      C      -2.7192871929     3.1674246008    -0.5157622753
   14      C      -3.6552991219     1.9879655221    -0.9027003862
   15      O      -4.5603865326     1.9350726751     0.2114980537
   16      H      -1.7240002409     0.6675216839     1.1558431727
   17      H      -1.8454985551     0.7440725925    -1.1571185947
   18      H      -4.6942717799    -2.8640222588    -1.5630118077
   19      H      -2.8016865687    -3.1286956123     2.5589057761
   20      H      -3.2044840597     3.9530001417     1.4820044250
   21      H      -1.7221184717     2.9926152601     1.4718378939
   22      H      -3.1508397200     4.1071733727    -0.8644981507
   23      H      -1.7254144440     3.0710007466    -0.9574647401
   24      H      -6.1996777513    -2.1778493894    -0.8666421952
   25      H      -5.6529253254    -1.6998081251    -2.5040038732
   26      H      -2.3690827941    -3.7768369183     0.9454022750
   27      H      -4.0420958249    -3.2322020023     1.2888110370
   28      H      -3.9462124465     1.7503030655     2.2608913414
   29      H      -4.0758024168     2.0954175067    -1.8807213952
   30      C       4.2257039694     0.3561892869     0.6805467220
   31      C       4.1566168666     0.4319993931    -0.8845957697
   32      C       3.7300381320    -0.9274206423     1.3200013272
   33      C       3.5082580463    -0.7292142920    -1.6092314445
   34      O       4.4054073604    -1.9878987933     0.8234855116
   35      O       2.9056302509    -1.0099998956     2.1936800644
   36      O       2.3574345131    -1.1192468308    -1.0316032595
   37      O       3.9454642598    -1.2167052299    -2.6244012807
   38      C       1.6582583687    -2.2044750017    -1.6641347183
   39      C       4.0119594682    -3.2793768068     1.3201561770
   40      C       3.4094653644     1.6049143880     1.0914133490
   41      C       4.2744571352     2.8615908637     0.8730308053
   42      C       4.2752917041     2.9469484851    -0.6808122493
   43      C       3.3392797751     1.7674894063    -1.0677503601
   44      O       2.4341923644     1.7145965593     0.0464480798
   45      H       5.2705786561     0.4470455681     0.9907931987
   46      H       5.1490803419     0.5235964767    -1.3221685686
   47      H       2.3003071171    -3.0844983746    -1.7280617816
   48      H       4.1928923283    -3.3491717281     2.3938558022
   49      H       3.7900948373     3.7325240259     1.3169544511
   50      H       5.2724604253     2.7721391443     1.3067879200
   51      H       3.8437391770     3.8866972569    -1.0295481247
   52      H       5.2691644530     2.8505246308    -1.1225147141
   53      H       0.7949011457    -2.3983255052    -1.0316921691
   54      H       1.3416535716    -1.9202842409    -2.6690538471
   55      H       4.6254961029    -3.9973130341     0.7803523011
   56      H       2.9524830721    -3.4526781181     1.1237610630
   57      H       3.0483664505     1.5298269497     2.0958413675
   58      H       2.9187764802     1.8749413909    -2.0457713691
 ----------------------------------------------------------------

   15   -1531.7197940030      5.10E-09 Convergence criterion met
 Total energy in the final basis set = -1531.71979400

                    Orbital Energies (a.u.)
 --------------------------------------------------------------

 Alpha MOs
 -- Occupied --
-19.178 -19.174 -19.172 -19.171 -19.141 -19.131 -19.122 -19.117
-19.115 -19.114 -10.312 -10.307 -10.305 -10.304 -10.245 -10.238
-10.235 -10.234 -10.230 -10.228 -10.227 -10.226 -10.209 -10.208
-10.201 -10.200 -10.185 -10.183 -10.177 -10.174  -1.122  -1.117
 -1.114  -1.110  -1.069  -1.060  -1.034  -1.028  -1.027  -1.025
 -0.836  -0.828  -0.788  -0.781  -0.780  -0.773  -0.741  -0.736
 -0.730  -0.726  -0.661  -0.654  -0.613  -0.606  -0.599  -0.591
 -0.582  -0.576  -0.569  -0.564  -0.553  -0.547  -0.522  -0.515
 -0.508  -0.502  -0.499  -0.492  -0.490  -0.486  -0.485  -0.481
 -0.476  -0.474  -0.473  -0.469  -0.464  -0.457  -0.442  -0.435
 -0.428  -0.426  -0.423  -0.421  -0.420  -0.415  -0.400  -0.396
 -0.387  -0.380  -0.377  -0.374  -0.372  -0.372  -0.367  -0.364
 -0.363  -0.359  -0.358  -0.351  -0.339  -0.338  -0.332  -0.329
 -0.322  -0.317  -0.313  -0.310  -0.293  -0.286  -0.284  -0.279
 -0.279  -0.272

          Ground-State Mulliken Net Atomic Charges

     Atom                 Charge (a.u.)
  ----------------------------------------
      1 C                    -0.058654
      2 C                     0.608799
      3 C                    -0.646897
      4 C                    -0.657745
      5 O                     0.024355
      6 O                    -0.202855
      7 O                    -0.010031
      8 O                    -0.154875
      9 C                    -0.208856
     10 C                    -0.230632
     11 C                    -0.189724
     12 C                    -0.329189
     13 C                    -0.494455
     14 C                    -0.081786
     15 O                    -0.105194
     16 H                     0.214192
     17 H                     0.329760
     18 H                     0.186838
     19 H                     0.179901
     20 H                     0.194136
     21 H                     0.123512
     22 H                     0.186469
     23 H                     0.098870
     24 H                     0.170977
     25 H                     0.175921
     26 H                     0.144355
     27 H                     0.182109
     28 H                     0.288967
     29 H                     0.267552
     30 C                     0.320683
     31 C                     0.375639
     32 C                    -0.657963
     33 C                    -0.659896
     34 O                    -0.007571
     35 O                    -0.153108
     36 O                    -0.017430
     37 O                    -0.165711
     38 C                    -0.248885
     39 C                    -0.194236
     40 C                    -0.346971
     41 C                    -0.506133
     42 C                    -0.450805
     43 C                    -0.014094
     44 O                     0.001570
     45 H                     0.245429
     46 H                     0.283681
     47 H                     0.194983
     48 H                     0.171875
     49 H                     0.186658
     50 H                     0.128907
     51 H                     0.181936
     52 H                     0.128703
     53 H                     0.152502
     54 H                     0.184270
     55 H                     0.165676
     56 H                     0.183871
     57 H                     0.258919
     58 H                     0.251685
  ----------------------------------------
  Sum of atomic charges =     0.000000

                    Cartesian Multipole Moments
 -----------------------------------------------------------------
    Charge (ESU x 10^10)
                 0.0000
    Dipole Moment (Debye)
         X       3.0000      Y       0.0284      Z       0.6074
       Tot       3.0610
    Quadrupole Moments (Debye-Ang)
        XX    -178.4392     XY      13.4609     YY    -152.1474
        XZ      17.8948     YZ      -6.2054     ZZ    -192.8731

 Total job time:  6031.68s(wall), 6017.43s(cpu)
        *  Thank you very much for using Q-Chem.  Have a nice day.  *
