 Q-Chem 5.0, Q-Chem, Inc., Pleasanton, CA (2017)
 Q-Chem 5.0.1 for Intel X86 EM64T Linux

User input:
--------------------------------------------------------------
$molecule
0  1
C        +0.25922000        +3.11331000        +7.27327000
C        +0.66278000        +1.65490000        +7.68603000
C        -1.14548000        +3.30066000        +6.73109000
C        -0.33805000        +0.55200000        +7.41065000
O        -2.05520000        +2.85675000        +7.62698000
O        -1.43684000        +3.82782000        +5.68850000
O        -0.87712000        +0.64051000        +6.18112000
O        -0.58556000        -0.34034000        +8.18643000
C        -1.82482000        -0.37898000        +5.82172000
C        -3.43416000        +2.94335000        +7.22652000
C        +1.36660000        +3.46817000        +6.25241000
C        +2.66722000        +3.78543000        +7.01587000
C        +3.07988000        +2.36194000        +7.49032000
C        +1.98075000        +1.47544000        +6.83994000
O        +1.66492000        +2.20506000        +5.64356000
H        +0.31463000        +3.75629000        +8.15632000
H        +0.87575000        +1.58801000        +8.75140000
H        -2.65097000        -0.39834000        +6.53436000
H        -3.72424000        +3.98365000        +7.07138000
H        +3.40886000        +4.20625000        +6.33537000
H        +2.51888000        +4.49331000        +7.83383000
H        +4.05834000        +2.07837000        +7.09893000
H        +3.11011000        +2.25581000        +8.57660000
H        -2.17496000        -0.10922000        +4.82795000
H        -1.34410000        -1.35854000        +5.80636000
H        -4.00203000        +2.50466000        +8.04403000
H        -3.59468000        +2.38543000        +6.30237000
H        +1.06922000        +4.26786000        +5.60668000
H        +2.27991000        +0.45347000        +6.73518000
@C        +0.22270000        +1.04488000        +0.58595000
@C        +0.62626000        -0.41353000        +0.99871000
@C        -1.18200000        +1.23223000        +0.04377000
@C        -0.37457000        -1.51643000        +0.72333000
@O        -2.09172000        +0.78832000        +0.93966000
@O        -1.47336000        +1.75939000        -0.99882000
@O        -0.91364000        -1.42792000        -0.50620000
@O        -0.62208000        -2.40877000        +1.49911000
@C        -1.86134000        -2.44741000        -0.86560000
@C        -3.47068000        +0.87492000        +0.53920000
@C        +1.33008000        +1.39974000        -0.43491000
@C        +2.63070000        +1.71700000        +0.32855000
@C        +3.04336000        +0.29351000        +0.80300000
@C        +1.94423000        -0.59299000        +0.15262000
@O        +1.62840000        +0.13663000        -1.04376000
@H        +0.27811000        +1.68786000        +1.46900000
@H        +0.83923000        -0.48042000        +2.06408000
@H        -2.68749000        -2.46677000        -0.15296000
@H        -3.76076000        +1.91522000        +0.38406000
@H        +3.37234000        +2.13782000        -0.35195000
@H        +2.48236000        +2.42488000        +1.14651000
@H        +4.02182000        +0.00994000        +0.41161000
@H        +3.07359000        +0.18738000        +1.88928000
@H        -2.21148000        -2.17765000        -1.85937000
@H        -1.38062000        -3.42697000        -0.88096000
@H        -4.03855000        +0.43623000        +1.35671000
@H        -3.63120000        +0.31700000        -0.38495000
@H        +1.03270000        +2.19943000        -1.08064000
@H        +2.24339000        -1.61496000        +0.04786000
$end

$rem
JOBTYPE                   SP
METHOD                    B3LYP
DFT_D                     d3_op
BASIS                     6-311++G(d,p)
SYMMETRY                  False
THRESH                    12
SCF_CONVERGENCE           8
MAX_SUB_FILE_NUM          128
MEM_STATIC                400
MEM_TOTAL                 4000
$end
--------------------------------------------------------------

             Standard Nuclear Orientation (Angstroms)
    I     Atom           X                Y                Z
 ----------------------------------------------------------------
    1      C       0.2592200000     3.1133100000     7.2732700000
    2      C       0.6627800000     1.6549000000     7.6860300000
    3      C      -1.1454800000     3.3006600000     6.7310900000
    4      C      -0.3380500000     0.5520000000     7.4106500000
    5      O      -2.0552000000     2.8567500000     7.6269800000
    6      O      -1.4368400000     3.8278200000     5.6885000000
    7      O      -0.8771200000     0.6405100000     6.1811200000
    8      O      -0.5855600000    -0.3403400000     8.1864300000
    9      C      -1.8248200000    -0.3789800000     5.8217200000
   10      C      -3.4341600000     2.9433500000     7.2265200000
   11      C       1.3666000000     3.4681700000     6.2524100000
   12      C       2.6672200000     3.7854300000     7.0158700000
   13      C       3.0798800000     2.3619400000     7.4903200000
   14      C       1.9807500000     1.4754400000     6.8399400000
   15      O       1.6649200000     2.2050600000     5.6435600000
   16      H       0.3146300000     3.7562900000     8.1563200000
   17      H       0.8757500000     1.5880100000     8.7514000000
   18      H      -2.6509700000    -0.3983400000     6.5343600000
   19      H      -3.7242400000     3.9836500000     7.0713800000
   20      H       3.4088600000     4.2062500000     6.3353700000
   21      H       2.5188800000     4.4933100000     7.8338300000
   22      H       4.0583400000     2.0783700000     7.0989300000
   23      H       3.1101100000     2.2558100000     8.5766000000
   24      H      -2.1749600000    -0.1092200000     4.8279500000
   25      H      -1.3441000000    -1.3585400000     5.8063600000
   26      H      -4.0020300000     2.5046600000     8.0440300000
   27      H      -3.5946800000     2.3854300000     6.3023700000
   28      H       1.0692200000     4.2678600000     5.6066800000
   29      H       2.2799100000     0.4534700000     6.7351800000
   30      GH      0.2227000000     1.0448800000     0.5859500000
   31      GH      0.6262600000    -0.4135300000     0.9987100000
   32      GH     -1.1820000000     1.2322300000     0.0437700000
   33      GH     -0.3745700000    -1.5164300000     0.7233300000
   34      GH     -2.0917200000     0.7883200000     0.9396600000
   35      GH     -1.4733600000     1.7593900000    -0.9988200000
   36      GH     -0.9136400000    -1.4279200000    -0.5062000000
   37      GH     -0.6220800000    -2.4087700000     1.4991100000
   38      GH     -1.8613400000    -2.4474100000    -0.8656000000
   39      GH     -3.4706800000     0.8749200000     0.5392000000
   40      GH      1.3300800000     1.3997400000    -0.4349100000
   41      GH      2.6307000000     1.7170000000     0.3285500000
   42      GH      3.0433600000     0.2935100000     0.8030000000
   43      GH      1.9442300000    -0.5929900000     0.1526200000
   44      GH      1.6284000000     0.1366300000    -1.0437600000
   45      GH      0.2781100000     1.6878600000     1.4690000000
   46      GH      0.8392300000    -0.4804200000     2.0640800000
   47      GH     -2.6874900000    -2.4667700000    -0.1529600000
   48      GH     -3.7607600000     1.9152200000     0.3840600000
   49      GH      3.3723400000     2.1378200000    -0.3519500000
   50      GH      2.4823600000     2.4248800000     1.1465100000
   51      GH      4.0218200000     0.0099400000     0.4116100000
   52      GH      3.0735900000     0.1873800000     1.8892800000
   53      GH     -2.2114800000    -2.1776500000    -1.8593700000
   54      GH     -1.3806200000    -3.4269700000    -0.8809600000
   55      GH     -4.0385500000     0.4362300000     1.3567100000
   56      GH     -3.6312000000     0.3170000000    -0.3849500000
   57      GH      1.0327000000     2.1994300000    -1.0806400000
   58      GH      2.2433900000    -1.6149600000     0.0478600000
 ----------------------------------------------------------------

   14    -765.8583302228      6.80E-09 Convergence criterion met
 Total energy in the final basis set = -765.85833022

                    Orbital Energies (a.u.)
 --------------------------------------------------------------

 Alpha MOs
 -- Occupied --
-19.176 -19.174 -19.136 -19.120 -19.116 -10.310 -10.306 -10.242
-10.232 -10.232 -10.230 -10.207 -10.206 -10.182 -10.180  -1.120
 -1.113  -1.065  -1.031  -1.028  -0.833  -0.785  -0.778  -0.740
 -0.729  -0.659  -0.610  -0.596  -0.580  -0.567  -0.551  -0.520
 -0.506  -0.496  -0.489  -0.484  -0.475  -0.473  -0.462  -0.439
 -0.427  -0.425  -0.418  -0.399  -0.385  -0.376  -0.371  -0.369
 -0.362  -0.356  -0.337  -0.334  -0.320  -0.313  -0.290  -0.282
 -0.276

          Ground-State Mulliken Net Atomic Charges

     Atom                 Charge (a.u.)
  ----------------------------------------
      1 C                     0.311175
      2 C                     0.374121
      3 C                    -0.663329
      4 C                    -0.652606
      5 O                    -0.008537
      6 O                    -0.148611
      7 O                    -0.010553
      8 O                    -0.167568
      9 C                    -0.259576
     10 C                    -0.192734
     11 C                    -0.344430
     12 C                    -0.504975
     13 C                    -0.449864
     14 C                    -0.013664
     15 O                     0.010991
     16 H                     0.244233
     17 H                     0.282645
     18 H                     0.195620
     19 H                     0.171919
     20 H                     0.187898
     21 H                     0.127527
     22 H                     0.182631
     23 H                     0.126922
     24 H                     0.151004
     25 H                     0.181465
     26 H                     0.164740
     27 H                     0.183670
     28 H                     0.259924
     29 H                     0.250596
     30 GH                   -0.007520
     31 GH                   -0.009386
     32 GH                   -0.004146
     33 GH                   -0.000525
     34 GH                   -0.000091
     35 GH                    0.000013
     36 GH                    0.000016
     37 GH                   -0.000041
     38 GH                   -0.000032
     39 GH                    0.001051
     40 GH                    0.004567
     41 GH                   -0.003082
     42 GH                   -0.002091
     43 GH                   -0.000053
     44 GH                   -0.000016
     45 GH                    0.013130
     46 GH                    0.014866
     47 GH                    0.000018
     48 GH                   -0.000253
     49 GH                   -0.000048
     50 GH                    0.000619
     51 GH                   -0.000199
     52 GH                    0.000843
     53 GH                   -0.000002
     54 GH                   -0.000001
     55 GH                    0.001546
     56 GH                   -0.000023
     57 GH                    0.000145
     58 GH                    0.000060
  ----------------------------------------
  Sum of atomic charges =     0.000000

                    Cartesian Multipole Moments
 -----------------------------------------------------------------
    Charge (ESU x 10^10)
                 0.0000
    Dipole Moment (Debye)
         X      -0.0145      Y       0.7267      Z       1.2124
       Tot       1.4136
    Quadrupole Moments (Debye-Ang)
        XX     -75.1654     XY       2.9586     YY     -86.6781
        XZ       3.3053     YZ      18.0618     ZZ     -79.6514

 Total job time:  5268.59s(wall), 5256.13s(cpu)
        *  Thank you very much for using Q-Chem.  Have a nice day.  *
