 Q-Chem 5.0, Q-Chem, Inc., Pleasanton, CA (2017)
 Q-Chem 5.0.1 for Intel X86 EM64T Linux

User input:
--------------------------------------------------------------
$molecule
0  1
--
0  1
C        -0.54444000        -0.68370000        -0.06689000
C        -0.55709000        +0.71878000        +0.05493000
C        +0.74969000        -1.43776000        -0.09374000
C        +0.72843000        +1.48436000        +0.06598000
O        +1.53645000        -1.09176000        +0.94813000
O        +1.04702000        -2.28405000        -0.90088000
O        +1.53784000        +1.08301000        -0.93877000
O        +1.01035000        +2.37097000        +0.83478000
C        +2.83449000        +1.70121000        -0.99358000
C        +2.82316000        -1.73208000        +1.00475000
C        -1.74320000        -1.41616000        -0.12552000
C        -2.93952000        -0.70056000        -0.05285000
C        -2.95313000        +0.68255000        +0.06934000
C        -1.77161000        +1.42404000        +0.12810000
H        +2.73835000        +2.77989000        -1.12464000
H        +2.70778000        -2.81319000        +1.09555000
H        -3.90354000        +1.20325000        +0.11710000
H        +3.38998000        +1.50093000        -0.07544000
H        +3.33184000        +1.25269000        -1.85067000
H        +3.31095000        -1.32281000        +1.88650000
H        +3.39889000        -1.50934000        +0.10459000
H        -3.87892000        -1.24211000        -0.08988000
H        -1.78886000        +2.45164000        +0.22176000
H        -1.73878000        -2.44393000        -0.21875000
--
0  1
C        -0.49627000        -1.29404000        +6.90628000
C        -0.50892000        +0.10844000        +7.02810000
C        +0.79786000        -2.04810000        +6.87943000
C        +0.77660000        +0.87402000        +7.03915000
O        +1.58462000        -1.70210000        +7.92130000
O        +1.09519000        -2.89439000        +6.07229000
O        +1.58601000        +0.47267000        +6.03440000
O        +1.05852000        +1.76063000        +7.80795000
C        +2.88266000        +1.09087000        +5.97959000
C        +2.87133000        -2.34242000        +7.97792000
C        -1.69503000        -2.02650000        +6.84765000
C        -2.89135000        -1.31090000        +6.92032000
C        -2.90496000        +0.07221000        +7.04251000
C        -1.72344000        +0.81370000        +7.10127000
H        +2.78652000        +2.16955000        +5.84853000
H        +2.75595000        -3.42353000        +8.06872000
H        -3.85537000        +0.59291000        +7.09027000
H        +3.43815000        +0.89059000        +6.89773000
H        +3.38001000        +0.64235000        +5.12250000
H        +3.35912000        -1.93315000        +8.85967000
H        +3.44706000        -2.11968000        +7.07776000
H        -3.83075000        -1.85245000        +6.88329000
H        -1.74069000        +1.84130000        +7.19493000
H        -1.69061000        -3.05427000        +6.75442000
$end

$rem
JOBTYPE                   SP
METHOD                    B3LYP
DFT_D                     d3_op
BASIS                     6-311++G(d,p)
SYMMETRY                  False
THRESH                    12
SCF_CONVERGENCE           8
MAX_SUB_FILE_NUM          128
MEM_STATIC                400
MEM_TOTAL                 4000
$end
--------------------------------------------------------------

             Standard Nuclear Orientation (Angstroms)
    I     Atom           X                Y                Z
 ----------------------------------------------------------------
    1      C      -3.4905868553     0.8117043305     0.7867131177
    2      C      -3.5269178557     0.8335337284    -0.6204662672
    3      C      -3.4216543198    -0.4869275984     1.5302877823
    4      C      -3.5908074155    -0.4474114841    -1.3911114488
    5      O      -2.4184731171    -1.2620231904     1.0643964942
    6      O      -4.1262335868    -0.7965610472     2.4596865430
    7      O      -4.5372633313    -1.2683661052    -0.8851434234
    8      O      -2.9238985190    -0.7171165951    -2.3601838379
    9      C      -4.6499732333    -2.5618958191    -1.5020339777
   10      C      -2.2794179731    -2.5518108005     1.6856450263
   11      C      -3.4769483552     2.0056450600     1.5291955699
   12      C      -3.4952033142     3.2066754659     0.8180425964
   13      C      -3.5290027650     3.2293569905    -0.5699242785
   14      C      -3.5436719471     2.0527082987    -1.3212779498
   15      H      -4.9019831022    -2.4607784331    -2.5585549031
   16      H      -2.0689469399    -2.4418068217     2.7505192373
   17      H      -3.5480536769     4.1831424365    -1.0862759625
   18      H      -3.7104542383    -3.1100159807    -1.4096725977
   19      H      -5.4470819091    -3.0697148645    -0.9636400170
   20      H      -1.4449895993    -3.0290708701     1.1768462502
   21      H      -3.1939271070    -3.1345484683     1.5613227813
   22      H      -3.4792945775     4.1425675646     1.3666525445
   23      H      -3.5659856141     2.0767242833    -2.3527607906
   24      H      -3.4542979426     1.9944613142     2.5608856517
   25      C       3.5071987789     0.8244907287     0.6113054819
   26      C       3.4708677785     0.8463201267    -0.7958739029
   27      C       3.5761313145    -0.4741412001     1.3548801465
   28      C       3.4069782187    -0.4346250858    -1.5665190845
   29      O       4.5793125172    -1.2492367921     0.8889888584
   30      O       2.8715520474    -0.7837746489     2.2842789072
   31      O       2.4605223029    -1.2555797069    -1.0605510592
   32      O       4.0738871152    -0.7043301968    -2.5355914737
   33      C       2.3478124009    -2.5491094208    -1.6774416135
   34      C       4.7183676612    -2.5390244022     1.5102373905
   35      C       3.5208372790     2.0184314582     1.3537879341
   36      C       3.5025823201     3.2194618642     0.6426349606
   37      C       3.4687828692     3.2421433888    -0.7453319143
   38      C       3.4541136872     2.0654946970    -1.4966855856
   39      H       2.0958025321    -2.4479920348    -2.7339625389
   40      H       4.9288386943    -2.4290204235     2.5751116015
   41      H       3.4497319574     4.1959288348    -1.2616835983
   42      H       3.2873313959    -3.0972295824    -1.5850802334
   43      H       1.5507037251    -3.0569284663    -1.1390476527
   44      H       5.5527960350    -3.0162844718     1.0014386144
   45      H       3.8038585272    -3.1217620700     1.3859151455
   46      H       3.5184910567     4.1553539628     1.1912449087
   47      H       3.4318000201     2.0895106816    -2.5281684264
   48      H       3.5434876916     2.0072477125     2.3854780159
 ----------------------------------------------------------------

   14   -1376.4216587898      8.63E-09 Convergence criterion met
 Total energy in the final basis set = -1376.42165879

                    Orbital Energies (a.u.)
 --------------------------------------------------------------

 Alpha MOs
 -- Occupied --
-19.178 -19.177 -19.175 -19.175 -19.121 -19.121 -19.119 -19.119
-10.313 -10.313 -10.311 -10.311 -10.233 -10.233 -10.231 -10.230
-10.213 -10.212 -10.212 -10.212 -10.196 -10.196 -10.196 -10.196
-10.196 -10.195 -10.195 -10.195  -1.122  -1.121  -1.115  -1.114
 -1.032  -1.032  -1.030  -1.029  -0.885  -0.885  -0.798  -0.798
 -0.785  -0.785  -0.742  -0.742  -0.731  -0.731  -0.654  -0.654
 -0.644  -0.644  -0.594  -0.594  -0.577  -0.577  -0.553  -0.553
 -0.522  -0.522  -0.514  -0.513  -0.491  -0.491  -0.490  -0.489
 -0.483  -0.483  -0.477  -0.477  -0.470  -0.470  -0.466  -0.466
 -0.439  -0.438  -0.430  -0.429  -0.414  -0.414  -0.407  -0.406
 -0.387  -0.387  -0.385  -0.385  -0.382  -0.382  -0.367  -0.367
 -0.364  -0.364  -0.322  -0.322  -0.313  -0.313  -0.300  -0.300
 -0.295  -0.295  -0.274  -0.273  -0.270  -0.270

          Ground-State Mulliken Net Atomic Charges

     Atom                 Charge (a.u.)
  ----------------------------------------
      1 C                     0.746714
      2 C                     1.048202
      3 C                    -0.815638
      4 C                    -0.889285
      5 O                     0.068825
      6 O                    -0.189995
      7 O                     0.028440
      8 O                    -0.151118
      9 C                    -0.224519
     10 C                    -0.271855
     11 C                    -0.409320
     12 C                    -0.151752
     13 C                    -0.144881
     14 C                    -0.360484
     15 H                     0.173166
     16 H                     0.185106
     17 H                     0.176328
     18 H                     0.173982
     19 H                     0.169154
     20 H                     0.135820
     21 H                     0.177570
     22 H                     0.177816
     23 H                     0.171061
     24 H                     0.176934
     25 C                     1.014576
     26 C                     0.822548
     27 C                    -0.992439
     28 C                    -0.758353
     29 O                     0.038836
     30 O                    -0.139887
     31 O                     0.056629
     32 O                    -0.195787
     33 C                    -0.270319
     34 C                    -0.228520
     35 C                    -0.352276
     36 C                    -0.141376
     37 C                    -0.150356
     38 C                    -0.419025
     39 H                     0.185689
     40 H                     0.172897
     41 H                     0.177268
     42 H                     0.179371
     43 H                     0.135081
     44 H                     0.167514
     45 H                     0.173304
     46 H                     0.177026
     47 H                     0.177708
     48 H                     0.169620
  ----------------------------------------
  Sum of atomic charges =     0.000000

                    Cartesian Multipole Moments
 -----------------------------------------------------------------
    Charge (ESU x 10^10)
                 0.0000
    Dipole Moment (Debye)
         X       0.1737      Y       0.1139      Z       0.2102
       Tot       0.2955
    Quadrupole Moments (Debye-Ang)
        XX    -170.7176     XY      -0.6886     YY    -123.3375
        XZ      19.0507     YZ       0.4779     ZZ    -172.9797

 Total job time:  1001.25s(wall), 1986.19s(cpu)
        *  Thank you very much for using Q-Chem.  Have a nice day.  *
