 Q-Chem 5.0, Q-Chem, Inc., Pleasanton, CA (2017)
 Q-Chem 5.0.1 for Intel X86 EM64T Linux

User input:
--------------------------------------------------------------
$molecule
0  1
C        -0.49627000        -1.29404000        +6.90628000
C        -0.50892000        +0.10844000        +7.02810000
C        +0.79786000        -2.04810000        +6.87943000
C        +0.77660000        +0.87402000        +7.03915000
O        +1.58462000        -1.70210000        +7.92130000
O        +1.09519000        -2.89439000        +6.07229000
O        +1.58601000        +0.47267000        +6.03440000
O        +1.05852000        +1.76063000        +7.80795000
C        +2.88266000        +1.09087000        +5.97959000
C        +2.87133000        -2.34242000        +7.97792000
C        -1.69503000        -2.02650000        +6.84765000
C        -2.89135000        -1.31090000        +6.92032000
C        -2.90496000        +0.07221000        +7.04251000
C        -1.72344000        +0.81370000        +7.10127000
H        +2.78652000        +2.16955000        +5.84853000
H        +2.75595000        -3.42353000        +8.06872000
H        -3.85537000        +0.59291000        +7.09027000
H        +3.43815000        +0.89059000        +6.89773000
H        +3.38001000        +0.64235000        +5.12250000
H        +3.35912000        -1.93315000        +8.85967000
H        +3.44706000        -2.11968000        +7.07776000
H        -3.83075000        -1.85245000        +6.88329000
H        -1.74069000        +1.84130000        +7.19493000
H        -1.69061000        -3.05427000        +6.75442000
@C        -0.54444000        -0.68370000        -0.06689000
@C        -0.55709000        +0.71878000        +0.05493000
@C        +0.74969000        -1.43776000        -0.09374000
@C        +0.72843000        +1.48436000        +0.06598000
@O        +1.53645000        -1.09176000        +0.94813000
@O        +1.04702000        -2.28405000        -0.90088000
@O        +1.53784000        +1.08301000        -0.93877000
@O        +1.01035000        +2.37097000        +0.83478000
@C        +2.83449000        +1.70121000        -0.99358000
@C        +2.82316000        -1.73208000        +1.00475000
@C        -1.74320000        -1.41616000        -0.12552000
@C        -2.93952000        -0.70056000        -0.05285000
@C        -2.95313000        +0.68255000        +0.06934000
@C        -1.77161000        +1.42404000        +0.12810000
@H        +2.73835000        +2.77989000        -1.12464000
@H        +2.70778000        -2.81319000        +1.09555000
@H        -3.90354000        +1.20325000        +0.11710000
@H        +3.38998000        +1.50093000        -0.07544000
@H        +3.33184000        +1.25269000        -1.85067000
@H        +3.31095000        -1.32281000        +1.88650000
@H        +3.39889000        -1.50934000        +0.10459000
@H        -3.87892000        -1.24211000        -0.08988000
@H        -1.78886000        +2.45164000        +0.22176000
@H        -1.73878000        -2.44393000        -0.21875000
$end

$rem
JOBTYPE                   SP
METHOD                    B3LYP
DFT_D                     d3_op
BASIS                     6-311++G(d,p)
SYMMETRY                  False
THRESH                    12
SCF_CONVERGENCE           8
MAX_SUB_FILE_NUM          128
MEM_STATIC                400
MEM_TOTAL                 4000
$end
--------------------------------------------------------------

             Standard Nuclear Orientation (Angstroms)
    I     Atom           X                Y                Z
 ----------------------------------------------------------------
    1      C      -0.4962700000    -1.2940400000     6.9062800000
    2      C      -0.5089200000     0.1084400000     7.0281000000
    3      C       0.7978600000    -2.0481000000     6.8794300000
    4      C       0.7766000000     0.8740200000     7.0391500000
    5      O       1.5846200000    -1.7021000000     7.9213000000
    6      O       1.0951900000    -2.8943900000     6.0722900000
    7      O       1.5860100000     0.4726700000     6.0344000000
    8      O       1.0585200000     1.7606300000     7.8079500000
    9      C       2.8826600000     1.0908700000     5.9795900000
   10      C       2.8713300000    -2.3424200000     7.9779200000
   11      C      -1.6950300000    -2.0265000000     6.8476500000
   12      C      -2.8913500000    -1.3109000000     6.9203200000
   13      C      -2.9049600000     0.0722100000     7.0425100000
   14      C      -1.7234400000     0.8137000000     7.1012700000
   15      H       2.7865200000     2.1695500000     5.8485300000
   16      H       2.7559500000    -3.4235300000     8.0687200000
   17      H      -3.8553700000     0.5929100000     7.0902700000
   18      H       3.4381500000     0.8905900000     6.8977300000
   19      H       3.3800100000     0.6423500000     5.1225000000
   20      H       3.3591200000    -1.9331500000     8.8596700000
   21      H       3.4470600000    -2.1196800000     7.0777600000
   22      H      -3.8307500000    -1.8524500000     6.8832900000
   23      H      -1.7406900000     1.8413000000     7.1949300000
   24      H      -1.6906100000    -3.0542700000     6.7544200000
   25      GH     -0.5444400000    -0.6837000000    -0.0668900000
   26      GH     -0.5570900000     0.7187800000     0.0549300000
   27      GH      0.7496900000    -1.4377600000    -0.0937400000
   28      GH      0.7284300000     1.4843600000     0.0659800000
   29      GH      1.5364500000    -1.0917600000     0.9481300000
   30      GH      1.0470200000    -2.2840500000    -0.9008800000
   31      GH      1.5378400000     1.0830100000    -0.9387700000
   32      GH      1.0103500000     2.3709700000     0.8347800000
   33      GH      2.8344900000     1.7012100000    -0.9935800000
   34      GH      2.8231600000    -1.7320800000     1.0047500000
   35      GH     -1.7432000000    -1.4161600000    -0.1255200000
   36      GH     -2.9395200000    -0.7005600000    -0.0528500000
   37      GH     -2.9531300000     0.6825500000     0.0693400000
   38      GH     -1.7716100000     1.4240400000     0.1281000000
   39      GH      2.7383500000     2.7798900000    -1.1246400000
   40      GH      2.7077800000    -2.8131900000     1.0955500000
   41      GH     -3.9035400000     1.2032500000     0.1171000000
   42      GH      3.3899800000     1.5009300000    -0.0754400000
   43      GH      3.3318400000     1.2526900000    -1.8506700000
   44      GH      3.3109500000    -1.3228100000     1.8865000000
   45      GH      3.3988900000    -1.5093400000     0.1045900000
   46      GH     -3.8789200000    -1.2421100000    -0.0898800000
   47      GH     -1.7888600000     2.4516400000     0.2217600000
   48      GH     -1.7387800000    -2.4439300000    -0.2187500000
 ----------------------------------------------------------------

   14    -688.2105611461      5.67E-09 Convergence criterion met
 Total energy in the final basis set = -688.21056115

                    Orbital Energies (a.u.)
 --------------------------------------------------------------

 Alpha MOs
 -- Occupied --
-19.178 -19.178 -19.122 -19.122 -10.314 -10.314 -10.233 -10.233
-10.215 -10.214 -10.198 -10.198 -10.197 -10.197  -1.123  -1.117
 -1.033  -1.032  -0.887  -0.800  -0.787  -0.744  -0.733  -0.656
 -0.646  -0.596  -0.579  -0.555  -0.524  -0.516  -0.493  -0.492
 -0.485  -0.479  -0.472  -0.468  -0.440  -0.431  -0.416  -0.408
 -0.389  -0.387  -0.384  -0.369  -0.366  -0.324  -0.316  -0.302
 -0.297  -0.275  -0.272

          Ground-State Mulliken Net Atomic Charges

     Atom                 Charge (a.u.)
  ----------------------------------------
      1 C                     1.010533
      2 C                     0.817284
      3 C                    -0.990090
      4 C                    -0.761453
      5 O                     0.038544
      6 O                    -0.135949
      7 O                     0.054259
      8 O                    -0.193769
      9 C                    -0.276295
     10 C                    -0.229136
     11 C                    -0.347485
     12 C                    -0.141667
     13 C                    -0.152377
     14 C                    -0.420350
     15 H                     0.183440
     16 H                     0.173150
     17 H                     0.178473
     18 H                     0.180781
     19 H                     0.139099
     20 H                     0.167342
     21 H                     0.175248
     22 H                     0.178694
     23 H                     0.177369
     24 H                     0.170722
     25 GH                    0.002400
     26 GH                   -0.001189
     27 GH                    0.000674
     28 GH                    0.000214
     29 GH                    0.000209
     30 GH                   -0.000006
     31 GH                    0.000008
     32 GH                    0.000078
     33 GH                   -0.000028
     34 GH                   -0.001639
     35 GH                   -0.001501
     36 GH                    0.000563
     37 GH                   -0.000945
     38 GH                    0.000416
     39 GH                    0.000003
     40 GH                   -0.000661
     41 GH                   -0.000091
     42 GH                    0.000134
     43 GH                   -0.000006
     44 GH                    0.005140
     45 GH                    0.000007
     46 GH                   -0.000081
     47 GH                   -0.000033
     48 GH                   -0.000031
  ----------------------------------------
  Sum of atomic charges =     0.000000

                    Cartesian Multipole Moments
 -----------------------------------------------------------------
    Charge (ESU x 10^10)
                 0.0000
    Dipole Moment (Debye)
         X      -0.0446      Y      -0.1152      Z       0.0648
       Tot       0.1395
    Quadrupole Moments (Debye-Ang)
        XX     -61.2958     XY      -0.0334     YY     -84.1750
        XZ      -0.1959     YZ     -10.5660     ZZ     -86.1581

 Total job time:  926.37s(wall), 1832.28s(cpu)
        *  Thank you very much for using Q-Chem.  Have a nice day.  *
