 Q-Chem 5.0, Q-Chem, Inc., Pleasanton, CA (2017)
 Q-Chem 5.0.1 for Intel X86 EM64T Linux

User input:
--------------------------------------------------------------
$molecule
0  1
--
0  1
C        +0.22270000        +1.04488000        +0.58595000
C        +0.62626000        -0.41353000        +0.99871000
C        -1.18200000        +1.23223000        +0.04377000
C        -0.37457000        -1.51643000        +0.72333000
O        -2.09172000        +0.78832000        +0.93966000
O        -1.47336000        +1.75939000        -0.99882000
O        -0.91364000        -1.42792000        -0.50620000
O        -0.62208000        -2.40877000        +1.49911000
C        -1.86134000        -2.44741000        -0.86560000
C        -3.47068000        +0.87492000        +0.53920000
C        +1.33008000        +1.39974000        -0.43491000
C        +2.63070000        +1.71700000        +0.32855000
C        +3.04336000        +0.29351000        +0.80300000
C        +1.94423000        -0.59299000        +0.15262000
O        +1.62840000        +0.13663000        -1.04376000
H        +0.27811000        +1.68786000        +1.46900000
H        +0.83923000        -0.48042000        +2.06408000
H        -2.68749000        -2.46677000        -0.15296000
H        -3.76076000        +1.91522000        +0.38406000
H        +3.37234000        +2.13782000        -0.35195000
H        +2.48236000        +2.42488000        +1.14651000
H        +4.02182000        +0.00994000        +0.41161000
H        +3.07359000        +0.18738000        +1.88928000
H        -2.21148000        -2.17765000        -1.85937000
H        -1.38062000        -3.42697000        -0.88096000
H        -4.03855000        +0.43623000        +1.35671000
H        -3.63120000        +0.31700000        -0.38495000
C        +2.35450000        -2.01267000        -0.16812000
H        +3.26311000        -2.00678000        -0.77366000
H        +2.54990000        -2.57059000        +0.75079000
H        +1.57335000        -2.52896000        -0.72872000
H        +1.03270000        +2.19943000        -1.08064000
--
0  1
C        +0.25922000        +3.11331000        +7.27327000
C        +0.66278000        +1.65490000        +7.68603000
C        -1.14548000        +3.30066000        +6.73109000
C        -0.33805000        +0.55200000        +7.41065000
O        -2.05520000        +2.85675000        +7.62698000
O        -1.43684000        +3.82782000        +5.68850000
O        -0.87712000        +0.64051000        +6.18112000
O        -0.58556000        -0.34034000        +8.18643000
C        -1.82482000        -0.37898000        +5.82172000
C        -3.43416000        +2.94335000        +7.22652000
C        +1.36660000        +3.46817000        +6.25241000
C        +2.66722000        +3.78543000        +7.01587000
C        +3.07988000        +2.36194000        +7.49032000
C        +1.98075000        +1.47544000        +6.83994000
O        +1.66492000        +2.20506000        +5.64356000
H        +0.31463000        +3.75629000        +8.15632000
H        +0.87575000        +1.58801000        +8.75140000
H        -2.65097000        -0.39834000        +6.53436000
H        -3.72424000        +3.98365000        +7.07138000
H        +3.40886000        +4.20625000        +6.33537000
H        +2.51888000        +4.49331000        +7.83383000
H        +4.05834000        +2.07837000        +7.09893000
H        +3.11011000        +2.25581000        +8.57660000
H        -2.17496000        -0.10922000        +4.82795000
H        -1.34410000        -1.35854000        +5.80636000
H        -4.00203000        +2.50466000        +8.04403000
H        -3.59468000        +2.38543000        +6.30237000
C        +2.39102000        +0.05576000        +6.51920000
H        +3.29963000        +0.06165000        +5.91366000
H        +2.58642000        -0.50216000        +7.43811000
H        +1.60987000        -0.46053000        +5.95860000
H        +1.06922000        +4.26786000        +5.60668000
$end

$rem
JOBTYPE                   SP
METHOD                    B3LYP
DFT_D                     d3_op
BASIS                     6-311++G(d,p)
SYMMETRY                  False
THRESH                    12
SCF_CONVERGENCE           8
MAX_SUB_FILE_NUM          128
MEM_STATIC                400
MEM_TOTAL                 4000
$end
--------------------------------------------------------------

             Standard Nuclear Orientation (Angstroms)
    I     Atom           X                Y                Z
 ----------------------------------------------------------------
    1      C      -2.6964986588     0.2013378260     1.0938887089
    2      C      -2.7860958881     0.5570340238    -0.4311174454
    3      C      -3.1623918952    -1.1857434478     1.4953738233
    4      C      -3.4234940015    -0.4664033808    -1.3477322866
    5      O      -2.4752602119    -2.1262312104     0.8093721638
    6      O      -3.9744772085    -1.4402229099     2.3471601055
    7      O      -4.5603395143    -0.9759836877    -0.8397119161
    8      O      -2.9905808894    -0.7543250081    -2.4381697484
    9      C      -5.2487024256    -1.9422802989    -1.6515560339
   10      C      -2.8405793175    -3.4933479144     1.0680849816
   11      C      -3.5287191292     1.3397379488     1.7309330344
   12      C      -2.6879481401     2.6313345817     1.7353765969
   13      C      -2.7076623624     2.9957040453     0.2225775020
   14      C      -3.6281896973     1.8879374806    -0.3626111986
   15      O      -4.5184847801     1.6177194205     0.7318182889
   16      H      -1.6495836710     0.2544735209     1.4060048045
   17      H      -1.8007848140     0.7448608520    -0.8538784887
   18      H      -4.5926321175    -2.7840063614    -1.8792035426
   19      H      -2.6453035462    -3.7523240688     2.1098323793
   20      H      -3.1815416155     3.3985300484     2.3336877274
   21      H      -1.6833133566     2.4839791206     2.1368149253
   22      H      -3.1593693903     3.9746189199     0.0532598195
   23      H      -1.7177992807     2.9994031185    -0.2382251289
   24      H      -6.1008035149    -2.2633865358    -1.0567772444
   25      H      -5.5824167278    -1.4874476389    -2.5857013424
   26      H      -2.2216172606    -4.0903384856     0.4019497978
   27      H      -3.8992929825    -3.6483824623     0.8531796913
   28      C      -4.3967854156     2.2673703623    -1.6083953825
   29      H      -4.9553204948     3.1888142419    -1.4315755363
   30      H      -3.7127051624     2.4278304930    -2.4451380122
   31      H      -5.1060758414     1.4852409659    -1.8844456420
   32      H      -3.8761175109     1.0777992927     2.7084854363
   33      C       4.2982590413     0.1466918389     0.8286271582
   34      C       4.2086618120     0.5023880367    -0.6963789961
   35      C       3.8323658049    -1.2403894350     1.2301122725
   36      C       3.5712636986    -0.5210493679    -1.6129938374
   37      O       4.5194974883    -2.1808771976     0.5441106131
   38      O       3.0202804916    -1.4948688971     2.0818985548
   39      O       2.4344181859    -1.0306296748    -1.1049734669
   40      O       4.0041768108    -0.8089709952    -2.7034312991
   41      C       1.7460552745    -1.9969262861    -1.9168175846
   42      C       4.1541783826    -3.5479939015     0.8028234309
   43      C       3.4660385709     1.2850919616     1.4656714837
   44      C       4.3068095601     2.5766885945     1.4701150462
   45      C       4.2870953377     2.9410580581    -0.0426840487
   46      C       3.3665680029     1.8332914935    -0.6278727493
   47      O       2.4762729200     1.5630734334     0.4665567382
   48      H       5.3451740291     0.1998275338     1.1407432538
   49      H       5.1939728861     0.6902148649    -1.1191400394
   50      H       2.4021255826    -2.8386523486    -2.1444650933
   51      H       4.3494541540    -3.8069700560     1.8445708285
   52      H       3.8132160847     3.3438840613     2.0684261766
   53      H       5.3114443436     2.4293331334     1.8715533745
   54      H       3.8353883098     3.9199729328    -0.2120017312
   55      H       5.2769584194     2.9447571314    -0.5034866797
   56      H       0.8939541852    -2.3180325230    -1.3220387952
   57      H       1.4123409723    -1.5420936260    -2.8509628931
   58      H       4.7731404395    -4.1449844727     0.1366882470
   59      H       3.0954647176    -3.7030284495     0.5879181406
   60      C       2.5979722846     2.2127243752    -1.8736569333
   61      H       2.0394372054     3.1341682547    -1.6968370871
   62      H       3.2820525377     2.3731845058    -2.7103995629
   63      H       1.8886818587     1.4305949788    -2.1497071927
   64      H       3.1186401893     1.0231533055     2.4432238855
 ----------------------------------------------------------------

   15   -1610.3962320972      5.05E-09 Convergence criterion met
 Total energy in the final basis set = -1610.39623210

                    Orbital Energies (a.u.)
 --------------------------------------------------------------

 Alpha MOs
 -- Occupied --
-19.177 -19.173 -19.171 -19.171 -19.135 -19.126 -19.121 -19.116
-19.115 -19.114 -10.311 -10.306 -10.304 -10.304 -10.248 -10.241
-10.233 -10.232 -10.229 -10.229 -10.228 -10.223 -10.207 -10.206
-10.200 -10.199 -10.182 -10.181 -10.175 -10.173 -10.172 -10.168
 -1.121  -1.117  -1.114  -1.110  -1.067  -1.059  -1.032  -1.028
 -1.026  -1.026  -0.835  -0.828  -0.798  -0.792  -0.787  -0.779
 -0.747  -0.743  -0.730  -0.726  -0.699  -0.693  -0.657  -0.651
 -0.608  -0.602  -0.593  -0.586  -0.569  -0.566  -0.564  -0.558
 -0.536  -0.530  -0.520  -0.514  -0.512  -0.507  -0.494  -0.492
 -0.488  -0.487  -0.485  -0.480  -0.476  -0.473  -0.473  -0.469
 -0.463  -0.457  -0.445  -0.440  -0.435  -0.431  -0.426  -0.422
 -0.418  -0.413  -0.407  -0.401  -0.398  -0.395  -0.392  -0.386
 -0.384  -0.377  -0.374  -0.371  -0.371  -0.366  -0.363  -0.357
 -0.356  -0.354  -0.351  -0.346  -0.336  -0.335  -0.329  -0.327
 -0.321  -0.317  -0.313  -0.310  -0.291  -0.286  -0.283  -0.278
 -0.277  -0.270

          Ground-State Mulliken Net Atomic Charges

     Atom                 Charge (a.u.)
  ----------------------------------------
      1 C                    -0.003156
      2 C                     0.501158
      3 C                    -0.725669
      4 C                    -0.818058
      5 O                     0.022973
      6 O                    -0.194801
      7 O                     0.016240
      8 O                    -0.114763
      9 C                    -0.187537
     10 C                    -0.220753
     11 C                    -0.152399
     12 C                    -0.373805
     13 C                    -0.498374
     14 C                    -0.032164
     15 O                    -0.052143
     16 H                     0.235179
     17 H                     0.317062
     18 H                     0.193901
     19 H                     0.179991
     20 H                     0.193244
     21 H                     0.125775
     22 H                     0.174561
     23 H                     0.090518
     24 H                     0.176486
     25 H                     0.175599
     26 H                     0.145039
     27 H                     0.179820
     28 C                    -0.165742
     29 H                     0.181370
     30 H                     0.161060
     31 H                     0.180090
     32 H                     0.291433
     33 C                    -0.001343
     34 C                     0.508901
     35 C                    -0.523928
     36 C                    -0.806946
     37 O                    -0.009298
     38 O                    -0.150758
     39 O                     0.021096
     40 O                    -0.116756
     41 C                    -0.225324
     42 C                    -0.184031
     43 C                    -0.221991
     44 C                    -0.561949
     45 C                    -0.345519
     46 C                    -0.263031
     47 O                     0.073546
     48 H                     0.246617
     49 H                     0.284956
     50 H                     0.198080
     51 H                     0.172000
     52 H                     0.181153
     53 H                     0.128740
     54 H                     0.167423
     55 H                     0.144972
     56 H                     0.157013
     57 H                     0.186040
     58 H                     0.165058
     59 H                     0.180509
     60 C                    -0.218968
     61 H                     0.180918
     62 H                     0.176492
     63 H                     0.183234
     64 H                     0.270957
  ----------------------------------------
  Sum of atomic charges =     0.000000

                    Cartesian Multipole Moments
 -----------------------------------------------------------------
    Charge (ESU x 10^10)
                 0.0000
    Dipole Moment (Debye)
         X       2.6573      Y       0.0641      Z       0.2046
       Tot       2.6660
    Quadrupole Moments (Debye-Ang)
        XX    -190.6082     XY       8.2999     YY    -164.0606
        XZ      20.3096     YZ       1.1481     ZZ    -207.2538

 Total job time:  6362.81s(wall), 6348.12s(cpu)
        *  Thank you very much for using Q-Chem.  Have a nice day.  *
