 Q-Chem 5.0, Q-Chem, Inc., Pleasanton, CA (2017)
 Q-Chem 5.0.1 for Intel X86 EM64T Linux

User input:
--------------------------------------------------------------
$molecule
0  1
C        +0.25922000        +3.11331000        +7.27327000
C        +0.66278000        +1.65490000        +7.68603000
C        -1.14548000        +3.30066000        +6.73109000
C        -0.33805000        +0.55200000        +7.41065000
O        -2.05520000        +2.85675000        +7.62698000
O        -1.43684000        +3.82782000        +5.68850000
O        -0.87712000        +0.64051000        +6.18112000
O        -0.58556000        -0.34034000        +8.18643000
C        -1.82482000        -0.37898000        +5.82172000
C        -3.43416000        +2.94335000        +7.22652000
C        +1.36660000        +3.46817000        +6.25241000
C        +2.66722000        +3.78543000        +7.01587000
C        +3.07988000        +2.36194000        +7.49032000
C        +1.98075000        +1.47544000        +6.83994000
O        +1.66492000        +2.20506000        +5.64356000
H        +0.31463000        +3.75629000        +8.15632000
H        +0.87575000        +1.58801000        +8.75140000
H        -2.65097000        -0.39834000        +6.53436000
H        -3.72424000        +3.98365000        +7.07138000
H        +3.40886000        +4.20625000        +6.33537000
H        +2.51888000        +4.49331000        +7.83383000
H        +4.05834000        +2.07837000        +7.09893000
H        +3.11011000        +2.25581000        +8.57660000
H        -2.17496000        -0.10922000        +4.82795000
H        -1.34410000        -1.35854000        +5.80636000
H        -4.00203000        +2.50466000        +8.04403000
H        -3.59468000        +2.38543000        +6.30237000
C        +0.93680000        +4.45920000        +5.19302000
C        +2.39102000        +0.05576000        +6.51920000
H        +3.29963000        +0.06165000        +5.91366000
H        +2.58642000        -0.50216000        +7.43811000
H        +1.60987000        -0.46053000        +5.95860000
H        +1.75497000        +4.65029000        +4.53046000
H        +0.63571000        +5.37321000        +5.66082000
H        +0.11577000        +4.05496000        +4.63858000
@C        +0.22270000        +1.04488000        +0.58595000
@C        +0.62626000        -0.41353000        +0.99871000
@C        -1.18200000        +1.23223000        +0.04377000
@C        -0.37457000        -1.51643000        +0.72333000
@O        -2.09172000        +0.78832000        +0.93966000
@O        -1.47336000        +1.75939000        -0.99882000
@O        -0.91364000        -1.42792000        -0.50620000
@O        -0.62208000        -2.40877000        +1.49911000
@C        -1.86134000        -2.44741000        -0.86560000
@C        -3.47068000        +0.87492000        +0.53920000
@C        +1.33008000        +1.39974000        -0.43491000
@C        +2.63070000        +1.71700000        +0.32855000
@C        +3.04336000        +0.29351000        +0.80300000
@C        +1.94423000        -0.59299000        +0.15262000
@O        +1.62840000        +0.13663000        -1.04376000
@H        +0.27811000        +1.68786000        +1.46900000
@H        +0.83923000        -0.48042000        +2.06408000
@H        -2.68749000        -2.46677000        -0.15296000
@H        -3.76076000        +1.91522000        +0.38406000
@H        +3.37234000        +2.13782000        -0.35195000
@H        +2.48236000        +2.42488000        +1.14651000
@H        +4.02182000        +0.00994000        +0.41161000
@H        +3.07359000        +0.18738000        +1.88928000
@H        -2.21148000        -2.17765000        -1.85937000
@H        -1.38062000        -3.42697000        -0.88096000
@H        -4.03855000        +0.43623000        +1.35671000
@H        -3.63120000        +0.31700000        -0.38495000
@C        +0.90028000        +2.39077000        -1.49430000
@C        +2.35450000        -2.01267000        -0.16812000
@H        +3.26311000        -2.00678000        -0.77366000
@H        +2.54990000        -2.57059000        +0.75079000
@H        +1.57335000        -2.52896000        -0.72872000
@H        +1.71845000        +2.58186000        -2.15686000
@H        +0.59919000        +3.30478000        -1.02650000
@H        +0.07925000        +1.98653000        -2.04874000
$end

$rem
JOBTYPE                   SP
METHOD                    B3LYP
DFT_D                     d3_op
BASIS                     6-311++G(d,p)
SYMMETRY                  False
THRESH                    12
SCF_CONVERGENCE           8
MAX_SUB_FILE_NUM          128
MEM_STATIC                400
MEM_TOTAL                 4000
$end
--------------------------------------------------------------

             Standard Nuclear Orientation (Angstroms)
    I     Atom           X                Y                Z
 ----------------------------------------------------------------
    1      C       0.2592200000     3.1133100000     7.2732700000
    2      C       0.6627800000     1.6549000000     7.6860300000
    3      C      -1.1454800000     3.3006600000     6.7310900000
    4      C      -0.3380500000     0.5520000000     7.4106500000
    5      O      -2.0552000000     2.8567500000     7.6269800000
    6      O      -1.4368400000     3.8278200000     5.6885000000
    7      O      -0.8771200000     0.6405100000     6.1811200000
    8      O      -0.5855600000    -0.3403400000     8.1864300000
    9      C      -1.8248200000    -0.3789800000     5.8217200000
   10      C      -3.4341600000     2.9433500000     7.2265200000
   11      C       1.3666000000     3.4681700000     6.2524100000
   12      C       2.6672200000     3.7854300000     7.0158700000
   13      C       3.0798800000     2.3619400000     7.4903200000
   14      C       1.9807500000     1.4754400000     6.8399400000
   15      O       1.6649200000     2.2050600000     5.6435600000
   16      H       0.3146300000     3.7562900000     8.1563200000
   17      H       0.8757500000     1.5880100000     8.7514000000
   18      H      -2.6509700000    -0.3983400000     6.5343600000
   19      H      -3.7242400000     3.9836500000     7.0713800000
   20      H       3.4088600000     4.2062500000     6.3353700000
   21      H       2.5188800000     4.4933100000     7.8338300000
   22      H       4.0583400000     2.0783700000     7.0989300000
   23      H       3.1101100000     2.2558100000     8.5766000000
   24      H      -2.1749600000    -0.1092200000     4.8279500000
   25      H      -1.3441000000    -1.3585400000     5.8063600000
   26      H      -4.0020300000     2.5046600000     8.0440300000
   27      H      -3.5946800000     2.3854300000     6.3023700000
   28      C       0.9368000000     4.4592000000     5.1930200000
   29      C       2.3910200000     0.0557600000     6.5192000000
   30      H       3.2996300000     0.0616500000     5.9136600000
   31      H       2.5864200000    -0.5021600000     7.4381100000
   32      H       1.6098700000    -0.4605300000     5.9586000000
   33      H       1.7549700000     4.6502900000     4.5304600000
   34      H       0.6357100000     5.3732100000     5.6608200000
   35      H       0.1157700000     4.0549600000     4.6385800000
   36      GH      0.2227000000     1.0448800000     0.5859500000
   37      GH      0.6262600000    -0.4135300000     0.9987100000
   38      GH     -1.1820000000     1.2322300000     0.0437700000
   39      GH     -0.3745700000    -1.5164300000     0.7233300000
   40      GH     -2.0917200000     0.7883200000     0.9396600000
   41      GH     -1.4733600000     1.7593900000    -0.9988200000
   42      GH     -0.9136400000    -1.4279200000    -0.5062000000
   43      GH     -0.6220800000    -2.4087700000     1.4991100000
   44      GH     -1.8613400000    -2.4474100000    -0.8656000000
   45      GH     -3.4706800000     0.8749200000     0.5392000000
   46      GH      1.3300800000     1.3997400000    -0.4349100000
   47      GH      2.6307000000     1.7170000000     0.3285500000
   48      GH      3.0433600000     0.2935100000     0.8030000000
   49      GH      1.9442300000    -0.5929900000     0.1526200000
   50      GH      1.6284000000     0.1366300000    -1.0437600000
   51      GH      0.2781100000     1.6878600000     1.4690000000
   52      GH      0.8392300000    -0.4804200000     2.0640800000
   53      GH     -2.6874900000    -2.4667700000    -0.1529600000
   54      GH     -3.7607600000     1.9152200000     0.3840600000
   55      GH      3.3723400000     2.1378200000    -0.3519500000
   56      GH      2.4823600000     2.4248800000     1.1465100000
   57      GH      4.0218200000     0.0099400000     0.4116100000
   58      GH      3.0735900000     0.1873800000     1.8892800000
   59      GH     -2.2114800000    -2.1776500000    -1.8593700000
   60      GH     -1.3806200000    -3.4269700000    -0.8809600000
   61      GH     -4.0385500000     0.4362300000     1.3567100000
   62      GH     -3.6312000000     0.3170000000    -0.3849500000
   63      GH      0.9002800000     2.3907700000    -1.4943000000
   64      GH      2.3545000000    -2.0126700000    -0.1681200000
   65      GH      3.2631100000    -2.0067800000    -0.7736600000
   66      GH      2.5499000000    -2.5705900000     0.7507900000
   67      GH      1.5733500000    -2.5289600000    -0.7287200000
   68      GH      1.7184500000     2.5818600000    -2.1568600000
   69      GH      0.5991900000     3.3047800000    -1.0265000000
   70      GH      0.0792500000     1.9865300000    -2.0487400000
 ----------------------------------------------------------------

   14    -844.5169862629      5.79E-09 Convergence criterion met
 Total energy in the final basis set = -844.51698626

                    Orbital Energies (a.u.)
 --------------------------------------------------------------

 Alpha MOs
 -- Occupied --
-19.176 -19.174 -19.125 -19.117 -19.116 -10.311 -10.306 -10.242
-10.232 -10.231 -10.231 -10.204 -10.203 -10.178 -10.175 -10.169
-10.136  -1.121  -1.114  -1.061  -1.034  -1.027  -0.832  -0.804
 -0.784  -0.748  -0.730  -0.720  -0.674  -0.644  -0.603  -0.579
 -0.570  -0.561  -0.525  -0.514  -0.508  -0.493  -0.489  -0.480
 -0.476  -0.471  -0.459  -0.443  -0.435  -0.433  -0.414  -0.411
 -0.403  -0.399  -0.395  -0.374  -0.372  -0.364  -0.358  -0.355
 -0.349  -0.346  -0.333  -0.328  -0.321  -0.313  -0.284  -0.272
 -0.270

          Ground-State Mulliken Net Atomic Charges

     Atom                 Charge (a.u.)
  ----------------------------------------
      1 C                     0.361548
      2 C                     0.827287
      3 C                    -0.808076
      4 C                    -1.133800
      5 O                     0.009778
      6 O                    -0.089674
      7 O                     0.027668
      8 O                    -0.110899
      9 C                    -0.240812
     10 C                    -0.184261
     11 C                    -0.514821
     12 C                    -0.480651
     13 C                    -0.391179
     14 C                    -0.666809
     15 O                     0.199919
     16 H                     0.272277
     17 H                     0.283849
     18 H                     0.199929
     19 H                     0.170251
     20 H                     0.176003
     21 H                     0.141543
     22 H                     0.168318
     23 H                     0.142792
     24 H                     0.151500
     25 H                     0.183042
     26 H                     0.165113
     27 H                     0.179783
     28 C                    -0.100013
     29 C                     0.038088
     30 H                     0.181667
     31 H                     0.177368
     32 H                     0.201088
     33 H                     0.127061
     34 H                     0.165752
     35 H                     0.164904
     36 GH                   -0.000992
     37 GH                   -0.014135
     38 GH                   -0.000019
     39 GH                   -0.001646
     40 GH                   -0.000247
     41 GH                   -0.000008
     42 GH                    0.000005
     43 GH                   -0.000163
     44 GH                   -0.000065
     45 GH                    0.001133
     46 GH                    0.006662
     47 GH                    0.003501
     48 GH                   -0.009722
     49 GH                    0.004363
     50 GH                   -0.000043
     51 GH                    0.008883
     52 GH                    0.000170
     53 GH                    0.000019
     54 GH                   -0.000275
     55 GH                    0.000215
     56 GH                    0.004240
     57 GH                   -0.000302
     58 GH                   -0.000765
     59 GH                   -0.000001
     60 GH                   -0.000002
     61 GH                    0.001843
     62 GH                   -0.000034
     63 GH                    0.000512
     64 GH                    0.000927
     65 GH                    0.000009
     66 GH                    0.000198
     67 GH                    0.000014
     68 GH                    0.000012
     69 GH                    0.000181
     70 GH                   -0.000000
  ----------------------------------------
  Sum of atomic charges =     0.000000

                    Cartesian Multipole Moments
 -----------------------------------------------------------------
    Charge (ESU x 10^10)
                 0.0000
    Dipole Moment (Debye)
         X      -0.3347      Y       0.5037      Z       0.9091
       Tot       1.0918
    Quadrupole Moments (Debye-Ang)
        XX     -89.0179     XY       1.1387     YY    -101.4501
        XZ       1.3011     YZ      16.0723     ZZ     -96.2404

 Total job time:  2917.45s(wall), 5803.51s(cpu)
        *  Thank you very much for using Q-Chem.  Have a nice day.  *
