 Q-Chem 5.0, Q-Chem, Inc., Pleasanton, CA (2017)
 Q-Chem 5.0.1 for Intel X86 EM64T Linux

User input:
--------------------------------------------------------------
$molecule
0  1
--
0  1
C        +0.22270000        +1.04488000        +0.58595000
C        +0.62626000        -0.41353000        +0.99871000
C        -1.18200000        +1.23223000        +0.04377000
C        -0.37457000        -1.51643000        +0.72333000
O        -2.09172000        +0.78832000        +0.93966000
O        -1.47336000        +1.75939000        -0.99882000
O        -0.91364000        -1.42792000        -0.50620000
O        -0.62208000        -2.40877000        +1.49911000
C        -1.86134000        -2.44741000        -0.86560000
C        -3.47068000        +0.87492000        +0.53920000
C        +1.33008000        +1.39974000        -0.43491000
C        +2.63070000        +1.71700000        +0.32855000
C        +3.04336000        +0.29351000        +0.80300000
C        +1.94423000        -0.59299000        +0.15262000
O        +1.62840000        +0.13663000        -1.04376000
H        +0.27811000        +1.68786000        +1.46900000
H        +0.83923000        -0.48042000        +2.06408000
H        -2.68749000        -2.46677000        -0.15296000
H        -3.76076000        +1.91522000        +0.38406000
H        +3.37234000        +2.13782000        -0.35195000
H        +2.48236000        +2.42488000        +1.14651000
H        +4.02182000        +0.00994000        +0.41161000
H        +3.07359000        +0.18738000        +1.88928000
H        -2.21148000        -2.17765000        -1.85937000
H        -1.38062000        -3.42697000        -0.88096000
H        -4.03855000        +0.43623000        +1.35671000
H        -3.63120000        +0.31700000        -0.38495000
C        +0.90028000        +2.39077000        -1.49430000
C        +2.35450000        -2.01267000        -0.16812000
H        +3.26311000        -2.00678000        -0.77366000
H        +2.54990000        -2.57059000        +0.75079000
H        +1.57335000        -2.52896000        -0.72872000
H        +1.71845000        +2.58186000        -2.15686000
H        +0.59919000        +3.30478000        -1.02650000
H        +0.07925000        +1.98653000        -2.04874000
--
0  1
C        +0.25922000        +3.11331000        +7.27327000
C        +0.66278000        +1.65490000        +7.68603000
C        -1.14548000        +3.30066000        +6.73109000
C        -0.33805000        +0.55200000        +7.41065000
O        -2.05520000        +2.85675000        +7.62698000
O        -1.43684000        +3.82782000        +5.68850000
O        -0.87712000        +0.64051000        +6.18112000
O        -0.58556000        -0.34034000        +8.18643000
C        -1.82482000        -0.37898000        +5.82172000
C        -3.43416000        +2.94335000        +7.22652000
C        +1.36660000        +3.46817000        +6.25241000
C        +2.66722000        +3.78543000        +7.01587000
C        +3.07988000        +2.36194000        +7.49032000
C        +1.98075000        +1.47544000        +6.83994000
O        +1.66492000        +2.20506000        +5.64356000
H        +0.31463000        +3.75629000        +8.15632000
H        +0.87575000        +1.58801000        +8.75140000
H        -2.65097000        -0.39834000        +6.53436000
H        -3.72424000        +3.98365000        +7.07138000
H        +3.40886000        +4.20625000        +6.33537000
H        +2.51888000        +4.49331000        +7.83383000
H        +4.05834000        +2.07837000        +7.09893000
H        +3.11011000        +2.25581000        +8.57660000
H        -2.17496000        -0.10922000        +4.82795000
H        -1.34410000        -1.35854000        +5.80636000
H        -4.00203000        +2.50466000        +8.04403000
H        -3.59468000        +2.38543000        +6.30237000
C        +0.93680000        +4.45920000        +5.19302000
C        +2.39102000        +0.05576000        +6.51920000
H        +3.29963000        +0.06165000        +5.91366000
H        +2.58642000        -0.50216000        +7.43811000
H        +1.60987000        -0.46053000        +5.95860000
H        +1.75497000        +4.65029000        +4.53046000
H        +0.63571000        +5.37321000        +5.66082000
H        +0.11577000        +4.05496000        +4.63858000
$end

$rem
JOBTYPE                   SP
METHOD                    B3LYP
DFT_D                     d3_op
BASIS                     6-311++G(d,p)
SYMMETRY                  False
THRESH                    12
SCF_CONVERGENCE           8
MAX_SUB_FILE_NUM          128
MEM_STATIC                400
MEM_TOTAL                 4000
$end
--------------------------------------------------------------

             Standard Nuclear Orientation (Angstroms)
    I     Atom           X                Y                Z
 ----------------------------------------------------------------
    1      C      -2.6615871079     0.2483195836     0.8380118052
    2      C      -2.7289263730     0.3934539791    -0.7223063194
    3      C      -3.1262073371    -1.0750670972     1.4168183363
    4      C      -3.3461071104    -0.7495134880    -1.5011494036
    5      O      -2.4231553956    -2.0945961933     0.8750214661
    6      O      -3.9502986613    -1.2179402400     2.2829840120
    7      O      -4.4880673073    -1.1941543140    -0.9458153147
    8      O      -2.8943871645    -1.1792227558    -2.5358790880
    9      C      -5.1581794947    -2.2667012707    -1.6293767181
   10      C      -2.7850601846    -3.4167841193     1.3111893986
   11      C      -3.5100117871     1.4562015302     1.3023048058
   12      C      -2.6764834638     2.7428127004     1.1441918886
   13      C      -2.6741905376     2.8987222240    -0.4041626642
   14      C      -3.5792568170     1.7149636413    -0.8474839912
   15      O      -4.4853094875     1.5887773973     0.2600197910
   16      H      -1.6200600590     0.3511621052     1.1556840783
   17      H      -1.7380743668     0.5297213039    -1.1518261070
   18      H      -4.4939938337    -3.1265228435    -1.7309575855
   19      H      -2.6049205600    -3.5307617502     2.3812350664
   20      H      -3.1836871672     3.5802357344     1.6255095356
   21      H      -1.6775524436     2.6587990943     1.5768995757
   22      H      -3.1284946937     3.8422315375    -0.7113758763
   23      H      -1.6771782017     2.8474453980    -0.8463376945
   24      H      -6.0178407252    -2.5107048139    -1.0093830650
   25      H      -5.4795144795    -1.9451479940    -2.6214516947
   26      H      -2.1523593422    -4.0938166170     0.7414837780
   27      H      -3.8393695927    -3.6075030725     1.1034574264
   28      C      -4.2041586424     1.2504321354     2.6308358640
   29      C      -4.3300573733     1.9163082101    -2.1445752803
   30      H      -4.8963507259     2.8489621217    -2.1026940687
   31      H      -3.6336782294     1.9671016659    -2.9850082564
   32      H      -5.0305980994     1.0986519944    -2.3226315930
   33      H      -4.7665372590     2.1262890468     2.8788444382
   34      H      -3.4731752244     1.0688640135     3.3908375534
   35      H      -4.8636623575     0.4106282502     2.5623651661
   36      C       4.3366921054     0.2111282836     0.6873797446
   37      C       4.2693528403     0.3562626791    -0.8729383800
   38      C       3.8720718762    -1.1122583973     1.2661862757
   39      C       3.6521721029    -0.7867047880    -1.6517814642
   40      O       4.5751238177    -2.1317874933     0.7243894055
   41      O       3.0479805519    -1.2551315400     2.1323519514
   42      O       2.5102119060    -1.2313456140    -1.0964473753
   43      O       4.1038920488    -1.2164140558    -2.6865111486
   44      C       1.8400997186    -2.3038925708    -1.7800087786
   45      C       4.2132190287    -3.4539754193     1.1605573380
   46      C       3.4882674262     1.4190102302     1.1516727452
   47      C       4.3217957495     2.7056214004     0.9935598280
   48      C       4.3240886757     2.8615309240    -0.5547947248
   49      C       3.4190223963     1.6777723412    -0.9981160518
   50      O       2.5129697258     1.5515860973     0.1093877305
   51      H       5.3782191543     0.3139708051     1.0050520177
   52      H       5.2602048465     0.4925300039    -1.3024581675
   53      H       2.5042853796    -3.1637141435    -1.8815896460
   54      H       4.3933586533    -3.5679530502     2.2306030058
   55      H       3.8145920461     3.5430444344     1.4748774750
   56      H       5.3207267697     2.6216077942     1.4262675151
   57      H       3.8697845196     3.8050402375    -0.8620079369
   58      H       5.3211010116     2.8102540980    -0.9969697551
   59      H       0.9804384881    -2.5478961139    -1.1600151256
   60      H       1.5187647338    -1.9823392940    -2.7720837553
   61      H       4.8459198711    -4.1310079171     0.5908517175
   62      H       3.1589096206    -3.6446943725     0.9528253658
   63      C       2.7941205709     1.2132408353     2.4802038034
   64      C       2.6682218400     1.8791169101    -2.2952073409
   65      H       2.1019284874     2.8117708216    -2.2533261293
   66      H       3.3646009839     1.9299103659    -3.1356403170
   67      H       1.9676811139     1.0614606943    -2.4732636536
   68      H       2.2317419543     2.0890977468     2.7282123776
   69      H       3.5251039889     1.0316727134     3.2402054928
   70      H       2.1346168558     0.3734369502     2.4117331055
 ----------------------------------------------------------------

   15   -1689.0374874414      4.78E-09 Convergence criterion met
 Total energy in the final basis set = -1689.03748744

                    Orbital Energies (a.u.)
 --------------------------------------------------------------

 Alpha MOs
 -- Occupied --
-19.178 -19.173 -19.173 -19.172 -19.128 -19.121 -19.119 -19.116
-19.114 -19.114 -10.313 -10.308 -10.306 -10.304 -10.245 -10.239
-10.234 -10.234 -10.231 -10.230 -10.228 -10.227 -10.206 -10.205
-10.199 -10.199 -10.180 -10.178 -10.173 -10.171 -10.169 -10.166
-10.140 -10.132  -1.122  -1.118  -1.114  -1.112  -1.065  -1.057
 -1.036  -1.031  -1.027  -1.026  -0.834  -0.828  -0.807  -0.800
 -0.786  -0.779  -0.748  -0.746  -0.731  -0.728  -0.723  -0.717
 -0.676  -0.671  -0.647  -0.640  -0.605  -0.600  -0.582  -0.576
 -0.570  -0.567  -0.563  -0.558  -0.527  -0.521  -0.515  -0.512
 -0.510  -0.504  -0.495  -0.490  -0.490  -0.486  -0.481  -0.477
 -0.476  -0.474  -0.473  -0.468  -0.461  -0.455  -0.444  -0.440
 -0.437  -0.434  -0.432  -0.431  -0.416  -0.412  -0.411  -0.408
 -0.405  -0.401  -0.400  -0.396  -0.396  -0.392  -0.375  -0.373
 -0.371  -0.370  -0.367  -0.361  -0.360  -0.357  -0.354  -0.352
 -0.351  -0.348  -0.345  -0.341  -0.336  -0.331  -0.330  -0.324
 -0.322  -0.319  -0.313  -0.312  -0.285  -0.282  -0.276  -0.272
 -0.268  -0.267

          Ground-State Mulliken Net Atomic Charges

     Atom                 Charge (a.u.)
  ----------------------------------------
      1 C                     0.499029
      2 C                     0.923030
      3 C                    -1.022035
      4 C                    -1.212804
      5 O                     0.047940
      6 O                    -0.132173
      7 O                     0.006375
      8 O                    -0.104857
      9 C                    -0.189630
     10 C                    -0.220900
     11 C                    -0.692406
     12 C                    -0.254787
     13 C                    -0.588319
     14 C                    -0.442756
     15 O                     0.064448
     16 H                     0.257317
     17 H                     0.368479
     18 H                     0.193623
     19 H                     0.178977
     20 H                     0.189690
     21 H                     0.130971
     22 H                     0.183207
     23 H                     0.095771
     24 H                     0.172603
     25 H                     0.177072
     26 H                     0.148775
     27 H                     0.182874
     28 C                    -0.083791
     29 C                     0.111141
     30 H                     0.174681
     31 H                     0.165018
     32 H                     0.177395
     33 H                     0.139179
     34 H                     0.159164
     35 H                     0.197945
     36 C                     0.377045
     37 C                     0.830840
     38 C                    -0.816077
     39 C                    -1.132681
     40 O                     0.010039
     41 O                    -0.091326
     42 O                     0.020573
     43 O                    -0.108907
     44 C                    -0.229712
     45 C                    -0.186209
     46 C                    -0.520218
     47 C                    -0.480526
     48 C                    -0.389150
     49 C                    -0.680619
     50 O                     0.190283
     51 H                     0.273136
     52 H                     0.284263
     53 H                     0.199136
     54 H                     0.170175
     55 H                     0.175270
     56 H                     0.142666
     57 H                     0.167721
     58 H                     0.144322
     59 H                     0.150241
     60 H                     0.186049
     61 H                     0.165896
     62 H                     0.179886
     63 C                    -0.095380
     64 C                     0.040912
     65 H                     0.181199
     66 H                     0.179162
     67 H                     0.201244
     68 H                     0.125682
     69 H                     0.168291
     70 H                     0.166527
  ----------------------------------------
  Sum of atomic charges =     0.000000

                    Cartesian Multipole Moments
 -----------------------------------------------------------------
    Charge (ESU x 10^10)
                 0.0000
    Dipole Moment (Debye)
         X       2.2937      Y      -0.5849      Z       0.4928
       Tot       2.4179
    Quadrupole Moments (Debye-Ang)
        XX    -203.4708     XY      10.9317     YY    -179.3065
        XZ      18.1120     YZ      -6.0442     ZZ    -220.0639

 Total job time:  3175.57s(wall), 6317.52s(cpu)
        *  Thank you very much for using Q-Chem.  Have a nice day.  *
