 Q-Chem 5.0, Q-Chem, Inc., Pleasanton, CA (2017)
 Q-Chem 5.0.1 for Intel X86 EM64T Linux

User input:
--------------------------------------------------------------
$molecule
0  1
C        -0.54444000        -0.68370000        -0.06689000
C        -0.55709000        +0.71878000        +0.05493000
C        +0.74969000        -1.43776000        -0.09374000
C        +0.72843000        +1.48436000        +0.06598000
O        +1.53645000        -1.09176000        +0.94813000
O        +1.04702000        -2.28405000        -0.90088000
O        +1.53784000        +1.08301000        -0.93877000
O        +1.01035000        +2.37097000        +0.83478000
C        +2.83449000        +1.70121000        -0.99358000
C        +2.82316000        -1.73208000        +1.00475000
C        -1.74320000        -1.41616000        -0.12552000
C        -2.93952000        -0.70056000        -0.05285000
C        -2.95313000        +0.68255000        +0.06934000
C        -1.77161000        +1.42404000        +0.12810000
H        +2.73835000        +2.77989000        -1.12464000
H        +2.70778000        -2.81319000        +1.09555000
H        -3.90354000        +1.20325000        +0.11710000
H        +3.38998000        +1.50093000        -0.07544000
H        +3.33184000        +1.25269000        -1.85067000
H        +3.31095000        -1.32281000        +1.88650000
H        +3.39889000        -1.50934000        +0.10459000
H        -3.87892000        -1.24211000        -0.08988000
C        -1.83960000        +2.92746000        +0.24839000
H        -1.24214000        +3.42352000        -0.52065000
H        -1.45503000        +3.26427000        +1.21284000
H        -2.87211000        +3.26623000        +0.14638000
H        -1.73878000        -2.44393000        -0.21875000
@C        -0.49627000        -1.29404000        +6.90628000
@C        -0.50892000        +0.10844000        +7.02810000
@C        +0.79786000        -2.04810000        +6.87943000
@C        +0.77660000        +0.87402000        +7.03915000
@O        +1.58462000        -1.70210000        +7.92130000
@O        +1.09519000        -2.89439000        +6.07229000
@O        +1.58601000        +0.47267000        +6.03440000
@O        +1.05852000        +1.76063000        +7.80795000
@C        +2.88266000        +1.09087000        +5.97959000
@C        +2.87133000        -2.34242000        +7.97792000
@C        -1.69503000        -2.02650000        +6.84765000
@C        -2.89135000        -1.31090000        +6.92032000
@C        -2.90496000        +0.07221000        +7.04251000
@C        -1.72344000        +0.81370000        +7.10127000
@H        +2.78652000        +2.16955000        +5.84853000
@H        +2.75595000        -3.42353000        +8.06872000
@H        -3.85537000        +0.59291000        +7.09027000
@H        +3.43815000        +0.89059000        +6.89773000
@H        +3.38001000        +0.64235000        +5.12250000
@H        +3.35912000        -1.93315000        +8.85967000
@H        +3.44706000        -2.11968000        +7.07776000
@H        -3.83075000        -1.85245000        +6.88329000
@C        -1.79143000        +2.31712000        +7.22156000
@H        -1.19397000        +2.81318000        +6.45252000
@H        -1.40686000        +2.65393000        +8.18601000
@H        -2.82394000        +2.65589000        +7.11955000
@H        -1.69061000        -3.05427000        +6.75442000
$end

$rem
JOBTYPE                   SP
METHOD                    B3LYP
DFT_D                     d3_op
BASIS                     6-311++G(d,p)
SYMMETRY                  False
THRESH                    12
SCF_CONVERGENCE           8
MAX_SUB_FILE_NUM          128
MEM_STATIC                400
MEM_TOTAL                 4000
$end
--------------------------------------------------------------

             Standard Nuclear Orientation (Angstroms)
    I     Atom           X                Y                Z
 ----------------------------------------------------------------
    1      C      -0.5444400000    -0.6837000000    -0.0668900000
    2      C      -0.5570900000     0.7187800000     0.0549300000
    3      C       0.7496900000    -1.4377600000    -0.0937400000
    4      C       0.7284300000     1.4843600000     0.0659800000
    5      O       1.5364500000    -1.0917600000     0.9481300000
    6      O       1.0470200000    -2.2840500000    -0.9008800000
    7      O       1.5378400000     1.0830100000    -0.9387700000
    8      O       1.0103500000     2.3709700000     0.8347800000
    9      C       2.8344900000     1.7012100000    -0.9935800000
   10      C       2.8231600000    -1.7320800000     1.0047500000
   11      C      -1.7432000000    -1.4161600000    -0.1255200000
   12      C      -2.9395200000    -0.7005600000    -0.0528500000
   13      C      -2.9531300000     0.6825500000     0.0693400000
   14      C      -1.7716100000     1.4240400000     0.1281000000
   15      H       2.7383500000     2.7798900000    -1.1246400000
   16      H       2.7077800000    -2.8131900000     1.0955500000
   17      H      -3.9035400000     1.2032500000     0.1171000000
   18      H       3.3899800000     1.5009300000    -0.0754400000
   19      H       3.3318400000     1.2526900000    -1.8506700000
   20      H       3.3109500000    -1.3228100000     1.8865000000
   21      H       3.3988900000    -1.5093400000     0.1045900000
   22      H      -3.8789200000    -1.2421100000    -0.0898800000
   23      C      -1.8396000000     2.9274600000     0.2483900000
   24      H      -1.2421400000     3.4235200000    -0.5206500000
   25      H      -1.4550300000     3.2642700000     1.2128400000
   26      H      -2.8721100000     3.2662300000     0.1463800000
   27      H      -1.7387800000    -2.4439300000    -0.2187500000
   28      GH     -0.4962700000    -1.2940400000     6.9062800000
   29      GH     -0.5089200000     0.1084400000     7.0281000000
   30      GH      0.7978600000    -2.0481000000     6.8794300000
   31      GH      0.7766000000     0.8740200000     7.0391500000
   32      GH      1.5846200000    -1.7021000000     7.9213000000
   33      GH      1.0951900000    -2.8943900000     6.0722900000
   34      GH      1.5860100000     0.4726700000     6.0344000000
   35      GH      1.0585200000     1.7606300000     7.8079500000
   36      GH      2.8826600000     1.0908700000     5.9795900000
   37      GH      2.8713300000    -2.3424200000     7.9779200000
   38      GH     -1.6950300000    -2.0265000000     6.8476500000
   39      GH     -2.8913500000    -1.3109000000     6.9203200000
   40      GH     -2.9049600000     0.0722100000     7.0425100000
   41      GH     -1.7234400000     0.8137000000     7.1012700000
   42      GH      2.7865200000     2.1695500000     5.8485300000
   43      GH      2.7559500000    -3.4235300000     8.0687200000
   44      GH     -3.8553700000     0.5929100000     7.0902700000
   45      GH      3.4381500000     0.8905900000     6.8977300000
   46      GH      3.3800100000     0.6423500000     5.1225000000
   47      GH      3.3591200000    -1.9331500000     8.8596700000
   48      GH      3.4470600000    -2.1196800000     7.0777600000
   49      GH     -3.8307500000    -1.8524500000     6.8832900000
   50      GH     -1.7914300000     2.3171200000     7.2215600000
   51      GH     -1.1939700000     2.8131800000     6.4525200000
   52      GH     -1.4068600000     2.6539300000     8.1860100000
   53      GH     -2.8239400000     2.6558900000     7.1195500000
   54      GH     -1.6906100000    -3.0542700000     6.7544200000
 ----------------------------------------------------------------

   14    -727.5437553631      5.50E-09 Convergence criterion met
 Total energy in the final basis set = -727.54375536

                    Orbital Energies (a.u.)
 --------------------------------------------------------------

 Alpha MOs
 -- Occupied --
-19.178 -19.177 -19.121 -19.119 -10.313 -10.312 -10.233 -10.232
-10.211 -10.208 -10.207 -10.193 -10.191 -10.190 -10.174  -1.122
 -1.115  -1.033  -1.030  -0.886  -0.801  -0.795  -0.747  -0.731
 -0.704  -0.655  -0.627  -0.581  -0.575  -0.550  -0.521  -0.514
 -0.492  -0.490  -0.483  -0.478  -0.472  -0.447  -0.435  -0.432
 -0.429  -0.412  -0.407  -0.396  -0.384  -0.378  -0.371  -0.365
 -0.364  -0.322  -0.314  -0.296  -0.294  -0.269  -0.264

          Ground-State Mulliken Net Atomic Charges

     Atom                 Charge (a.u.)
  ----------------------------------------
      1 C                     0.435077
      2 C                     1.486111
      3 C                    -0.501392
      4 C                    -1.174499
      5 O                     0.071137
      6 O                    -0.184972
      7 O                     0.044513
      8 O                    -0.115032
      9 C                    -0.220558
     10 C                    -0.265919
     11 C                    -0.564092
     12 C                    -0.146869
     13 C                    -0.472412
     14 C                     0.152071
     15 H                     0.169285
     16 H                     0.182236
     17 H                     0.129925
     18 H                     0.178043
     19 H                     0.168614
     20 H                     0.138973
     21 H                     0.178153
     22 H                     0.184743
     23 C                    -0.562007
     24 H                     0.172993
     25 H                     0.190292
     26 H                     0.148068
     27 H                     0.173376
     28 GH                    0.002649
     29 GH                    0.002639
     30 GH                   -0.002837
     31 GH                    0.000496
     32 GH                    0.000008
     33 GH                    0.000157
     34 GH                    0.000118
     35 GH                   -0.000008
     36 GH                   -0.000014
     37 GH                   -0.000039
     38 GH                   -0.001715
     39 GH                    0.000054
     40 GH                   -0.000429
     41 GH                   -0.001120
     42 GH                   -0.000771
     43 GH                    0.000004
     44 GH                   -0.000228
     45 GH                    0.000033
     46 GH                    0.004576
     47 GH                   -0.000007
     48 GH                    0.000120
     49 GH                   -0.000029
     50 GH                    0.000343
     51 GH                    0.000198
     52 GH                    0.000011
     53 GH                    0.000016
     54 GH                   -0.000082
  ----------------------------------------
  Sum of atomic charges =     0.000000

                    Cartesian Multipole Moments
 -----------------------------------------------------------------
    Charge (ESU x 10^10)
                 0.0000
    Dipole Moment (Debye)
         X       0.0064      Y       0.4772      Z       0.1991
       Tot       0.5171
    Quadrupole Moments (Debye-Ang)
        XX     -68.7290     XY      -0.6917     YY     -89.6829
        XZ      -0.0632     YZ      -9.3217     ZZ     -93.2913

 Total job time:  1261.55s(wall), 2486.21s(cpu)
        *  Thank you very much for using Q-Chem.  Have a nice day.  *
