 Q-Chem 5.0, Q-Chem, Inc., Pleasanton, CA (2017)
 Q-Chem 5.0.1 for Intel X86 EM64T Linux

User input:
--------------------------------------------------------------
$molecule
0  1
--
0  1
C        -0.54444000        -0.68370000        -0.06689000
C        -0.55709000        +0.71878000        +0.05493000
C        +0.74969000        -1.43776000        -0.09374000
C        +0.72843000        +1.48436000        +0.06598000
O        +1.53645000        -1.09176000        +0.94813000
O        +1.04702000        -2.28405000        -0.90088000
O        +1.53784000        +1.08301000        -0.93877000
O        +1.01035000        +2.37097000        +0.83478000
C        +2.83449000        +1.70121000        -0.99358000
C        +2.82316000        -1.73208000        +1.00475000
C        -1.74320000        -1.41616000        -0.12552000
C        -2.93952000        -0.70056000        -0.05285000
C        -2.95313000        +0.68255000        +0.06934000
C        -1.77161000        +1.42404000        +0.12810000
H        +2.73835000        +2.77989000        -1.12464000
H        +2.70778000        -2.81319000        +1.09555000
H        -3.90354000        +1.20325000        +0.11710000
H        +3.38998000        +1.50093000        -0.07544000
H        +3.33184000        +1.25269000        -1.85067000
H        +3.31095000        -1.32281000        +1.88650000
H        +3.39889000        -1.50934000        +0.10459000
H        -3.87892000        -1.24211000        -0.08988000
C        -1.83960000        +2.92746000        +0.24839000
H        -1.24214000        +3.42352000        -0.52065000
H        -1.45503000        +3.26427000        +1.21284000
H        -2.87211000        +3.26623000        +0.14638000
H        -1.73878000        -2.44393000        -0.21875000
--
0  1
C        -0.49627000        -1.29404000        +6.90628000
C        -0.50892000        +0.10844000        +7.02810000
C        +0.79786000        -2.04810000        +6.87943000
C        +0.77660000        +0.87402000        +7.03915000
O        +1.58462000        -1.70210000        +7.92130000
O        +1.09519000        -2.89439000        +6.07229000
O        +1.58601000        +0.47267000        +6.03440000
O        +1.05852000        +1.76063000        +7.80795000
C        +2.88266000        +1.09087000        +5.97959000
C        +2.87133000        -2.34242000        +7.97792000
C        -1.69503000        -2.02650000        +6.84765000
C        -2.89135000        -1.31090000        +6.92032000
C        -2.90496000        +0.07221000        +7.04251000
C        -1.72344000        +0.81370000        +7.10127000
H        +2.78652000        +2.16955000        +5.84853000
H        +2.75595000        -3.42353000        +8.06872000
H        -3.85537000        +0.59291000        +7.09027000
H        +3.43815000        +0.89059000        +6.89773000
H        +3.38001000        +0.64235000        +5.12250000
H        +3.35912000        -1.93315000        +8.85967000
H        +3.44706000        -2.11968000        +7.07776000
H        -3.83075000        -1.85245000        +6.88329000
C        -1.79143000        +2.31712000        +7.22156000
H        -1.19397000        +2.81318000        +6.45252000
H        -1.40686000        +2.65393000        +8.18601000
H        -2.82394000        +2.65589000        +7.11955000
H        -1.69061000        -3.05427000        +6.75442000
$end

$rem
JOBTYPE                   SP
METHOD                    B3LYP
DFT_D                     d3_op
BASIS                     6-311++G(d,p)
SYMMETRY                  False
THRESH                    12
SCF_CONVERGENCE           8
MAX_SUB_FILE_NUM          128
MEM_STATIC                400
MEM_TOTAL                 4000
$end
--------------------------------------------------------------

             Standard Nuclear Orientation (Angstroms)
    I     Atom           X                Y                Z
 ----------------------------------------------------------------
    1      C      -3.4841501276     0.2614810722     1.1754013688
    2      C      -3.5204394341     0.7662455700    -0.1383132780
    3      C      -3.4133074579    -1.2136348180     1.4266269438
    4      C      -3.5823651765    -0.1712887417    -1.3027835980
    5      O      -2.4089391538    -1.7796298807     0.7229975716
    6      O      -4.1174702552    -1.8252091143     2.1922760198
    7      O      -4.5276143469    -1.1175455637    -1.1108175440
    8      O      -2.9150008915    -0.0900551526    -2.3050987348
    9      C      -4.6383496161    -2.1198823012    -2.1352858761
   10      C      -2.2679807624    -3.2042423558     0.8624542979
   11      C      -3.4723432854     1.1269496217     2.2834561755
   12      C      -3.4923636287     2.4993387847     2.0291079841
   13      C      -3.5261236838     2.9982943576     0.7337267679
   14      C      -3.5389866968     2.1521132038    -0.3767063305
   15      H      -4.8904551227    -1.6616628181    -3.0925987217
   16      H      -2.0577314272    -3.4671720338     1.9002496622
   17      H      -3.5465791115     4.0714970271     0.5771819456
   18      H      -3.6980137143    -2.6649958405    -2.2366855764
   19      H      -5.4347235170    -2.7830874890    -1.8050163347
   20      H      -1.4328099456    -3.4760655715     0.2209514330
   21      H      -3.1816074690    -3.7098603060     0.5446447708
   22      H      -3.4778889098     3.1892542376     2.8663218956
   23      C      -3.5886667497     2.7436801228    -1.7648505929
   24      H      -4.4024255159     2.3189957747    -2.3580591328
   25      H      -2.6642357196     2.5473855659    -2.3111056441
   26      H      -3.7383721282     3.8233135004    -1.7080340222
   27      H      -3.4497306738     0.7613962641     3.2482784154
   28      C       3.5136176932     0.3435936592     1.0190742713
   29      C       3.4773283868     0.8483581570    -0.2946403756
   30      C       3.5844603630    -1.1315222310     1.2702998462
   31      C       3.4154026443    -0.0891761548    -1.4591106955
   32      O       4.5888286670    -1.6975172937     0.5666704741
   33      O       2.8802975657    -1.7430965273     2.0359489222
   34      O       2.4701534740    -1.0354329767    -1.2671446416
   35      O       4.0827669294    -0.0079425657    -2.4614258324
   36      C       2.3594182048    -2.0377697142    -2.2916129736
   37      C       4.7297870585    -3.1221297689     0.7061272004
   38      C       3.5254245354     1.2090622086     2.1271290779
   39      C       3.5054041922     2.5814513716     1.8727808865
   40      C       3.4716441371     3.0804069446     0.5773996703
   41      C       3.4587811241     2.2342257908    -0.5330334281
   42      H       2.1073126982    -1.5795502311    -3.2489258193
   43      H       4.9400363937    -3.3850594468     1.7439225646
   44      H       3.4511887094     4.1536096140     0.4208548480
   45      H       3.2997541065    -2.5828832535    -2.3930126739
   46      H       1.5630443039    -2.7009749021    -1.9613434323
   47      H       5.5649578753    -3.3939529845     0.0646243354
   48      H       3.8161603519    -3.6277477191     0.3883176733
   49      H       3.5198789111     3.2713668245     2.7099947981
   50      C       3.4091010712     2.8257927098    -1.9211776905
   51      H       2.5953423050     2.4011083617    -2.5143862303
   52      H       4.3335321013     2.6294981528    -2.4674327417
   53      H       3.2593956927     3.9054260874    -1.8643611198
   54      H       3.5480371471     0.8435088510     3.0919513179
 ----------------------------------------------------------------

   14   -1455.0879669649      8.63E-09 Convergence criterion met
 Total energy in the final basis set = -1455.08796696

                    Orbital Energies (a.u.)
 --------------------------------------------------------------

 Alpha MOs
 -- Occupied --
-19.177 -19.176 -19.175 -19.173 -19.120 -19.119 -19.118 -19.116
-10.312 -10.311 -10.310 -10.308 -10.232 -10.232 -10.230 -10.228
-10.209 -10.209 -10.206 -10.206 -10.205 -10.205 -10.192 -10.191
-10.189 -10.189 -10.188 -10.188 -10.173 -10.171  -1.120  -1.120
 -1.114  -1.112  -1.032  -1.030  -1.029  -1.027  -0.884  -0.884
 -0.800  -0.799  -0.793  -0.793  -0.745  -0.745  -0.730  -0.729
 -0.703  -0.702  -0.653  -0.653  -0.625  -0.625  -0.580  -0.579
 -0.574  -0.572  -0.548  -0.548  -0.519  -0.519  -0.512  -0.512
 -0.490  -0.490  -0.488  -0.488  -0.481  -0.480  -0.476  -0.476
 -0.471  -0.470  -0.445  -0.445  -0.434  -0.433  -0.430  -0.430
 -0.427  -0.427  -0.411  -0.410  -0.405  -0.404  -0.394  -0.394
 -0.382  -0.381  -0.376  -0.376  -0.369  -0.368  -0.363  -0.363
 -0.362  -0.361  -0.321  -0.320  -0.312  -0.311  -0.295  -0.295
 -0.293  -0.292  -0.267  -0.267  -0.262  -0.262

          Ground-State Mulliken Net Atomic Charges

     Atom                 Charge (a.u.)
  ----------------------------------------
      1 C                     0.433554
      2 C                     1.499569
      3 C                    -0.506881
      4 C                    -1.177785
      5 O                     0.075241
      6 O                    -0.187484
      7 O                     0.045176
      8 O                    -0.119863
      9 C                    -0.220600
     10 C                    -0.261086
     11 C                    -0.559951
     12 C                    -0.145896
     13 C                    -0.471208
     14 C                     0.153826
     15 H                     0.169083
     16 H                     0.184488
     17 H                     0.128682
     18 H                     0.176393
     19 H                     0.168856
     20 H                     0.136037
     21 H                     0.176177
     22 H                     0.183655
     23 C                    -0.563618
     24 H                     0.172607
     25 H                     0.188154
     26 H                     0.147691
     27 H                     0.174041
     28 C                     0.545403
     29 C                     1.224673
     30 C                    -0.674117
     31 C                    -0.806261
     32 O                     0.042472
     33 O                    -0.137313
     34 O                     0.077409
     35 O                    -0.171543
     36 C                    -0.265326
     37 C                    -0.220023
     38 C                    -0.574382
     39 C                    -0.123932
     40 C                    -0.491106
     41 C                     0.177186
     42 H                     0.180904
     43 H                     0.172648
     44 H                     0.131419
     45 H                     0.182323
     46 H                     0.138828
     47 H                     0.167328
     48 H                     0.172413
     49 H                     0.183618
     50 C                    -0.623071
     51 H                     0.179075
     52 H                     0.205724
     53 H                     0.141390
     54 H                     0.165404
  ----------------------------------------
  Sum of atomic charges =     0.000000

                    Cartesian Multipole Moments
 -----------------------------------------------------------------
    Charge (ESU x 10^10)
                 0.0000
    Dipole Moment (Debye)
         X       0.2820      Y       0.3342      Z      -0.8724
       Tot       0.9758
    Quadrupole Moments (Debye-Ang)
        XX    -183.3873     XY      -6.9603     YY    -143.0969
        XZ      17.1854     YZ      14.1191     ZZ    -179.2687

 Total job time:  1336.43s(wall), 2658.89s(cpu)
        *  Thank you very much for using Q-Chem.  Have a nice day.  *
