 Q-Chem 5.0, Q-Chem, Inc., Pleasanton, CA (2017)
 Q-Chem 5.0.1 for Intel X86 EM64T Linux

User input:
--------------------------------------------------------------
$molecule
0  1
C        -0.54444000        -0.68370000        -0.06689000
C        -0.55709000        +0.71878000        +0.05493000
C        +0.74969000        -1.43776000        -0.09374000
C        +0.72843000        +1.48436000        +0.06598000
O        +1.53645000        -1.09176000        +0.94813000
O        +1.04702000        -2.28405000        -0.90088000
O        +1.53784000        +1.08301000        -0.93877000
O        +1.01035000        +2.37097000        +0.83478000
C        +2.83449000        +1.70121000        -0.99358000
C        +2.82316000        -1.73208000        +1.00475000
C        -1.74320000        -1.41616000        -0.12552000
C        -2.93952000        -0.70056000        -0.05285000
C        -2.95313000        +0.68255000        +0.06934000
C        -1.77161000        +1.42404000        +0.12810000
H        +2.73835000        +2.77989000        -1.12464000
H        +2.70778000        -2.81319000        +1.09555000
H        -3.90354000        +1.20325000        +0.11710000
H        +3.38998000        +1.50093000        -0.07544000
H        +3.33184000        +1.25269000        -1.85067000
H        +3.31095000        -1.32281000        +1.88650000
H        +3.39889000        -1.50934000        +0.10459000
H        -3.87892000        -1.24211000        -0.08988000
C        -1.83960000        +2.92746000        +0.24839000
C        -1.78103000        -2.92226000        -0.24590000
H        -1.39752000        -3.25223000        -1.21323000
H        -2.80572000        -3.28175000        -0.13627000
H        -1.16958000        -3.40777000        +0.51926000
H        -1.24214000        +3.42352000        -0.52065000
H        -1.45503000        +3.26427000        +1.21284000
H        -2.87211000        +3.26623000        +0.14638000
@C        -0.49627000        -1.29404000        +6.90628000
@C        -0.50892000        +0.10844000        +7.02810000
@C        +0.79786000        -2.04810000        +6.87943000
@C        +0.77660000        +0.87402000        +7.03915000
@O        +1.58462000        -1.70210000        +7.92130000
@O        +1.09519000        -2.89439000        +6.07229000
@O        +1.58601000        +0.47267000        +6.03440000
@O        +1.05852000        +1.76063000        +7.80795000
@C        +2.88266000        +1.09087000        +5.97959000
@C        +2.87133000        -2.34242000        +7.97792000
@C        -1.69503000        -2.02650000        +6.84765000
@C        -2.89135000        -1.31090000        +6.92032000
@C        -2.90496000        +0.07221000        +7.04251000
@C        -1.72344000        +0.81370000        +7.10127000
@H        +2.78652000        +2.16955000        +5.84853000
@H        +2.75595000        -3.42353000        +8.06872000
@H        -3.85537000        +0.59291000        +7.09027000
@H        +3.43815000        +0.89059000        +6.89773000
@H        +3.38001000        +0.64235000        +5.12250000
@H        +3.35912000        -1.93315000        +8.85967000
@H        +3.44706000        -2.11968000        +7.07776000
@H        -3.83075000        -1.85245000        +6.88329000
@C        -1.79143000        +2.31712000        +7.22156000
@C        -1.73286000        -3.53260000        +6.72727000
@H        -1.34935000        -3.86257000        +5.75994000
@H        -2.75755000        -3.89209000        +6.83690000
@H        -1.12141000        -4.01811000        +7.49243000
@H        -1.19397000        +2.81318000        +6.45252000
@H        -1.40686000        +2.65393000        +8.18601000
@H        -2.82394000        +2.65589000        +7.11955000
$end

$rem
JOBTYPE                   SP
METHOD                    B3LYP
DFT_D                     d3_op
BASIS                     6-311++G(d,p)
SYMMETRY                  False
THRESH                    12
SCF_CONVERGENCE           8
MAX_SUB_FILE_NUM          128
MEM_STATIC                400
MEM_TOTAL                 4000
$end
--------------------------------------------------------------

             Standard Nuclear Orientation (Angstroms)
    I     Atom           X                Y                Z
 ----------------------------------------------------------------
    1      C      -0.5444400000    -0.6837000000    -0.0668900000
    2      C      -0.5570900000     0.7187800000     0.0549300000
    3      C       0.7496900000    -1.4377600000    -0.0937400000
    4      C       0.7284300000     1.4843600000     0.0659800000
    5      O       1.5364500000    -1.0917600000     0.9481300000
    6      O       1.0470200000    -2.2840500000    -0.9008800000
    7      O       1.5378400000     1.0830100000    -0.9387700000
    8      O       1.0103500000     2.3709700000     0.8347800000
    9      C       2.8344900000     1.7012100000    -0.9935800000
   10      C       2.8231600000    -1.7320800000     1.0047500000
   11      C      -1.7432000000    -1.4161600000    -0.1255200000
   12      C      -2.9395200000    -0.7005600000    -0.0528500000
   13      C      -2.9531300000     0.6825500000     0.0693400000
   14      C      -1.7716100000     1.4240400000     0.1281000000
   15      H       2.7383500000     2.7798900000    -1.1246400000
   16      H       2.7077800000    -2.8131900000     1.0955500000
   17      H      -3.9035400000     1.2032500000     0.1171000000
   18      H       3.3899800000     1.5009300000    -0.0754400000
   19      H       3.3318400000     1.2526900000    -1.8506700000
   20      H       3.3109500000    -1.3228100000     1.8865000000
   21      H       3.3988900000    -1.5093400000     0.1045900000
   22      H      -3.8789200000    -1.2421100000    -0.0898800000
   23      C      -1.8396000000     2.9274600000     0.2483900000
   24      C      -1.7810300000    -2.9222600000    -0.2459000000
   25      H      -1.3975200000    -3.2522300000    -1.2132300000
   26      H      -2.8057200000    -3.2817500000    -0.1362700000
   27      H      -1.1695800000    -3.4077700000     0.5192600000
   28      H      -1.2421400000     3.4235200000    -0.5206500000
   29      H      -1.4550300000     3.2642700000     1.2128400000
   30      H      -2.8721100000     3.2662300000     0.1463800000
   31      GH     -0.4962700000    -1.2940400000     6.9062800000
   32      GH     -0.5089200000     0.1084400000     7.0281000000
   33      GH      0.7978600000    -2.0481000000     6.8794300000
   34      GH      0.7766000000     0.8740200000     7.0391500000
   35      GH      1.5846200000    -1.7021000000     7.9213000000
   36      GH      1.0951900000    -2.8943900000     6.0722900000
   37      GH      1.5860100000     0.4726700000     6.0344000000
   38      GH      1.0585200000     1.7606300000     7.8079500000
   39      GH      2.8826600000     1.0908700000     5.9795900000
   40      GH      2.8713300000    -2.3424200000     7.9779200000
   41      GH     -1.6950300000    -2.0265000000     6.8476500000
   42      GH     -2.8913500000    -1.3109000000     6.9203200000
   43      GH     -2.9049600000     0.0722100000     7.0425100000
   44      GH     -1.7234400000     0.8137000000     7.1012700000
   45      GH      2.7865200000     2.1695500000     5.8485300000
   46      GH      2.7559500000    -3.4235300000     8.0687200000
   47      GH     -3.8553700000     0.5929100000     7.0902700000
   48      GH      3.4381500000     0.8905900000     6.8977300000
   49      GH      3.3800100000     0.6423500000     5.1225000000
   50      GH      3.3591200000    -1.9331500000     8.8596700000
   51      GH      3.4470600000    -2.1196800000     7.0777600000
   52      GH     -3.8307500000    -1.8524500000     6.8832900000
   53      GH     -1.7914300000     2.3171200000     7.2215600000
   54      GH     -1.7328600000    -3.5326000000     6.7272700000
   55      GH     -1.3493500000    -3.8625700000     5.7599400000
   56      GH     -2.7575500000    -3.8920900000     6.8369000000
   57      GH     -1.1214100000    -4.0181100000     7.4924300000
   58      GH     -1.1939700000     2.8131800000     6.4525200000
   59      GH     -1.4068600000     2.6539300000     8.1860100000
   60      GH     -2.8239400000     2.6558900000     7.1195500000
 ----------------------------------------------------------------

   14    -766.8764343385      5.99E-09 Convergence criterion met
 Total energy in the final basis set = -766.87643434

                    Orbital Energies (a.u.)
 --------------------------------------------------------------

 Alpha MOs
 -- Occupied --
-19.176 -19.176 -19.119 -19.119 -10.311 -10.311 -10.232 -10.232
-10.205 -10.205 -10.201 -10.201 -10.187 -10.186 -10.171 -10.170
 -1.121  -1.114  -1.031  -1.030  -0.885  -0.807  -0.796  -0.747
 -0.734  -0.725  -0.675  -0.649  -0.620  -0.577  -0.565  -0.537
 -0.517  -0.515  -0.491  -0.489  -0.480  -0.477  -0.469  -0.442
 -0.434  -0.429  -0.420  -0.416  -0.411  -0.406  -0.396  -0.387
 -0.380  -0.373  -0.362  -0.359  -0.357  -0.321  -0.313  -0.293
 -0.292  -0.266  -0.253

          Ground-State Mulliken Net Atomic Charges

     Atom                 Charge (a.u.)
  ----------------------------------------
      1 C                     0.485905
      2 C                     0.681945
      3 C                    -0.548495
      4 C                    -0.871375
      5 O                     0.099808
      6 O                    -0.160990
      7 O                     0.048832
      8 O                    -0.112144
      9 C                    -0.214785
     10 C                    -0.269131
     11 C                     0.397525
     12 C                    -0.504697
     13 C                    -0.569560
     14 C                     0.415197
     15 H                     0.168946
     16 H                     0.178281
     17 H                     0.135722
     18 H                     0.176728
     19 H                     0.168898
     20 H                     0.139482
     21 H                     0.180974
     22 H                     0.141927
     23 C                    -0.566447
     24 C                    -0.634611
     25 H                     0.206513
     26 H                     0.139166
     27 H                     0.174678
     28 H                     0.172671
     29 H                     0.190726
     30 H                     0.144302
     31 GH                   -0.000653
     32 GH                   -0.000493
     33 GH                    0.005747
     34 GH                    0.002430
     35 GH                    0.000010
     36 GH                    0.000099
     37 GH                    0.000240
     38 GH                   -0.000008
     39 GH                   -0.000364
     40 GH                    0.000087
     41 GH                   -0.003582
     42 GH                    0.000404
     43 GH                    0.000252
     44 GH                   -0.003154
     45 GH                   -0.000728
     46 GH                    0.000010
     47 GH                   -0.000200
     48 GH                    0.000015
     49 GH                    0.004944
     50 GH                    0.000000
     51 GH                    0.000111
     52 GH                   -0.000191
     53 GH                    0.000471
     54 GH                   -0.001137
     55 GH                   -0.000494
     56 GH                    0.000000
     57 GH                    0.000006
     58 GH                    0.000161
     59 GH                    0.000010
     60 GH                    0.000013
  ----------------------------------------
  Sum of atomic charges =     0.000000

                    Cartesian Multipole Moments
 -----------------------------------------------------------------
    Charge (ESU x 10^10)
                 0.0000
    Dipole Moment (Debye)
         X       0.0708      Y      -0.1075      Z       0.0703
       Tot       0.1467
    Quadrupole Moments (Debye-Ang)
        XX     -76.1225     XY      -0.0714     YY     -95.4226
        XZ       0.1031     YZ      -8.9495     ZZ     -99.5258

 Total job time:  1783.76s(wall), 3546.72s(cpu)
        *  Thank you very much for using Q-Chem.  Have a nice day.  *
