 Q-Chem 5.0, Q-Chem, Inc., Pleasanton, CA (2017)
 Q-Chem 5.0.1 for Intel X86 EM64T Linux

User input:
--------------------------------------------------------------
$molecule
0  1
--
0  1
C        -0.54444000        -0.68370000        -0.06689000
C        -0.55709000        +0.71878000        +0.05493000
C        +0.74969000        -1.43776000        -0.09374000
C        +0.72843000        +1.48436000        +0.06598000
O        +1.53645000        -1.09176000        +0.94813000
O        +1.04702000        -2.28405000        -0.90088000
O        +1.53784000        +1.08301000        -0.93877000
O        +1.01035000        +2.37097000        +0.83478000
C        +2.83449000        +1.70121000        -0.99358000
C        +2.82316000        -1.73208000        +1.00475000
C        -1.74320000        -1.41616000        -0.12552000
C        -2.93952000        -0.70056000        -0.05285000
C        -2.95313000        +0.68255000        +0.06934000
C        -1.77161000        +1.42404000        +0.12810000
H        +2.73835000        +2.77989000        -1.12464000
H        +2.70778000        -2.81319000        +1.09555000
H        -3.90354000        +1.20325000        +0.11710000
H        +3.38998000        +1.50093000        -0.07544000
H        +3.33184000        +1.25269000        -1.85067000
H        +3.31095000        -1.32281000        +1.88650000
H        +3.39889000        -1.50934000        +0.10459000
H        -3.87892000        -1.24211000        -0.08988000
C        -1.83960000        +2.92746000        +0.24839000
C        -1.78103000        -2.92226000        -0.24590000
H        -1.39752000        -3.25223000        -1.21323000
H        -2.80572000        -3.28175000        -0.13627000
H        -1.16958000        -3.40777000        +0.51926000
H        -1.24214000        +3.42352000        -0.52065000
H        -1.45503000        +3.26427000        +1.21284000
H        -2.87211000        +3.26623000        +0.14638000
--
0  1
C        -0.49627000        -1.29404000        +6.90628000
C        -0.50892000        +0.10844000        +7.02810000
C        +0.79786000        -2.04810000        +6.87943000
C        +0.77660000        +0.87402000        +7.03915000
O        +1.58462000        -1.70210000        +7.92130000
O        +1.09519000        -2.89439000        +6.07229000
O        +1.58601000        +0.47267000        +6.03440000
O        +1.05852000        +1.76063000        +7.80795000
C        +2.88266000        +1.09087000        +5.97959000
C        +2.87133000        -2.34242000        +7.97792000
C        -1.69503000        -2.02650000        +6.84765000
C        -2.89135000        -1.31090000        +6.92032000
C        -2.90496000        +0.07221000        +7.04251000
C        -1.72344000        +0.81370000        +7.10127000
H        +2.78652000        +2.16955000        +5.84853000
H        +2.75595000        -3.42353000        +8.06872000
H        -3.85537000        +0.59291000        +7.09027000
H        +3.43815000        +0.89059000        +6.89773000
H        +3.38001000        +0.64235000        +5.12250000
H        +3.35912000        -1.93315000        +8.85967000
H        +3.44706000        -2.11968000        +7.07776000
H        -3.83075000        -1.85245000        +6.88329000
C        -1.79143000        +2.31712000        +7.22156000
C        -1.73286000        -3.53260000        +6.72727000
H        -1.34935000        -3.86257000        +5.75994000
H        -2.75755000        -3.89209000        +6.83690000
H        -1.12141000        -4.01811000        +7.49243000
H        -1.19397000        +2.81318000        +6.45252000
H        -1.40686000        +2.65393000        +8.18601000
H        -2.82394000        +2.65589000        +7.11955000
$end

$rem
JOBTYPE                   SP
METHOD                    B3LYP
DFT_D                     d3_op
BASIS                     6-311++G(d,p)
SYMMETRY                  False
THRESH                    12
SCF_CONVERGENCE           8
MAX_SUB_FILE_NUM          128
MEM_STATIC                400
MEM_TOTAL                 4000
$end
--------------------------------------------------------------

             Standard Nuclear Orientation (Angstroms)
    I     Atom           X                Y                Z
 ----------------------------------------------------------------
    1      C      -3.4893385014     0.5004278381     0.7999452244
    2      C      -3.5250919990     0.5692401874    -0.6057349786
    3      C      -3.4206411652    -0.8223105461     1.4997621334
    4      C      -3.5885950028    -0.6852552263    -1.4187572015
    5      O      -2.4172263226    -1.5813733050     1.0086585027
    6      O      -4.1255857447    -1.1628396781     2.4180104237
    7      O      -4.5352142839    -1.5226884761    -0.9408802072
    8      O      -2.9212729827    -0.9224179837    -2.3960211201
    9      C      -4.6476001714    -2.7948984088    -1.6006740372
   10      C      -2.2783565596    -2.8911840420     1.5865418587
   11      C      -3.4760702419     1.6689058366     1.5818939354
   12      C      -3.4940980332     2.8930163921     0.9112418812
   13      C      -3.5273279287     2.9620388411    -0.4752070273
   14      C      -3.5416241619     1.8111394706    -1.2654449186
   15      H      -4.8991810332    -2.6585622569    -2.6533324287
   16      H      -2.0683294416    -2.8167972726     2.6545826981
   17      H      -3.5462183426     3.9325364108    -0.9594242256
   18      H      -3.7080894442    -3.3457593170    -1.5262822942
   19      H      -5.4449025821    -3.3204476591    -1.0798695323
   20      H      -1.4436930763    -3.3511512669     1.0624320408
   21      H      -3.1927828114    -3.4694816663     1.4424493401
   22      H      -3.4784657821     3.8100647095     1.4908089607
   23      C      -3.5906517889     1.9391540041    -2.7689649855
   24      C      -3.4277425413     1.6465166588     3.0923318922
   25      H      -4.3488149500     1.2378900612     3.5122573279
   26      H      -3.2874487668     2.6577790044     3.4782172618
   27      H      -2.6078986716     1.0266491768     3.4647311701
   28      H      -4.4051347664     1.3514901929    -3.1999234765
   29      H      -2.6666008881     1.5805764945    -3.2261859013
   30      H      -3.7387480183     2.9826510658    -3.0525658355
   31      C       3.5085179701     0.5193493946     0.6279513506
   32      C       3.4727644725     0.5881617438    -0.7777288525
   33      C       3.5772153063    -0.8033889896     1.3277682595
   34      C       3.4092614687    -0.6663336698    -1.5907510754
   35      O       4.5806301489    -1.5624517486     0.8366646289
   36      O       2.8722707268    -1.1439181216     2.2460165499
   37      O       2.4626421876    -1.5037669196    -1.1128740810
   38      O       4.0765834887    -0.9034964273    -2.5680149940
   39      C       2.3502563001    -2.7759768523    -1.7726679110
   40      C       4.7194999119    -2.8722624856     1.4145479848
   41      C       3.5217862296     1.6878273931     1.4099000615
   42      C       3.5037584383     2.9119379486     0.7392480073
   43      C       3.4705285427     2.9809603975    -0.6472009012
   44      C       3.4562323096     1.8300610270    -1.4374387924
   45      H       2.0986754383    -2.6396407004    -2.8253263026
   46      H       4.9295270299    -2.7978757161     2.4825888243
   47      H       3.4516381289     3.9514579673    -1.1314180995
   48      H       3.2897670273    -3.3268377605    -1.6982761680
   49      H       1.5529538893    -3.3015261026    -1.2518634061
   50      H       5.5541633952    -3.3322297105     0.8904381669
   51      H       3.8050736601    -3.4505601098     1.2704554662
   52      H       3.5193906894     3.8289862660     1.3188150868
   53      C       3.4072046826     1.9580755606    -2.9409588593
   54      C       3.5701139301     1.6654382153     2.9203380184
   55      H       2.6490415214     1.2568116177     3.3402634540
   56      H       3.7104077047     2.6767005609     3.3062233879
   57      H       4.3899577998     1.0455707333     3.2927372963
   58      H       2.5927217050     1.3704117494    -3.3719173504
   59      H       4.3312555834     1.5994980510    -3.3981797752
   60      H       3.2591084531     3.0015726223    -3.2245597094
 ----------------------------------------------------------------

   14   -1533.7535780490      8.36E-09 Convergence criterion met
 Total energy in the final basis set = -1533.75357805

                    Orbital Energies (a.u.)
 --------------------------------------------------------------

 Alpha MOs
 -- Occupied --
-19.175 -19.175 -19.173 -19.173 -19.118 -19.118 -19.117 -19.116
-10.310 -10.310 -10.308 -10.308 -10.232 -10.231 -10.229 -10.229
-10.203 -10.203 -10.203 -10.203 -10.199 -10.199 -10.199 -10.199
-10.185 -10.185 -10.184 -10.184 -10.170 -10.169 -10.168 -10.168
 -1.119  -1.119  -1.112  -1.112  -1.030  -1.030  -1.028  -1.027
 -0.883  -0.883  -0.805  -0.805  -0.794  -0.793  -0.745  -0.745
 -0.732  -0.732  -0.723  -0.723  -0.673  -0.673  -0.647  -0.647
 -0.619  -0.618  -0.576  -0.575  -0.563  -0.563  -0.535  -0.535
 -0.515  -0.515  -0.513  -0.513  -0.489  -0.489  -0.487  -0.486
 -0.478  -0.478  -0.476  -0.475  -0.468  -0.467  -0.441  -0.440
 -0.433  -0.432  -0.428  -0.427  -0.419  -0.418  -0.414  -0.414
 -0.410  -0.409  -0.404  -0.404  -0.394  -0.394  -0.386  -0.385
 -0.378  -0.378  -0.371  -0.371  -0.360  -0.360  -0.357  -0.357
 -0.355  -0.355  -0.319  -0.319  -0.311  -0.311  -0.292  -0.292
 -0.290  -0.290  -0.264  -0.264  -0.251  -0.251

          Ground-State Mulliken Net Atomic Charges

     Atom                 Charge (a.u.)
  ----------------------------------------
      1 C                     0.495640
      2 C                     0.690286
      3 C                    -0.546214
      4 C                    -0.868047
      5 O                     0.102748
      6 O                    -0.163744
      7 O                     0.049312
      8 O                    -0.115794
      9 C                    -0.214309
     10 C                    -0.264096
     11 C                     0.399316
     12 C                    -0.508544
     13 C                    -0.572007
     14 C                     0.412920
     15 H                     0.168691
     16 H                     0.179615
     17 H                     0.134111
     18 H                     0.174938
     19 H                     0.169078
     20 H                     0.138507
     21 H                     0.179225
     22 H                     0.140806
     23 C                    -0.570723
     24 C                    -0.638916
     25 H                     0.205828
     26 H                     0.137782
     27 H                     0.179013
     28 H                     0.172370
     29 H                     0.188652
     30 H                     0.143860
     31 C                     0.701159
     32 C                     0.508817
     33 C                    -0.941632
     34 C                    -0.496321
     35 O                     0.065678
     36 O                    -0.104233
     37 O                     0.083717
     38 O                    -0.168600
     39 C                    -0.262969
     40 C                    -0.215786
     41 C                     0.416702
     42 C                    -0.557605
     43 C                    -0.514657
     44 C                     0.383276
     45 H                     0.180852
     46 H                     0.168041
     47 H                     0.140725
     48 H                     0.180936
     49 H                     0.138505
     50 H                     0.167136
     51 H                     0.174194
     52 H                     0.134997
     53 C                    -0.636639
     54 C                    -0.573708
     55 H                     0.189144
     56 H                     0.145693
     57 H                     0.171965
     58 H                     0.178759
     59 H                     0.204860
     60 H                     0.136691
  ----------------------------------------
  Sum of atomic charges =     0.000000

                    Cartesian Multipole Moments
 -----------------------------------------------------------------
    Charge (ESU x 10^10)
                 0.0000
    Dipole Moment (Debye)
         X       0.1709      Y      -0.1358      Z       0.1887
       Tot       0.2885
    Quadrupole Moments (Debye-Ang)
        XX    -196.1059     XY      -1.3127     YY    -153.1270
        XZ      17.8248     YZ       1.7230     ZZ    -194.9510

 Total job time:  1907.08s(wall), 3793.78s(cpu)
        *  Thank you very much for using Q-Chem.  Have a nice day.  *
