 Q-Chem 5.0, Q-Chem, Inc., Pleasanton, CA (2017)
 Q-Chem 5.0.1 for Intel X86 EM64T Linux

User input:
--------------------------------------------------------------
$molecule
0  1
--
0  1
C        +0.22270000        +1.04488000        +0.58595000
C        +0.62626000        -0.41353000        +0.99871000
C        +1.33008000        +1.39974000        -0.43491000
C        +2.63070000        +1.71700000        +0.32855000
C        +3.04336000        +0.29351000        +0.80300000
C        +1.94423000        -0.59299000        +0.15262000
O        +1.62840000        +0.13663000        -1.04376000
H        +3.37234000        +2.13782000        -0.35195000
H        +2.48236000        +2.42488000        +1.14651000
H        +4.02182000        +0.00994000        +0.41161000
H        +3.07359000        +0.18738000        +1.88928000
H        +1.03270000        +2.19943000        -1.08064000
H        +2.24339000        -1.61496000        +0.04786000
H        +0.81693000        -0.48905000        +2.04887000
H        -0.12524000        -1.15356000        +0.81843000
H        -0.74673000        +1.06811000        +0.13365000
H        +0.15552000        +1.72617000        +1.40828000
--
0  1
C        +3.33804000        +2.85850000        +3.44347000
C        +3.74160000        +1.40009000        +3.85623000
C        +4.44542000        +3.21336000        +2.42261000
C        +5.74604000        +3.53062000        +3.18607000
C        +6.15870000        +2.10713000        +3.66052000
C        +5.05957000        +1.22063000        +3.01014000
O        +4.74374000        +1.95025000        +1.81376000
H        +6.48768000        +3.95144000        +2.50557000
H        +5.59770000        +4.23850000        +4.00403000
H        +7.13716000        +1.82356000        +3.26913000
H        +6.18893000        +2.00100000        +4.74680000
H        +4.14804000        +4.01305000        +1.77688000
H        +5.35873000        +0.19866000        +2.90538000
H        +3.93227000        +1.32457000        +4.90639000
H        +2.99010000        +0.66006000        +3.67595000
H        +2.36861000        +2.88173000        +2.99117000
H        +3.27086000        +3.53979000        +4.26580000
$end

$rem
JOBTYPE                   SP
METHOD                    B3LYP
DFT_D                     d3_op
BASIS                     6-311++G(d,p)
SYMMETRY                  False
THRESH                    12
SCF_CONVERGENCE           8
MAX_SUB_FILE_NUM          128
MEM_STATIC                400
MEM_TOTAL                 4000
$end
--------------------------------------------------------------

             Standard Nuclear Orientation (Angstroms)
    I     Atom           X                Y                Z
 ----------------------------------------------------------------
    1      C       2.8926870283    -0.5595995095     1.1979214698
    2      C       2.9414924674     0.9790178889     0.8971462219
    3      C       2.5547099900    -1.1410715813    -0.1956469623
    4      C       1.0597358624    -0.9052807947    -0.4864949060
    5      C       1.0525168767     0.6295939650    -0.7430533133
    6      C       2.5630218354     0.9806839729    -0.6331727989
    7      O       3.1935035687    -0.2248318098    -1.0943056640
    8      H       0.7592262887    -1.4570159786    -1.3783928233
    9      H       0.4120142685    -1.2143332899     0.3363663847
   10      H       0.6936873711     0.8652685609    -1.7463882122
   11      H       0.4433277033     1.1883107067    -0.0296769597
   12      H       2.8252575161    -2.1735744007    -0.2708011869
   13      H       2.8138864912     1.8947335201    -1.1296346744
   14      H       2.2267659073     1.5193444259     1.4820458052
   15      H       3.8738942736     1.4505165729     1.1278265028
   16      H       3.8367969518    -0.9180331027     1.5516038972
   17      H       2.1950664444    -0.8307864844     1.9625645179
   18      C      -1.7003846801    -0.5012972762     1.4434301288
   19      C      -1.6515792410     1.0373201222     1.1426548809
   20      C      -2.0383617184    -1.0827693479     0.0498616967
   21      C      -3.5333358460    -0.8469785614    -0.2409862469
   22      C      -3.5405548316     0.6878961984    -0.4975446542
   23      C      -2.0300498730     1.0389862063    -0.3876641399
   24      O      -1.3995681397    -0.1665295765    -0.8487970050
   25      H      -3.8338454197    -1.3987137453    -1.1328841643
   26      H      -4.1810574399    -1.1560310566     0.5818750437
   27      H      -3.8993843373     0.9235707942    -1.5008795531
   28      H      -4.1497440050     1.2466129401     0.2158316993
   29      H      -1.7678141923    -2.1152721673    -0.0252925279
   30      H      -1.7791852172     1.9530357535    -0.8841260154
   31      H      -2.3663058011     1.5776466593     1.7275544642
   32      H      -0.7191774348     1.5088188063     1.3733351618
   33      H      -0.7562747566    -0.8597308694     1.7971125562
   34      H      -2.3980052640    -0.7724842510     2.2080731769
 ----------------------------------------------------------------

   13    -619.9064954162      6.58E-09 Convergence criterion met
 Total energy in the final basis set = -619.90649542

                    Orbital Energies (a.u.)
 --------------------------------------------------------------

 Alpha MOs
 -- Occupied --
-19.126 -19.111 -10.228 -10.225 -10.208 -10.205 -10.173 -10.173
-10.172 -10.171 -10.156 -10.155 -10.150 -10.149  -1.058  -1.038
 -0.805  -0.786  -0.757  -0.755  -0.736  -0.735  -0.622  -0.603
 -0.585  -0.581  -0.568  -0.561  -0.535  -0.514  -0.491  -0.477
 -0.460  -0.449  -0.438  -0.418  -0.413  -0.404  -0.393  -0.384
 -0.376  -0.367  -0.358  -0.350  -0.347  -0.346  -0.338  -0.325
 -0.323  -0.310  -0.305  -0.290  -0.270  -0.246

          Ground-State Mulliken Net Atomic Charges

     Atom                 Charge (a.u.)
  ----------------------------------------
      1 C                    -0.383232
      2 C                    -0.375358
      3 C                    -0.180501
      4 C                    -0.145038
      5 C                    -0.176615
      6 C                    -0.191439
      7 O                    -0.128232
      8 H                     0.211698
      9 H                     0.028583
     10 H                     0.207370
     11 H                     0.015988
     12 H                     0.219258
     13 H                     0.218021
     14 H                     0.092085
     15 H                     0.179593
     16 H                     0.172482
     17 H                     0.104074
     18 C                    -0.406454
     19 C                    -0.384390
     20 C                     0.182993
     21 C                    -0.594262
     22 C                    -0.546384
     23 C                     0.179701
     24 O                     0.028293
     25 H                     0.169276
     26 H                     0.127735
     27 H                     0.170717
     28 H                     0.124881
     29 H                     0.225038
     30 H                     0.227484
     31 H                     0.164175
     32 H                     0.156895
     33 H                     0.131280
     34 H                     0.174287
  ----------------------------------------
  Sum of atomic charges =    -0.000000

                    Cartesian Multipole Moments
 -----------------------------------------------------------------
    Charge (ESU x 10^10)
                -0.0000
    Dipole Moment (Debye)
         X      -3.1665      Y       0.4790      Z       2.3551
       Tot       3.9753
    Quadrupole Moments (Debye-Ang)
        XX     -92.5874     XY       0.9200     YY     -81.7667
        XZ       3.8743     YZ      -2.0597     ZZ     -90.5441

 Total job time:  174.39s(wall), 694.56s(cpu)
        *  Thank you very much for using Q-Chem.  Have a nice day.  *
