 Q-Chem 5.0, Q-Chem, Inc., Pleasanton, CA (2017)
 Q-Chem 5.0.1 for Intel X86 EM64T Linux

User input:
--------------------------------------------------------------
$molecule
0  1
C        +0.22270000        +1.04488000        +0.58595000
C        +0.62626000        -0.41353000        +0.99871000
C        +1.33008000        +1.39974000        -0.43491000
C        +2.63070000        +1.71700000        +0.32855000
C        +3.04336000        +0.29351000        +0.80300000
C        +1.94423000        -0.59299000        +0.15262000
O        +1.62840000        +0.13663000        -1.04376000
H        +3.37234000        +2.13782000        -0.35195000
H        +2.48236000        +2.42488000        +1.14651000
H        +4.02182000        +0.00994000        +0.41161000
H        +3.07359000        +0.18738000        +1.88928000
H        +1.03270000        +2.19943000        -1.08064000
H        +2.24339000        -1.61496000        +0.04786000
H        +0.81693000        -0.48905000        +2.04887000
H        -0.12524000        -1.15356000        +0.81843000
H        -0.74673000        +1.06811000        +0.13365000
H        +0.15552000        +1.72617000        +1.40828000
@C        +3.33804000        +2.85850000        +3.44347000
@C        +3.74160000        +1.40009000        +3.85623000
@C        +4.44542000        +3.21336000        +2.42261000
@C        +5.74604000        +3.53062000        +3.18607000
@C        +6.15870000        +2.10713000        +3.66052000
@C        +5.05957000        +1.22063000        +3.01014000
@O        +4.74374000        +1.95025000        +1.81376000
@H        +6.48768000        +3.95144000        +2.50557000
@H        +5.59770000        +4.23850000        +4.00403000
@H        +7.13716000        +1.82356000        +3.26913000
@H        +6.18893000        +2.00100000        +4.74680000
@H        +4.14804000        +4.01305000        +1.77688000
@H        +5.35873000        +0.19866000        +2.90538000
@H        +3.93227000        +1.32457000        +4.90639000
@H        +2.99010000        +0.66006000        +3.67595000
@H        +2.36861000        +2.88173000        +2.99117000
@H        +3.27086000        +3.53979000        +4.26580000
$end

$rem
JOBTYPE                   SP
METHOD                    B3LYP
DFT_D                     d3_op
BASIS                     6-311++G(d,p)
SYMMETRY                  False
THRESH                    12
SCF_CONVERGENCE           8
MAX_SUB_FILE_NUM          128
MEM_STATIC                400
MEM_TOTAL                 4000
$end
--------------------------------------------------------------

             Standard Nuclear Orientation (Angstroms)
    I     Atom           X                Y                Z
 ----------------------------------------------------------------
    1      C       0.2227000000     1.0448800000     0.5859500000
    2      C       0.6262600000    -0.4135300000     0.9987100000
    3      C       1.3300800000     1.3997400000    -0.4349100000
    4      C       2.6307000000     1.7170000000     0.3285500000
    5      C       3.0433600000     0.2935100000     0.8030000000
    6      C       1.9442300000    -0.5929900000     0.1526200000
    7      O       1.6284000000     0.1366300000    -1.0437600000
    8      H       3.3723400000     2.1378200000    -0.3519500000
    9      H       2.4823600000     2.4248800000     1.1465100000
   10      H       4.0218200000     0.0099400000     0.4116100000
   11      H       3.0735900000     0.1873800000     1.8892800000
   12      H       1.0327000000     2.1994300000    -1.0806400000
   13      H       2.2433900000    -1.6149600000     0.0478600000
   14      H       0.8169300000    -0.4890500000     2.0488700000
   15      H      -0.1252400000    -1.1535600000     0.8184300000
   16      H      -0.7467300000     1.0681100000     0.1336500000
   17      H       0.1555200000     1.7261700000     1.4082800000
   18      GH      3.3380400000     2.8585000000     3.4434700000
   19      GH      3.7416000000     1.4000900000     3.8562300000
   20      GH      4.4454200000     3.2133600000     2.4226100000
   21      GH      5.7460400000     3.5306200000     3.1860700000
   22      GH      6.1587000000     2.1071300000     3.6605200000
   23      GH      5.0595700000     1.2206300000     3.0101400000
   24      GH      4.7437400000     1.9502500000     1.8137600000
   25      GH      6.4876800000     3.9514400000     2.5055700000
   26      GH      5.5977000000     4.2385000000     4.0040300000
   27      GH      7.1371600000     1.8235600000     3.2691300000
   28      GH      6.1889300000     2.0010000000     4.7468000000
   29      GH      4.1480400000     4.0130500000     1.7768800000
   30      GH      5.3587300000     0.1986600000     2.9053800000
   31      GH      3.9322700000     1.3245700000     4.9063900000
   32      GH      2.9901000000     0.6600600000     3.6759500000
   33      GH      2.3686100000     2.8817300000     2.9911700000
   34      GH      3.2708600000     3.5397900000     4.2658000000
 ----------------------------------------------------------------

   12    -309.9598556461      6.33E-09 Convergence criterion met
 Total energy in the final basis set = -309.95985565

                    Orbital Energies (a.u.)
 --------------------------------------------------------------

 Alpha MOs
 -- Occupied --
-19.123 -10.221 -10.218 -10.168 -10.167 -10.165 -10.163  -1.050
 -0.798  -0.749  -0.747  -0.614  -0.578  -0.574  -0.527  -0.478
 -0.465  -0.431  -0.406  -0.395  -0.364  -0.360  -0.351  -0.339
 -0.317  -0.304  -0.264

          Ground-State Mulliken Net Atomic Charges

     Atom                 Charge (a.u.)
  ----------------------------------------
      1 C                    -0.382922
      2 C                    -0.374725
      3 C                    -0.131464
      4 C                    -0.218278
      5 C                    -0.225067
      6 C                    -0.124401
      7 O                    -0.121660
      8 H                     0.193508
      9 H                     0.064974
     10 H                     0.186807
     11 H                     0.059889
     12 H                     0.228503
     13 H                     0.227782
     14 H                     0.102404
     15 H                     0.184665
     16 H                     0.176640
     17 H                     0.112458
     18 GH                   -0.010221
     19 GH                   -0.001188
     20 GH                    0.001479
     21 GH                   -0.000652
     22 GH                   -0.002199
     23 GH                    0.001681
     24 GH                    0.027584
     25 GH                   -0.000337
     26 GH                    0.000434
     27 GH                   -0.000012
     28 GH                    0.000222
     29 GH                    0.005209
     30 GH                    0.005135
     31 GH                   -0.000447
     32 GH                    0.009872
     33 GH                    0.005026
     34 GH                   -0.000704
  ----------------------------------------
  Sum of atomic charges =     0.000000

                    Cartesian Multipole Moments
 -----------------------------------------------------------------
    Charge (ESU x 10^10)
                 0.0000
    Dipole Moment (Debye)
         X      -0.0154      Y       0.5154      Z       1.7168
       Tot       1.7926
    Quadrupole Moments (Debye-Ang)
        XX     -43.2394     XY      -0.0551     YY     -40.6286
        XZ       2.7810     YZ      -0.8548     ZZ     -46.2228

 Total job time:  158.09s(wall), 628.78s(cpu)
        *  Thank you very much for using Q-Chem.  Have a nice day.  *
