 Q-Chem 5.0, Q-Chem, Inc., Pleasanton, CA (2017)
 Q-Chem 5.0.1 for Intel X86 EM64T Linux

User input:
--------------------------------------------------------------
$molecule
0  1
C        +4.21846000        +3.37105000        +4.25103000
C        +4.62202000        +1.91264000        +4.66379000
C        +5.32584000        +3.72591000        +3.23017000
C        +6.62646000        +4.04317000        +3.99363000
C        +7.03912000        +2.61968000        +4.46808000
C        +5.93999000        +1.73318000        +3.81770000
O        +5.62416000        +2.46280000        +2.62132000
H        +7.36810000        +4.46399000        +3.31313000
H        +6.47812000        +4.75105000        +4.81159000
H        +8.01758000        +2.33611000        +4.07669000
H        +7.06935000        +2.51355000        +5.55436000
H        +5.02846000        +4.52560000        +2.58444000
H        +6.23915000        +0.71121000        +3.71294000
H        +4.81269000        +1.83712000        +5.71395000
H        +3.87052000        +1.17261000        +4.48351000
H        +3.24903000        +3.39428000        +3.79873000
H        +4.15128000        +4.05234000        +5.07336000
@C        +0.22270000        +1.04488000        +0.58595000
@C        +0.62626000        -0.41353000        +0.99871000
@C        +1.33008000        +1.39974000        -0.43491000
@C        +2.63070000        +1.71700000        +0.32855000
@C        +3.04336000        +0.29351000        +0.80300000
@C        +1.94423000        -0.59299000        +0.15262000
@O        +1.62840000        +0.13663000        -1.04376000
@H        +3.37234000        +2.13782000        -0.35195000
@H        +2.48236000        +2.42488000        +1.14651000
@H        +4.02182000        +0.00994000        +0.41161000
@H        +3.07359000        +0.18738000        +1.88928000
@H        +1.03270000        +2.19943000        -1.08064000
@H        +2.24339000        -1.61496000        +0.04786000
@H        +0.81693000        -0.48905000        +2.04887000
@H        -0.12524000        -1.15356000        +0.81843000
@H        -0.74673000        +1.06811000        +0.13365000
@H        +0.15552000        +1.72617000        +1.40828000
$end

$rem
JOBTYPE                   SP
METHOD                    B3LYP
DFT_D                     d3_op
BASIS                     6-311++G(d,p)
SYMMETRY                  False
THRESH                    12
SCF_CONVERGENCE           8
MAX_SUB_FILE_NUM          128
MEM_STATIC                400
MEM_TOTAL                 4000
$end
--------------------------------------------------------------

             Standard Nuclear Orientation (Angstroms)
    I     Atom           X                Y                Z
 ----------------------------------------------------------------
    1      C       4.2184600000     3.3710500000     4.2510300000
    2      C       4.6220200000     1.9126400000     4.6637900000
    3      C       5.3258400000     3.7259100000     3.2301700000
    4      C       6.6264600000     4.0431700000     3.9936300000
    5      C       7.0391200000     2.6196800000     4.4680800000
    6      C       5.9399900000     1.7331800000     3.8177000000
    7      O       5.6241600000     2.4628000000     2.6213200000
    8      H       7.3681000000     4.4639900000     3.3131300000
    9      H       6.4781200000     4.7510500000     4.8115900000
   10      H       8.0175800000     2.3361100000     4.0766900000
   11      H       7.0693500000     2.5135500000     5.5543600000
   12      H       5.0284600000     4.5256000000     2.5844400000
   13      H       6.2391500000     0.7112100000     3.7129400000
   14      H       4.8126900000     1.8371200000     5.7139500000
   15      H       3.8705200000     1.1726100000     4.4835100000
   16      H       3.2490300000     3.3942800000     3.7987300000
   17      H       4.1512800000     4.0523400000     5.0733600000
   18      GH      0.2227000000     1.0448800000     0.5859500000
   19      GH      0.6262600000    -0.4135300000     0.9987100000
   20      GH      1.3300800000     1.3997400000    -0.4349100000
   21      GH      2.6307000000     1.7170000000     0.3285500000
   22      GH      3.0433600000     0.2935100000     0.8030000000
   23      GH      1.9442300000    -0.5929900000     0.1526200000
   24      GH      1.6284000000     0.1366300000    -1.0437600000
   25      GH      3.3723400000     2.1378200000    -0.3519500000
   26      GH      2.4823600000     2.4248800000     1.1465100000
   27      GH      4.0218200000     0.0099400000     0.4116100000
   28      GH      3.0735900000     0.1873800000     1.8892800000
   29      GH      1.0327000000     2.1994300000    -1.0806400000
   30      GH      2.2433900000    -1.6149600000     0.0478600000
   31      GH      0.8169300000    -0.4890500000     2.0488700000
   32      GH     -0.1252400000    -1.1535600000     0.8184300000
   33      GH     -0.7467300000     1.0681100000     0.1336500000
   34      GH      0.1555200000     1.7261700000     1.4082800000
 ----------------------------------------------------------------

   12    -309.9597062721      6.21E-09 Convergence criterion met
 Total energy in the final basis set = -309.95970627

                    Orbital Energies (a.u.)
 --------------------------------------------------------------

 Alpha MOs
 -- Occupied --
-19.123 -10.221 -10.218 -10.168 -10.167 -10.165 -10.163  -1.050
 -0.798  -0.749  -0.747  -0.614  -0.578  -0.574  -0.527  -0.478
 -0.465  -0.431  -0.406  -0.395  -0.364  -0.360  -0.351  -0.339
 -0.317  -0.304  -0.264

          Ground-State Mulliken Net Atomic Charges

     Atom                 Charge (a.u.)
  ----------------------------------------
      1 C                    -0.335265
      2 C                    -0.394352
      3 C                     0.128950
      4 C                    -0.560417
      5 C                    -0.483351
      6 C                     0.172167
      7 O                    -0.083608
      8 H                     0.167702
      9 H                     0.124612
     10 H                     0.166678
     11 H                     0.124740
     12 H                     0.218709
     13 H                     0.223123
     14 H                     0.131881
     15 H                     0.141983
     16 H                     0.130133
     17 H                     0.143625
     18 GH                   -0.001344
     19 GH                   -0.000196
     20 GH                   -0.010336
     21 GH                    0.010145
     22 GH                   -0.007399
     23 GH                   -0.012221
     24 GH                   -0.000028
     25 GH                    0.002365
     26 GH                    0.000383
     27 GH                    0.001608
     28 GH                   -0.001290
     29 GH                   -0.000238
     30 GH                   -0.000173
     31 GH                    0.000494
     32 GH                   -0.000014
     33 GH                   -0.000111
     34 GH                    0.001047
  ----------------------------------------
  Sum of atomic charges =     0.000000

                    Cartesian Multipole Moments
 -----------------------------------------------------------------
    Charge (ESU x 10^10)
                 0.0000
    Dipole Moment (Debye)
         X      -0.0127      Y       0.5178      Z       1.7230
       Tot       1.7992
    Quadrupole Moments (Debye-Ang)
        XX     -43.3223     XY       1.9834     YY     -38.2178
        XZ       9.6033     YZ       5.0400     ZZ     -33.6040

 Total job time:  124.31s(wall), 493.97s(cpu)
        *  Thank you very much for using Q-Chem.  Have a nice day.  *
