 Q-Chem 5.0, Q-Chem, Inc., Pleasanton, CA (2017)
 Q-Chem 5.0.1 for Intel X86 EM64T Linux

User input:
--------------------------------------------------------------
$molecule
0  1
--
0  1
C        +0.22270000        +1.04488000        +0.58595000
C        +0.62626000        -0.41353000        +0.99871000
C        +1.33008000        +1.39974000        -0.43491000
C        +2.63070000        +1.71700000        +0.32855000
C        +3.04336000        +0.29351000        +0.80300000
C        +1.94423000        -0.59299000        +0.15262000
O        +1.62840000        +0.13663000        -1.04376000
H        +3.37234000        +2.13782000        -0.35195000
H        +2.48236000        +2.42488000        +1.14651000
H        +4.02182000        +0.00994000        +0.41161000
H        +3.07359000        +0.18738000        +1.88928000
H        +1.03270000        +2.19943000        -1.08064000
H        +2.24339000        -1.61496000        +0.04786000
H        +0.81693000        -0.48905000        +2.04887000
H        -0.12524000        -1.15356000        +0.81843000
H        -0.74673000        +1.06811000        +0.13365000
H        +0.15552000        +1.72617000        +1.40828000
--
0  1
C        +4.21846000        +3.37105000        +4.25103000
C        +4.62202000        +1.91264000        +4.66379000
C        +5.32584000        +3.72591000        +3.23017000
C        +6.62646000        +4.04317000        +3.99363000
C        +7.03912000        +2.61968000        +4.46808000
C        +5.93999000        +1.73318000        +3.81770000
O        +5.62416000        +2.46280000        +2.62132000
H        +7.36810000        +4.46399000        +3.31313000
H        +6.47812000        +4.75105000        +4.81159000
H        +8.01758000        +2.33611000        +4.07669000
H        +7.06935000        +2.51355000        +5.55436000
H        +5.02846000        +4.52560000        +2.58444000
H        +6.23915000        +0.71121000        +3.71294000
H        +4.81269000        +1.83712000        +5.71395000
H        +3.87052000        +1.17261000        +4.48351000
H        +3.24903000        +3.39428000        +3.79873000
H        +4.15128000        +4.05234000        +5.07336000
$end

$rem
JOBTYPE                   SP
METHOD                    B3LYP
DFT_D                     d3_op
BASIS                     6-311++G(d,p)
SYMMETRY                  False
THRESH                    12
SCF_CONVERGENCE           8
MAX_SUB_FILE_NUM          128
MEM_STATIC                400
MEM_TOTAL                 4000
$end
--------------------------------------------------------------

             Standard Nuclear Orientation (Angstroms)
    I     Atom           X                Y                Z
 ----------------------------------------------------------------
    1      C       3.5193907916    -0.5053488832     1.2560838437
    2      C       3.5667956198     1.0217287770     0.9011502991
    3      C       3.2135462667    -1.1384251719    -0.1223372686
    4      C       1.7238249124    -0.9218192757    -0.4524124659
    5      C       1.7143120027     0.6027845543    -0.7641936782
    6      C       3.2204163422     0.9662611016    -0.6357504243
    7      O       3.8664167165    -0.2513982469    -1.0399883063
    8      H       1.4447964862    -1.5069463063    -1.3298913018
    9      H       1.0605828739    -1.2048340799     0.3674472969
   10      H       1.3753773137     0.8002093731    -1.7825888696
   11      H       1.0875516472     1.1832540752    -0.0841876045
   12      H       3.4907578262    -2.1713906086    -0.1546227357
   13      H       3.4770451277     1.8633163915    -1.1595132689
   14      H       2.8373016492     1.5786002191     1.4512658222
   15      H       4.4918024420     1.5065535348     1.1339696760
   16      H       4.4576731973    -0.8454226121     1.6419405971
   17      H       2.8072901151    -0.7529005567     2.0153773581
   18      C      -2.3773213574    -0.4531392561     1.4459159788
   19      C      -2.3299165292     1.0739384042     1.0909824341
   20      C      -2.6831658823    -1.0862155448     0.0674948664
   21      C      -4.1728872366    -0.8696096486    -0.2625803308
   22      C      -4.1824001463     0.6549941814    -0.5743615431
   23      C      -2.6762958068     1.0184707287    -0.4459182893
   24      O      -2.0302954325    -0.1991886198    -0.8501561713
   25      H      -4.4519156628    -1.4547366791    -1.1400591667
   26      H      -4.8361292751    -1.1526244528     0.5572794319
   27      H      -4.5213348353     0.8524190003    -1.5927567346
   28      H      -4.8091605018     1.2354637024     0.1056445305
   29      H      -2.4059543229    -2.1191809814     0.0352093993
   30      H      -2.4196670213     1.9155260186    -0.9696811339
   31      H      -3.0594104998     1.6308098463     1.6410979572
   32      H      -1.4049097070     1.5587631620     1.3238018111
   33      H      -1.4390389517    -0.7932129849     1.8317727321
   34      H      -3.0894220339    -0.7006909295     2.2052094931
 ----------------------------------------------------------------

   13    -619.9212590207      6.33E-09 Convergence criterion met
 Total energy in the final basis set = -619.92125902

                    Orbital Energies (a.u.)
 --------------------------------------------------------------

 Alpha MOs
 -- Occupied --
-19.126 -19.117 -10.225 -10.222 -10.215 -10.212 -10.171 -10.170
-10.168 -10.167 -10.160 -10.159 -10.159 -10.159  -1.053  -1.044
 -0.801  -0.791  -0.752  -0.750  -0.742  -0.741  -0.617  -0.608
 -0.581  -0.577  -0.572  -0.567  -0.530  -0.520  -0.481  -0.471
 -0.468  -0.459  -0.434  -0.424  -0.409  -0.399  -0.398  -0.389
 -0.368  -0.363  -0.358  -0.355  -0.353  -0.345  -0.342  -0.333
 -0.321  -0.311  -0.308  -0.297  -0.268  -0.258

          Ground-State Mulliken Net Atomic Charges

     Atom                 Charge (a.u.)
  ----------------------------------------
      1 C                    -0.453150
      2 C                    -0.434582
      3 C                     0.077104
      4 C                    -0.333613
      5 C                    -0.314307
      6 C                     0.060591
      7 O                    -0.143383
      8 H                     0.183314
      9 H                     0.069997
     10 H                     0.174477
     11 H                     0.060029
     12 H                     0.229864
     13 H                     0.232204
     14 H                     0.107716
     15 H                     0.175515
     16 H                     0.169236
     17 H                     0.115290
     18 C                    -0.323305
     19 C                    -0.384860
     20 C                     0.110845
     21 C                    -0.561666
     22 C                    -0.484133
     23 C                     0.154188
     24 O                    -0.073671
     25 H                     0.168842
     26 H                     0.124907
     27 H                     0.167694
     28 H                     0.125303
     29 H                     0.221394
     30 H                     0.225811
     31 H                     0.132575
     32 H                     0.143556
     33 H                     0.131451
     34 H                     0.144768
  ----------------------------------------
  Sum of atomic charges =    -0.000000

                    Cartesian Multipole Moments
 -----------------------------------------------------------------
    Charge (ESU x 10^10)
                -0.0000
    Dipole Moment (Debye)
         X      -2.7536      Y       0.5697      Z       2.3953
       Tot       3.6938
    Quadrupole Moments (Debye-Ang)
        XX     -91.9708     XY       1.0708     YY     -81.5393
        XZ       3.8454     YZ      -2.4215     ZZ     -90.1566

 Total job time:  137.20s(wall), 546.01s(cpu)
        *  Thank you very much for using Q-Chem.  Have a nice day.  *
