 Q-Chem 5.0, Q-Chem, Inc., Pleasanton, CA (2017)
 Q-Chem 5.0.1 for Intel X86 EM64T Linux

User input:
--------------------------------------------------------------
$molecule
0  1
--
0  1
C        +0.22270000        +1.04488000        +0.58595000
C        +0.62626000        -0.41353000        +0.99871000
C        +1.33008000        +1.39974000        -0.43491000
C        +2.63070000        +1.71700000        +0.32855000
C        +3.04336000        +0.29351000        +0.80300000
C        +1.94423000        -0.59299000        +0.15262000
O        +1.62840000        +0.13663000        -1.04376000
H        +3.37234000        +2.13782000        -0.35195000
H        +2.48236000        +2.42488000        +1.14651000
H        +4.02182000        +0.00994000        +0.41161000
H        +3.07359000        +0.18738000        +1.88928000
H        +1.03270000        +2.19943000        -1.08064000
C        +2.35450000        -2.01267000        -0.16812000
H        +3.25743000        -2.00195000        -0.74215000
H        +1.57951000        -2.48932000        -0.73123000
H        +2.51687000        -2.55129000        +0.74206000
H        -0.74673000        +1.06811000        +0.13365000
H        +0.15552000        +1.72617000        +1.40828000
H        +0.81693000        -0.48905000        +2.04887000
H        -0.12524000        -1.15356000        +0.81843000
--
0  1
C        +4.48943000        +3.14792000        +4.07625000
C        +4.89299000        +1.68951000        +4.48901000
C        +5.59681000        +3.50278000        +3.05539000
C        +6.89743000        +3.82004000        +3.81885000
C        +7.31009000        +2.39655000        +4.29330000
C        +6.21096000        +1.51005000        +3.64292000
O        +5.89513000        +2.23967000        +2.44654000
H        +7.63907000        +4.24086000        +3.13835000
H        +6.74909000        +4.52792000        +4.63681000
H        +8.28855000        +2.11298000        +3.90191000
H        +7.34032000        +2.29042000        +5.37958000
H        +5.29943000        +4.30247000        +2.40966000
C        +6.62123000        +0.09037000        +3.32218000
H        +7.52416000        +0.10109000        +2.74815000
H        +5.84624000        -0.38628000        +2.75907000
H        +6.78360000        -0.44825000        +4.23236000
H        +3.52000000        +3.17115000        +3.62395000
H        +4.42225000        +3.82921000        +4.89858000
H        +5.08366000        +1.61399000        +5.53917000
H        +4.14149000        +0.94948000        +4.30873000
$end

$rem
JOBTYPE                   SP
METHOD                    B3LYP
DFT_D                     d3_op
BASIS                     6-311++G(d,p)
SYMMETRY                  False
THRESH                    12
SCF_CONVERGENCE           8
MAX_SUB_FILE_NUM          128
MEM_STATIC                400
MEM_TOTAL                 4000
$end
--------------------------------------------------------------

             Standard Nuclear Orientation (Angstroms)
    I     Atom           X                Y                Z
 ----------------------------------------------------------------
    1      C       3.4868671337    -1.5020183680     0.8185995135
    2      C       3.5092435190    -0.0123256300     1.3090136885
    3      C       3.1258911444    -1.3345976908    -0.6767392025
    4      C       1.6219800603    -1.0195715177    -0.7956821516
    5      C       1.5893691105     0.4439937321    -0.2678297632
    6      C       3.0972767947     0.7295281102    -0.0195402422
    7      O       3.7329515714    -0.0820509695    -1.0198781919
    8      H       1.3090904091    -1.0708462821    -1.8395550254
    9      H       0.9965128066    -1.7058457124    -0.2212469023
   10      H       1.2055938815     1.1324724453    -1.0226116414
   11      H       0.9888454749     0.5687086513     0.6354969885
   12      H       3.4079946751    -2.1920845354    -1.2512303709
   13      C       3.5178228122     2.1766305312    -0.1449298476
   14      H       3.1818034086     2.5656721834    -1.0833569878
   15      H       4.5844028883     2.2439410018    -0.0922626251
   16      H       3.0848349509     2.7442354526     0.6520954461
   17      H       4.4430509937    -1.9668190373     0.9393563414
   18      H       2.8097513837    -2.1278918531     1.3614553756
   19      H       2.8006328294     0.1568945006     2.0926780190
   20      H       4.4403371276     0.3063835523     1.7289978291
   21      C      -2.4101382485    -1.4016392588     0.9773690980
   22      C      -2.3877618632     0.0880534793     1.4677832730
   23      C      -2.7711142378    -1.2342185815    -0.5179696180
   24      C      -4.2750253219    -0.9191924084    -0.6369125672
   25      C      -4.3076362717     0.5443728413    -0.1090601787
   26      C      -2.7997285875     0.8299072194     0.1392293422
   27      O      -2.1640538109     0.0183281398    -0.8611086074
   28      H      -4.5879149732    -0.9704671728    -1.6807854410
   29      H      -4.9004925756    -1.6054666032    -0.0624773178
   30      H      -4.6914115008     1.2328515545    -0.8638420569
   31      H      -4.9081599073     0.6690877606     0.7942665729
   32      H      -2.4890107071    -2.0917054261    -1.0924607864
   33      C      -2.3791825701     2.2770096404     0.0138397368
   34      H      -2.7152019736     2.6660512927    -0.9245874033
   35      H      -1.3126024939     2.3443201111     0.0665069594
   36      H      -2.8121704313     2.8446145619     0.8108650306
   37      H      -1.4539543885    -1.8664399280     1.0981259259
   38      H      -3.0872539986    -2.0275127439     1.5202249601
   39      H      -3.0963725528     0.2572736099     2.2514476035
   40      H      -1.4566682546     0.4067626615     1.8877674136
 ----------------------------------------------------------------

   13    -698.5952090491      5.79E-09 Convergence criterion met
 Total energy in the final basis set = -698.59520905

                    Orbital Energies (a.u.)
 --------------------------------------------------------------

 Alpha MOs
 -- Occupied --
-19.121 -19.114 -10.228 -10.220 -10.219 -10.211 -10.168 -10.168
-10.166 -10.166 -10.159 -10.159 -10.159 -10.159 -10.157 -10.151
 -1.052  -1.044  -0.801  -0.793  -0.778  -0.771  -0.751  -0.743
 -0.686  -0.679  -0.617  -0.609  -0.578  -0.570  -0.559  -0.551
 -0.506  -0.498  -0.485  -0.477  -0.467  -0.459  -0.443  -0.436
 -0.420  -0.413  -0.408  -0.399  -0.395  -0.388  -0.380  -0.373
 -0.363  -0.355  -0.351  -0.346  -0.343  -0.339  -0.338  -0.331
 -0.319  -0.311  -0.304  -0.296  -0.265  -0.257

          Ground-State Mulliken Net Atomic Charges

     Atom                 Charge (a.u.)
  ----------------------------------------
      1 C                    -0.653853
      2 C                    -0.239658
      3 C                     0.381051
      4 C                    -0.584256
      5 C                    -0.132269
      6 C                    -0.031867
      7 O                    -0.072564
      8 H                     0.185273
      9 H                     0.072445
     10 H                     0.167936
     11 H                     0.026192
     12 H                     0.251304
     13 C                    -0.445989
     14 H                     0.147808
     15 H                     0.157433
     16 H                     0.138819
     17 H                     0.170713
     18 H                     0.116564
     19 H                     0.134573
     20 H                     0.167836
     21 C                    -0.412587
     22 C                    -0.356256
     23 C                     0.185893
     24 C                    -0.662419
     25 C                    -0.418892
     26 C                     0.242066
     27 O                    -0.044717
     28 H                     0.165699
     29 H                     0.126824
     30 H                     0.153376
     31 H                     0.141341
     32 H                     0.234136
     33 C                    -0.342991
     34 H                     0.155662
     35 H                     0.149040
     36 H                     0.137653
     37 H                     0.129250
     38 H                     0.151176
     39 H                     0.148813
     40 H                     0.159443
  ----------------------------------------
  Sum of atomic charges =    -0.000000

                    Cartesian Multipole Moments
 -----------------------------------------------------------------
    Charge (ESU x 10^10)
                -0.0000
    Dipole Moment (Debye)
         X      -2.4079      Y      -0.6404      Z       2.2876
       Tot       3.3825
    Quadrupole Moments (Debye-Ang)
        XX    -103.9525     XY      -0.1798     YY     -95.2863
        XZ       3.3547     YZ       1.5866     ZZ    -103.1215

 Total job time:  212.19s(wall), 843.38s(cpu)
        *  Thank you very much for using Q-Chem.  Have a nice day.  *
