 Q-Chem 5.0, Q-Chem, Inc., Pleasanton, CA (2017)
 Q-Chem 5.0.1 for Intel X86 EM64T Linux

User input:
--------------------------------------------------------------
$molecule
0  1
C        +4.48943000        +3.14792000        +4.07625000
C        +4.89299000        +1.68951000        +4.48901000
C        +5.59681000        +3.50278000        +3.05539000
C        +6.89743000        +3.82004000        +3.81885000
C        +7.31009000        +2.39655000        +4.29330000
C        +6.21096000        +1.51005000        +3.64292000
O        +5.89513000        +2.23967000        +2.44654000
H        +7.63907000        +4.24086000        +3.13835000
H        +6.74909000        +4.52792000        +4.63681000
H        +8.28855000        +2.11298000        +3.90191000
H        +7.34032000        +2.29042000        +5.37958000
H        +5.29943000        +4.30247000        +2.40966000
C        +6.62123000        +0.09037000        +3.32218000
H        +7.52416000        +0.10109000        +2.74815000
H        +5.84624000        -0.38628000        +2.75907000
H        +6.78360000        -0.44825000        +4.23236000
H        +3.52000000        +3.17115000        +3.62395000
H        +4.42225000        +3.82921000        +4.89858000
H        +5.08366000        +1.61399000        +5.53917000
H        +4.14149000        +0.94948000        +4.30873000
@C        +0.22270000        +1.04488000        +0.58595000
@C        +0.62626000        -0.41353000        +0.99871000
@C        +1.33008000        +1.39974000        -0.43491000
@C        +2.63070000        +1.71700000        +0.32855000
@C        +3.04336000        +0.29351000        +0.80300000
@C        +1.94423000        -0.59299000        +0.15262000
@O        +1.62840000        +0.13663000        -1.04376000
@H        +3.37234000        +2.13782000        -0.35195000
@H        +2.48236000        +2.42488000        +1.14651000
@H        +4.02182000        +0.00994000        +0.41161000
@H        +3.07359000        +0.18738000        +1.88928000
@H        +1.03270000        +2.19943000        -1.08064000
@C        +2.35450000        -2.01267000        -0.16812000
@H        +3.25743000        -2.00195000        -0.74215000
@H        +1.57951000        -2.48932000        -0.73123000
@H        +2.51687000        -2.55129000        +0.74206000
@H        -0.74673000        +1.06811000        +0.13365000
@H        +0.15552000        +1.72617000        +1.40828000
@H        +0.81693000        -0.48905000        +2.04887000
@H        -0.12524000        -1.15356000        +0.81843000
$end

$rem
JOBTYPE                   SP
METHOD                    B3LYP
DFT_D                     d3_op
BASIS                     6-311++G(d,p)
SYMMETRY                  False
THRESH                    12
SCF_CONVERGENCE           8
MAX_SUB_FILE_NUM          128
MEM_STATIC                400
MEM_TOTAL                 4000
$end
--------------------------------------------------------------

             Standard Nuclear Orientation (Angstroms)
    I     Atom           X                Y                Z
 ----------------------------------------------------------------
    1      C       4.4894300000     3.1479200000     4.0762500000
    2      C       4.8929900000     1.6895100000     4.4890100000
    3      C       5.5968100000     3.5027800000     3.0553900000
    4      C       6.8974300000     3.8200400000     3.8188500000
    5      C       7.3100900000     2.3965500000     4.2933000000
    6      C       6.2109600000     1.5100500000     3.6429200000
    7      O       5.8951300000     2.2396700000     2.4465400000
    8      H       7.6390700000     4.2408600000     3.1383500000
    9      H       6.7490900000     4.5279200000     4.6368100000
   10      H       8.2885500000     2.1129800000     3.9019100000
   11      H       7.3403200000     2.2904200000     5.3795800000
   12      H       5.2994300000     4.3024700000     2.4096600000
   13      C       6.6212300000     0.0903700000     3.3221800000
   14      H       7.5241600000     0.1010900000     2.7481500000
   15      H       5.8462400000    -0.3862800000     2.7590700000
   16      H       6.7836000000    -0.4482500000     4.2323600000
   17      H       3.5200000000     3.1711500000     3.6239500000
   18      H       4.4222500000     3.8292100000     4.8985800000
   19      H       5.0836600000     1.6139900000     5.5391700000
   20      H       4.1414900000     0.9494800000     4.3087300000
   21      GH      0.2227000000     1.0448800000     0.5859500000
   22      GH      0.6262600000    -0.4135300000     0.9987100000
   23      GH      1.3300800000     1.3997400000    -0.4349100000
   24      GH      2.6307000000     1.7170000000     0.3285500000
   25      GH      3.0433600000     0.2935100000     0.8030000000
   26      GH      1.9442300000    -0.5929900000     0.1526200000
   27      GH      1.6284000000     0.1366300000    -1.0437600000
   28      GH      3.3723400000     2.1378200000    -0.3519500000
   29      GH      2.4823600000     2.4248800000     1.1465100000
   30      GH      4.0218200000     0.0099400000     0.4116100000
   31      GH      3.0735900000     0.1873800000     1.8892800000
   32      GH      1.0327000000     2.1994300000    -1.0806400000
   33      GH      2.3545000000    -2.0126700000    -0.1681200000
   34      GH      3.2574300000    -2.0019500000    -0.7421500000
   35      GH      1.5795100000    -2.4893200000    -0.7312300000
   36      GH      2.5168700000    -2.5512900000     0.7420600000
   37      GH     -0.7467300000     1.0681100000     0.1336500000
   38      GH      0.1555200000     1.7261700000     1.4082800000
   39      GH      0.8169300000    -0.4890500000     2.0488700000
   40      GH     -0.1252400000    -1.1535600000     0.8184300000
 ----------------------------------------------------------------

   13    -349.2962147206      2.61E-09 Convergence criterion met
 Total energy in the final basis set = -349.29621472

                    Orbital Energies (a.u.)
 --------------------------------------------------------------

 Alpha MOs
 -- Occupied --
-19.119 -10.225 -10.216 -10.166 -10.166 -10.163 -10.162 -10.154
 -1.049  -0.798  -0.775  -0.748  -0.684  -0.615  -0.575  -0.556
 -0.503  -0.482  -0.465  -0.441  -0.418  -0.405  -0.392  -0.377
 -0.360  -0.348  -0.344  -0.336  -0.316  -0.301  -0.262

          Ground-State Mulliken Net Atomic Charges

     Atom                 Charge (a.u.)
  ----------------------------------------
      1 C                    -0.417593
      2 C                    -0.374457
      3 C                     0.205495
      4 C                    -0.664725
      5 C                    -0.416215
      6 C                     0.276037
      7 O                    -0.053565
      8 H                     0.164927
      9 H                     0.126689
     10 H                     0.152361
     11 H                     0.140623
     12 H                     0.232086
     13 C                    -0.355176
     14 H                     0.153739
     15 H                     0.143560
     16 H                     0.137918
     17 H                     0.125419
     18 H                     0.151135
     19 H                     0.147799
     20 H                     0.159427
     21 GH                   -0.001359
     22 GH                    0.001931
     23 GH                   -0.012509
     24 GH                    0.016808
     25 GH                   -0.024099
     26 GH                   -0.013462
     27 GH                    0.000107
     28 GH                    0.002737
     29 GH                   -0.003627
     30 GH                    0.006717
     31 GH                   -0.009635
     32 GH                   -0.000300
     33 GH                   -0.001023
     34 GH                   -0.000467
     35 GH                   -0.000011
     36 GH                    0.000868
     37 GH                   -0.000047
     38 GH                    0.000807
     39 GH                    0.001054
     40 GH                    0.000025
  ----------------------------------------
  Sum of atomic charges =    -0.000000

                    Cartesian Multipole Moments
 -----------------------------------------------------------------
    Charge (ESU x 10^10)
                -0.0000
    Dipole Moment (Debye)
         X      -0.0066      Y       0.4044      Z       1.6168
       Tot       1.6666
    Quadrupole Moments (Debye-Ang)
        XX     -49.8426     XY       1.6377     YY     -45.9135
        XZ       9.4165     YZ       4.1347     ZZ     -41.3732

 Total job time:  194.97s(wall), 774.36s(cpu)
        *  Thank you very much for using Q-Chem.  Have a nice day.  *
