 Q-Chem 5.0, Q-Chem, Inc., Pleasanton, CA (2017)
 Q-Chem 5.0.1 for Intel X86 EM64T Linux

User input:
--------------------------------------------------------------
$molecule
0  1
--
0  1
C        +0.22270000        +1.04488000        +0.58595000
C        +0.62626000        -0.41353000        +0.99871000
C        +1.33008000        +1.39974000        -0.43491000
C        +2.63070000        +1.71700000        +0.32855000
C        +3.04336000        +0.29351000        +0.80300000
C        +1.94423000        -0.59299000        +0.15262000
O        +1.62840000        +0.13663000        -1.04376000
H        +3.37234000        +2.13782000        -0.35195000
H        +2.48236000        +2.42488000        +1.14651000
H        +4.02182000        +0.00994000        +0.41161000
H        +3.07359000        +0.18738000        +1.88928000
H        +1.03270000        +2.19943000        -1.08064000
C        +2.35450000        -2.01267000        -0.16812000
H        +3.25743000        -2.00195000        -0.74215000
H        +1.57951000        -2.48932000        -0.73123000
H        +2.51687000        -2.55129000        +0.74206000
H        -0.74673000        +1.06811000        +0.13365000
H        +0.15552000        +1.72617000        +1.40828000
H        +0.81693000        -0.48905000        +2.04887000
H        -0.12524000        -1.15356000        +0.81843000
--
0  1
C        +3.54931000        +2.68454000        +3.30720000
C        +3.95287000        +1.22613000        +3.71996000
C        +4.65669000        +3.03940000        +2.28634000
C        +5.95731000        +3.35666000        +3.04980000
C        +6.36997000        +1.93317000        +3.52425000
C        +5.27084000        +1.04667000        +2.87387000
O        +4.95501000        +1.77629000        +1.67749000
H        +6.69895000        +3.77748000        +2.36930000
H        +5.80897000        +4.06454000        +3.86776000
H        +7.34843000        +1.64960000        +3.13286000
H        +6.40020000        +1.82704000        +4.61053000
H        +4.35931000        +3.83909000        +1.64061000
C        +5.68111000        -0.37301000        +2.55313000
H        +6.58404000        -0.36229000        +1.97910000
H        +4.90612000        -0.84966000        +1.99002000
H        +5.84348000        -0.91163000        +3.46331000
H        +2.57988000        +2.70777000        +2.85490000
H        +3.48213000        +3.36583000        +4.12953000
H        +4.14354000        +1.15061000        +4.77012000
H        +3.20137000        +0.48610000        +3.53968000
$end

$rem
JOBTYPE                   SP
METHOD                    B3LYP
DFT_D                     d3_op
BASIS                     6-311++G(d,p)
SYMMETRY                  False
THRESH                    12
SCF_CONVERGENCE           8
MAX_SUB_FILE_NUM          128
MEM_STATIC                400
MEM_TOTAL                 4000
$end
--------------------------------------------------------------

             Standard Nuclear Orientation (Angstroms)
    I     Atom           X                Y                Z
 ----------------------------------------------------------------
    1      C       2.8316548824    -1.5297987062     0.7830477452
    2      C       2.8815431297    -0.0420745633     1.2773950490
    3      C       2.4473962622    -1.3530373999    -0.7053984168
    4      C       0.9458480479    -1.0184094763    -0.7976728794
    5      C       0.9410645299     0.4437748547    -0.2650295106
    6      C       2.4565351941     0.7091945983    -0.0417266292
    7      O       3.0645627895    -0.1072846441    -1.0551777270
    8      H       0.6145576863    -1.0623694752    -1.8361880824
    9      H       0.3215046301    -1.6984355690    -0.2146486761
   10      H       0.5533466417     1.1394962286    -1.0111050146
   11      H       0.3576957364     0.5733067981     0.6487997921
   12      H       2.7086100256    -2.2122422981    -1.2871548144
   13      C       2.8934464376     2.1511844608    -0.1700259853
   14      H       2.5464907502     2.5474648593    -1.1014182447
   15      H       3.9615470193     2.2046683264    -0.1354106971
   16      H       2.4814540750     2.7217596950     0.6359574817
   17      H       3.7837066494    -2.0071820180     0.8860625705
   18      H       2.1559122581    -2.1486681770     1.3355586765
   19      H       2.1886420519     0.1337212560     2.0735597752
   20      H       3.8236876544     0.2633577192     1.6823300373
   21      C      -1.7618479692    -1.3930762159     0.9856781572
   22      C      -1.7119597218     0.0946479270     1.4800254611
   23      C      -2.1461065893    -1.2163149096    -0.5027680047
   24      C      -3.6476548037    -0.8816869860    -0.5950424673
   25      C      -3.6524383216     0.5804973450    -0.0623990985
   26      C      -2.1369676574     0.8459170886     0.1609037829
   27      O      -1.5289400620     0.0294378462    -0.8525473149
   28      H      -3.9789451653    -0.9256469849    -1.6335576703
   29      H      -4.2719982214    -1.5617130787    -0.0120182640
   30      H      -4.0401562098     1.2762187189    -0.8084746025
   31      H      -4.2358071151     0.7100292884     0.8514302042
   32      H      -1.8848928260    -2.0755198078    -1.0845244023
   33      C      -1.7000564139     2.2879069511     0.0326044268
   34      H      -2.0470121013     2.6841873496    -0.8987878326
   35      H      -0.6319558322     2.3413908167     0.0672197150
   36      H      -2.1120487766     2.8584821853     0.8385878937
   37      H      -0.8097962021    -1.8704595277     1.0886929826
   38      H      -2.4375905935    -2.0119456867     1.5381890886
   39      H      -2.4048607996     0.2704437463     2.2761901873
   40      H      -0.7698151971     0.4000802095     1.8849604494
 ----------------------------------------------------------------

   13    -698.5741624755      6.94E-09 Convergence criterion met
 Total energy in the final basis set = -698.57416248

                    Orbital Energies (a.u.)
 --------------------------------------------------------------

 Alpha MOs
 -- Occupied --
-19.122 -19.108 -10.231 -10.222 -10.213 -10.204 -10.171 -10.171
-10.170 -10.169 -10.157 -10.156 -10.155 -10.150 -10.147 -10.147
 -1.056  -1.038  -0.805  -0.789  -0.782  -0.766  -0.756  -0.736
 -0.689  -0.675  -0.624  -0.605  -0.582  -0.568  -0.563  -0.546
 -0.510  -0.495  -0.493  -0.479  -0.464  -0.450  -0.448  -0.431
 -0.423  -0.414  -0.413  -0.399  -0.393  -0.384  -0.381  -0.371
 -0.366  -0.355  -0.352  -0.347  -0.343  -0.337  -0.331  -0.323
 -0.320  -0.306  -0.303  -0.289  -0.268  -0.246

          Ground-State Mulliken Net Atomic Charges

     Atom                 Charge (a.u.)
  ----------------------------------------
      1 C                    -0.559988
      2 C                    -0.161508
      3 C                    -0.007695
      4 C                    -0.134441
      5 C                    -0.120804
      6 C                    -0.238080
      7 O                    -0.034886
      8 H                     0.215230
      9 H                     0.038350
     10 H                     0.218035
     11 H                    -0.142582
     12 H                     0.236440
     13 C                    -0.535592
     14 H                     0.147173
     15 H                     0.164214
     16 H                     0.150325
     17 H                     0.171467
     18 H                     0.112828
     19 H                     0.120006
     20 H                     0.170556
     21 C                    -0.395678
     22 C                    -0.431852
     23 C                     0.207530
     24 C                    -0.680607
     25 C                    -0.462325
     26 C                     0.315870
     27 O                     0.092415
     28 H                     0.162256
     29 H                     0.130834
     30 H                     0.159620
     31 H                     0.134066
     32 H                     0.235852
     33 C                    -0.403062
     34 H                     0.159528
     35 H                     0.122586
     36 H                     0.145660
     37 H                     0.117063
     38 H                     0.180940
     39 H                     0.172897
     40 H                     0.227361
  ----------------------------------------
  Sum of atomic charges =    -0.000000

                    Cartesian Multipole Moments
 -----------------------------------------------------------------
    Charge (ESU x 10^10)
                -0.0000
    Dipole Moment (Debye)
         X      -2.8391      Y      -0.5949      Z       2.2291
       Tot       3.6583
    Quadrupole Moments (Debye-Ang)
        XX    -104.7456     XY       0.0875     YY     -95.7576
        XZ       3.3998     YZ       1.4894     ZZ    -103.2919

 Total job time:  264.97s(wall), 1051.98s(cpu)
        *  Thank you very much for using Q-Chem.  Have a nice day.  *
