 Q-Chem 5.0, Q-Chem, Inc., Pleasanton, CA (2017)
 Q-Chem 5.0.1 for Intel X86 EM64T Linux

User input:
--------------------------------------------------------------
$molecule
0  1
C        +3.54931000        +2.68454000        +3.30720000
C        +3.95287000        +1.22613000        +3.71996000
C        +4.65669000        +3.03940000        +2.28634000
C        +5.95731000        +3.35666000        +3.04980000
C        +6.36997000        +1.93317000        +3.52425000
C        +5.27084000        +1.04667000        +2.87387000
O        +4.95501000        +1.77629000        +1.67749000
H        +6.69895000        +3.77748000        +2.36930000
H        +5.80897000        +4.06454000        +3.86776000
H        +7.34843000        +1.64960000        +3.13286000
H        +6.40020000        +1.82704000        +4.61053000
H        +4.35931000        +3.83909000        +1.64061000
C        +5.68111000        -0.37301000        +2.55313000
H        +6.58404000        -0.36229000        +1.97910000
H        +4.90612000        -0.84966000        +1.99002000
H        +5.84348000        -0.91163000        +3.46331000
H        +2.57988000        +2.70777000        +2.85490000
H        +3.48213000        +3.36583000        +4.12953000
H        +4.14354000        +1.15061000        +4.77012000
H        +3.20137000        +0.48610000        +3.53968000
@C        +0.22270000        +1.04488000        +0.58595000
@C        +0.62626000        -0.41353000        +0.99871000
@C        +1.33008000        +1.39974000        -0.43491000
@C        +2.63070000        +1.71700000        +0.32855000
@C        +3.04336000        +0.29351000        +0.80300000
@C        +1.94423000        -0.59299000        +0.15262000
@O        +1.62840000        +0.13663000        -1.04376000
@H        +3.37234000        +2.13782000        -0.35195000
@H        +2.48236000        +2.42488000        +1.14651000
@H        +4.02182000        +0.00994000        +0.41161000
@H        +3.07359000        +0.18738000        +1.88928000
@H        +1.03270000        +2.19943000        -1.08064000
@C        +2.35450000        -2.01267000        -0.16812000
@H        +3.25743000        -2.00195000        -0.74215000
@H        +1.57951000        -2.48932000        -0.73123000
@H        +2.51687000        -2.55129000        +0.74206000
@H        -0.74673000        +1.06811000        +0.13365000
@H        +0.15552000        +1.72617000        +1.40828000
@H        +0.81693000        -0.48905000        +2.04887000
@H        -0.12524000        -1.15356000        +0.81843000
$end

$rem
JOBTYPE                   SP
METHOD                    B3LYP
DFT_D                     d3_op
BASIS                     6-311++G(d,p)
SYMMETRY                  False
THRESH                    12
SCF_CONVERGENCE           8
MAX_SUB_FILE_NUM          128
MEM_STATIC                400
MEM_TOTAL                 4000
$end
--------------------------------------------------------------

             Standard Nuclear Orientation (Angstroms)
    I     Atom           X                Y                Z
 ----------------------------------------------------------------
    1      C       3.5493100000     2.6845400000     3.3072000000
    2      C       3.9528700000     1.2261300000     3.7199600000
    3      C       4.6566900000     3.0394000000     2.2863400000
    4      C       5.9573100000     3.3566600000     3.0498000000
    5      C       6.3699700000     1.9331700000     3.5242500000
    6      C       5.2708400000     1.0466700000     2.8738700000
    7      O       4.9550100000     1.7762900000     1.6774900000
    8      H       6.6989500000     3.7774800000     2.3693000000
    9      H       5.8089700000     4.0645400000     3.8677600000
   10      H       7.3484300000     1.6496000000     3.1328600000
   11      H       6.4002000000     1.8270400000     4.6105300000
   12      H       4.3593100000     3.8390900000     1.6406100000
   13      C       5.6811100000    -0.3730100000     2.5531300000
   14      H       6.5840400000    -0.3622900000     1.9791000000
   15      H       4.9061200000    -0.8496600000     1.9900200000
   16      H       5.8434800000    -0.9116300000     3.4633100000
   17      H       2.5798800000     2.7077700000     2.8549000000
   18      H       3.4821300000     3.3658300000     4.1295300000
   19      H       4.1435400000     1.1506100000     4.7701200000
   20      H       3.2013700000     0.4861000000     3.5396800000
   21      GH      0.2227000000     1.0448800000     0.5859500000
   22      GH      0.6262600000    -0.4135300000     0.9987100000
   23      GH      1.3300800000     1.3997400000    -0.4349100000
   24      GH      2.6307000000     1.7170000000     0.3285500000
   25      GH      3.0433600000     0.2935100000     0.8030000000
   26      GH      1.9442300000    -0.5929900000     0.1526200000
   27      GH      1.6284000000     0.1366300000    -1.0437600000
   28      GH      3.3723400000     2.1378200000    -0.3519500000
   29      GH      2.4823600000     2.4248800000     1.1465100000
   30      GH      4.0218200000     0.0099400000     0.4116100000
   31      GH      3.0735900000     0.1873800000     1.8892800000
   32      GH      1.0327000000     2.1994300000    -1.0806400000
   33      GH      2.3545000000    -2.0126700000    -0.1681200000
   34      GH      3.2574300000    -2.0019500000    -0.7421500000
   35      GH      1.5795100000    -2.4893200000    -0.7312300000
   36      GH      2.5168700000    -2.5512900000     0.7420600000
   37      GH     -0.7467300000     1.0681100000     0.1336500000
   38      GH      0.1555200000     1.7261700000     1.4082800000
   39      GH      0.8169300000    -0.4890500000     2.0488700000
   40      GH     -0.1252400000    -1.1535600000     0.8184300000
 ----------------------------------------------------------------

   13    -349.2969127656      2.62E-09 Convergence criterion met
 Total energy in the final basis set = -349.29691277

                    Orbital Energies (a.u.)
 --------------------------------------------------------------

 Alpha MOs
 -- Occupied --
-19.119 -10.225 -10.216 -10.166 -10.166 -10.163 -10.162 -10.154
 -1.049  -0.798  -0.775  -0.748  -0.684  -0.614  -0.575  -0.556
 -0.503  -0.482  -0.464  -0.440  -0.418  -0.405  -0.392  -0.377
 -0.360  -0.348  -0.344  -0.336  -0.316  -0.301  -0.262

          Ground-State Mulliken Net Atomic Charges

     Atom                 Charge (a.u.)
  ----------------------------------------
      1 C                    -0.362538
      2 C                    -0.467362
      3 C                     0.250667
      4 C                    -0.691760
      5 C                    -0.439355
      6 C                     0.360813
      7 O                     0.043186
      8 H                     0.160315
      9 H                     0.128848
     10 H                     0.157206
     11 H                     0.133740
     12 H                     0.229508
     13 C                    -0.432352
     14 H                     0.152931
     15 H                     0.111011
     16 H                     0.146685
     17 H                     0.121200
     18 H                     0.179910
     19 H                     0.172020
     20 H                     0.189465
     21 GH                   -0.007121
     22 GH                    0.000999
     23 GH                   -0.076311
     24 GH                    0.062386
     25 GH                   -0.019163
     26 GH                   -0.110496
     27 GH                   -0.001415
     28 GH                    0.006848
     29 GH                   -0.002458
     30 GH                    0.038125
     31 GH                   -0.063437
     32 GH                   -0.002047
     33 GH                    0.025120
     34 GH                   -0.002485
     35 GH                   -0.000217
     36 GH                    0.004679
     37 GH                   -0.000177
     38 GH                    0.002384
     39 GH                    0.000856
     40 GH                   -0.000208
  ----------------------------------------
  Sum of atomic charges =     0.000000

                    Cartesian Multipole Moments
 -----------------------------------------------------------------
    Charge (ESU x 10^10)
                 0.0000
    Dipole Moment (Debye)
         X      -0.0093      Y       0.3979      Z       1.6050
       Tot       1.6536
    Quadrupole Moments (Debye-Ang)
        XX     -49.8664     XY       1.2299     YY     -46.3368
        XZ       7.8585     YZ       3.0564     ZZ     -43.8903

 Total job time:  249.71s(wall), 991.56s(cpu)
        *  Thank you very much for using Q-Chem.  Have a nice day.  *
