 Q-Chem 5.0, Q-Chem, Inc., Pleasanton, CA (2017)
 Q-Chem 5.0.1 for Intel X86 EM64T Linux

User input:
--------------------------------------------------------------
$molecule
0  1
C        +3.67533000        +2.89030000        +3.00127000
C        +4.07889000        +1.43189000        +3.41403000
C        +4.78271000        +3.24516000        +1.98041000
C        +6.08333000        +3.56242000        +2.74387000
C        +6.49599000        +2.13893000        +3.21832000
C        +5.39686000        +1.25243000        +2.56794000
O        +5.08103000        +1.98205000        +1.37156000
H        +6.82497000        +3.98324000        +2.06337000
H        +5.93499000        +4.27030000        +3.56183000
H        +7.47445000        +1.85536000        +2.82693000
H        +6.52622000        +2.03280000        +4.30460000
C        +4.35291000        +4.23619000        +0.92102000
C        +5.80713000        -0.16725000        +2.24720000
H        +6.71574000        -0.16136000        +1.64166000
H        +6.00253000        -0.72517000        +3.16611000
H        +5.02598000        -0.68354000        +1.68660000
H        +5.17108000        +4.42728000        +0.25846000
H        +4.05182000        +5.15020000        +1.38882000
H        +3.53188000        +3.83195000        +0.36658000
H        +4.26956000        +1.35637000        +4.46419000
H        +3.32739000        +0.69186000        +3.23375000
H        +2.70590000        +2.91353000        +2.54897000
H        +3.60815000        +3.57159000        +3.82360000
@C        +0.22270000        +1.04488000        +0.58595000
@C        +0.62626000        -0.41353000        +0.99871000
@C        +1.33008000        +1.39974000        -0.43491000
@C        +2.63070000        +1.71700000        +0.32855000
@C        +3.04336000        +0.29351000        +0.80300000
@C        +1.94423000        -0.59299000        +0.15262000
@O        +1.62840000        +0.13663000        -1.04376000
@H        +3.37234000        +2.13782000        -0.35195000
@H        +2.48236000        +2.42488000        +1.14651000
@H        +4.02182000        +0.00994000        +0.41161000
@H        +3.07359000        +0.18738000        +1.88928000
@C        +0.90028000        +2.39077000        -1.49430000
@C        +2.35450000        -2.01267000        -0.16812000
@H        +3.26311000        -2.00678000        -0.77366000
@H        +2.54990000        -2.57059000        +0.75079000
@H        +1.57335000        -2.52896000        -0.72872000
@H        +1.71845000        +2.58186000        -2.15686000
@H        +0.59919000        +3.30478000        -1.02650000
@H        +0.07925000        +1.98653000        -2.04874000
@H        +0.81693000        -0.48905000        +2.04887000
@H        -0.12524000        -1.15356000        +0.81843000
@H        -0.74673000        +1.06811000        +0.13365000
@H        +0.15552000        +1.72617000        +1.40828000
$end

$rem
JOBTYPE                   SP
METHOD                    B3LYP
DFT_D                     d3_op
BASIS                     6-311++G(d,p)
SYMMETRY                  False
THRESH                    12
SCF_CONVERGENCE           8
MAX_SUB_FILE_NUM          128
MEM_STATIC                400
MEM_TOTAL                 4000
$end
--------------------------------------------------------------

             Standard Nuclear Orientation (Angstroms)
    I     Atom           X                Y                Z
 ----------------------------------------------------------------
    1      C       3.6753300000     2.8903000000     3.0012700000
    2      C       4.0788900000     1.4318900000     3.4140300000
    3      C       4.7827100000     3.2451600000     1.9804100000
    4      C       6.0833300000     3.5624200000     2.7438700000
    5      C       6.4959900000     2.1389300000     3.2183200000
    6      C       5.3968600000     1.2524300000     2.5679400000
    7      O       5.0810300000     1.9820500000     1.3715600000
    8      H       6.8249700000     3.9832400000     2.0633700000
    9      H       5.9349900000     4.2703000000     3.5618300000
   10      H       7.4744500000     1.8553600000     2.8269300000
   11      H       6.5262200000     2.0328000000     4.3046000000
   12      C       4.3529100000     4.2361900000     0.9210200000
   13      C       5.8071300000    -0.1672500000     2.2472000000
   14      H       6.7157400000    -0.1613600000     1.6416600000
   15      H       6.0025300000    -0.7251700000     3.1661100000
   16      H       5.0259800000    -0.6835400000     1.6866000000
   17      H       5.1710800000     4.4272800000     0.2584600000
   18      H       4.0518200000     5.1502000000     1.3888200000
   19      H       3.5318800000     3.8319500000     0.3665800000
   20      H       4.2695600000     1.3563700000     4.4641900000
   21      H       3.3273900000     0.6918600000     3.2337500000
   22      H       2.7059000000     2.9135300000     2.5489700000
   23      H       3.6081500000     3.5715900000     3.8236000000
   24      GH      0.2227000000     1.0448800000     0.5859500000
   25      GH      0.6262600000    -0.4135300000     0.9987100000
   26      GH      1.3300800000     1.3997400000    -0.4349100000
   27      GH      2.6307000000     1.7170000000     0.3285500000
   28      GH      3.0433600000     0.2935100000     0.8030000000
   29      GH      1.9442300000    -0.5929900000     0.1526200000
   30      GH      1.6284000000     0.1366300000    -1.0437600000
   31      GH      3.3723400000     2.1378200000    -0.3519500000
   32      GH      2.4823600000     2.4248800000     1.1465100000
   33      GH      4.0218200000     0.0099400000     0.4116100000
   34      GH      3.0735900000     0.1873800000     1.8892800000
   35      GH      0.9002800000     2.3907700000    -1.4943000000
   36      GH      2.3545000000    -2.0126700000    -0.1681200000
   37      GH      3.2631100000    -2.0067800000    -0.7736600000
   38      GH      2.5499000000    -2.5705900000     0.7507900000
   39      GH      1.5733500000    -2.5289600000    -0.7287200000
   40      GH      1.7184500000     2.5818600000    -2.1568600000
   41      GH      0.5991900000     3.3047800000    -1.0265000000
   42      GH      0.0792500000     1.9865300000    -2.0487400000
   43      GH      0.8169300000    -0.4890500000     2.0488700000
   44      GH     -0.1252400000    -1.1535600000     0.8184300000
   45      GH     -0.7467300000     1.0681100000     0.1336500000
   46      GH      0.1555200000     1.7261700000     1.4082800000
 ----------------------------------------------------------------

   12    -388.6337727510      6.98E-09 Convergence criterion met
 Total energy in the final basis set = -388.63377275

                    Orbital Energies (a.u.)
 --------------------------------------------------------------

 Alpha MOs
 -- Occupied --
-19.115 -10.224 -10.221 -10.166 -10.165 -10.162 -10.161 -10.160
-10.151  -1.049  -0.799  -0.789  -0.748  -0.717  -0.652  -0.616
 -0.562  -0.555  -0.486  -0.474  -0.464  -0.444  -0.420  -0.410
 -0.406  -0.402  -0.384  -0.360  -0.346  -0.343  -0.340  -0.333
 -0.316  -0.299  -0.261

          Ground-State Mulliken Net Atomic Charges

     Atom                 Charge (a.u.)
  ----------------------------------------
      1 C                    -0.390278
      2 C                    -0.379940
      3 C                     0.190813
      4 C                    -0.491085
      5 C                    -0.497112
      6 C                     0.239623
      7 O                     0.108425
      8 H                     0.154744
      9 H                     0.138082
     10 H                     0.158149
     11 H                     0.134097
     12 C                    -0.314563
     13 C                    -0.367470
     14 H                     0.153352
     15 H                     0.153430
     16 H                     0.113006
     17 H                     0.152401
     18 H                     0.151265
     19 H                     0.095171
     20 H                     0.179570
     21 H                     0.167708
     22 H                     0.165546
     23 H                     0.187895
     24 GH                   -0.007615
     25 GH                    0.002633
     26 GH                   -0.092396
     27 GH                    0.006012
     28 GH                   -0.026645
     29 GH                   -0.109690
     30 GH                   -0.000708
     31 GH                    0.022985
     32 GH                   -0.055760
     33 GH                    0.043181
     34 GH                   -0.024797
     35 GH                    0.025462
     36 GH                    0.008145
     37 GH                   -0.001730
     38 GH                    0.002960
     39 GH                    0.000032
     40 GH                   -0.001235
     41 GH                    0.003346
     42 GH                   -0.000003
     43 GH                    0.001464
     44 GH                   -0.000220
     45 GH                   -0.000686
     46 GH                    0.002436
  ----------------------------------------
  Sum of atomic charges =     0.000000

                    Cartesian Multipole Moments
 -----------------------------------------------------------------
    Charge (ESU x 10^10)
                 0.0000
    Dipole Moment (Debye)
         X      -0.0355      Y       0.4282      Z       1.4985
       Tot       1.5588
    Quadrupole Moments (Debye-Ang)
        XX     -56.7261     XY       1.5602     YY     -53.2419
        XZ       7.4677     YZ       3.3183     ZZ     -51.8415

 Total job time:  330.83s(wall), 1310.09s(cpu)
        *  Thank you very much for using Q-Chem.  Have a nice day.  *
