 Q-Chem 5.0, Q-Chem, Inc., Pleasanton, CA (2017)
 Q-Chem 5.0.1 for Intel X86 EM64T Linux

User input:
--------------------------------------------------------------
$molecule
0  1
C        +0.22270000        +1.04488000        +0.58595000
C        +0.62626000        -0.41353000        +0.99871000
C        +1.33008000        +1.39974000        -0.43491000
C        +2.63070000        +1.71700000        +0.32855000
C        +3.04336000        +0.29351000        +0.80300000
C        +1.94423000        -0.59299000        +0.15262000
O        +1.62840000        +0.13663000        -1.04376000
H        +3.37234000        +2.13782000        -0.35195000
H        +2.48236000        +2.42488000        +1.14651000
H        +4.02182000        +0.00994000        +0.41161000
H        +3.07359000        +0.18738000        +1.88928000
C        +0.90028000        +2.39077000        -1.49430000
C        +2.35450000        -2.01267000        -0.16812000
H        +3.26311000        -2.00678000        -0.77366000
H        +2.54990000        -2.57059000        +0.75079000
H        +1.57335000        -2.52896000        -0.72872000
H        +1.71845000        +2.58186000        -2.15686000
H        +0.59919000        +3.30478000        -1.02650000
H        +0.07925000        +1.98653000        -2.04874000
H        +0.81693000        -0.48905000        +2.04887000
H        -0.12524000        -1.15356000        +0.81843000
H        -0.74673000        +1.06811000        +0.13365000
H        +0.15552000        +1.72617000        +1.40828000
@C        +4.65108000        +3.41183000        +3.68386000
@C        +5.05464000        +1.95342000        +4.09662000
@C        +5.75846000        +3.76669000        +2.66300000
@C        +7.05908000        +4.08395000        +3.42646000
@C        +7.47174000        +2.66046000        +3.90091000
@C        +6.37261000        +1.77396000        +3.25053000
@O        +6.05678000        +2.50358000        +2.05415000
@H        +7.80072000        +4.50477000        +2.74596000
@H        +6.91074000        +4.79183000        +4.24442000
@H        +8.45020000        +2.37689000        +3.50952000
@H        +7.50197000        +2.55433000        +4.98719000
@C        +5.32866000        +4.75772000        +1.60361000
@C        +6.78288000        +0.35428000        +2.92979000
@H        +7.69149000        +0.36017000        +2.32425000
@H        +6.97828000        -0.20364000        +3.84870000
@H        +6.00173000        -0.16201000        +2.36919000
@H        +6.14683000        +4.94881000        +0.94105000
@H        +5.02757000        +5.67173000        +2.07141000
@H        +4.50763000        +4.35348000        +1.04917000
@H        +5.24531000        +1.87790000        +5.14678000
@H        +4.30314000        +1.21339000        +3.91634000
@H        +3.68165000        +3.43506000        +3.23156000
@H        +4.58390000        +4.09312000        +4.50619000
$end

$rem
JOBTYPE                   SP
METHOD                    B3LYP
DFT_D                     d3_op
BASIS                     6-311++G(d,p)
SYMMETRY                  False
THRESH                    12
SCF_CONVERGENCE           8
MAX_SUB_FILE_NUM          128
MEM_STATIC                400
MEM_TOTAL                 4000
$end
--------------------------------------------------------------

             Standard Nuclear Orientation (Angstroms)
    I     Atom           X                Y                Z
 ----------------------------------------------------------------
    1      C       0.2227000000     1.0448800000     0.5859500000
    2      C       0.6262600000    -0.4135300000     0.9987100000
    3      C       1.3300800000     1.3997400000    -0.4349100000
    4      C       2.6307000000     1.7170000000     0.3285500000
    5      C       3.0433600000     0.2935100000     0.8030000000
    6      C       1.9442300000    -0.5929900000     0.1526200000
    7      O       1.6284000000     0.1366300000    -1.0437600000
    8      H       3.3723400000     2.1378200000    -0.3519500000
    9      H       2.4823600000     2.4248800000     1.1465100000
   10      H       4.0218200000     0.0099400000     0.4116100000
   11      H       3.0735900000     0.1873800000     1.8892800000
   12      C       0.9002800000     2.3907700000    -1.4943000000
   13      C       2.3545000000    -2.0126700000    -0.1681200000
   14      H       3.2631100000    -2.0067800000    -0.7736600000
   15      H       2.5499000000    -2.5705900000     0.7507900000
   16      H       1.5733500000    -2.5289600000    -0.7287200000
   17      H       1.7184500000     2.5818600000    -2.1568600000
   18      H       0.5991900000     3.3047800000    -1.0265000000
   19      H       0.0792500000     1.9865300000    -2.0487400000
   20      H       0.8169300000    -0.4890500000     2.0488700000
   21      H      -0.1252400000    -1.1535600000     0.8184300000
   22      H      -0.7467300000     1.0681100000     0.1336500000
   23      H       0.1555200000     1.7261700000     1.4082800000
   24      GH      4.6510800000     3.4118300000     3.6838600000
   25      GH      5.0546400000     1.9534200000     4.0966200000
   26      GH      5.7584600000     3.7666900000     2.6630000000
   27      GH      7.0590800000     4.0839500000     3.4264600000
   28      GH      7.4717400000     2.6604600000     3.9009100000
   29      GH      6.3726100000     1.7739600000     3.2505300000
   30      GH      6.0567800000     2.5035800000     2.0541500000
   31      GH      7.8007200000     4.5047700000     2.7459600000
   32      GH      6.9107400000     4.7918300000     4.2444200000
   33      GH      8.4502000000     2.3768900000     3.5095200000
   34      GH      7.5019700000     2.5543300000     4.9871900000
   35      GH      5.3286600000     4.7577200000     1.6036100000
   36      GH      6.7828800000     0.3542800000     2.9297900000
   37      GH      7.6914900000     0.3601700000     2.3242500000
   38      GH      6.9782800000    -0.2036400000     3.8487000000
   39      GH      6.0017300000    -0.1620100000     2.3691900000
   40      GH      6.1468300000     4.9488100000     0.9410500000
   41      GH      5.0275700000     5.6717300000     2.0714100000
   42      GH      4.5076300000     4.3534800000     1.0491700000
   43      GH      5.2453100000     1.8779000000     5.1467800000
   44      GH      4.3031400000     1.2133900000     3.9163400000
   45      GH      3.6816500000     3.4350600000     3.2315600000
   46      GH      4.5839000000     4.0931200000     4.5061900000
 ----------------------------------------------------------------

   12    -388.6330814452      6.95E-09 Convergence criterion met
 Total energy in the final basis set = -388.63308145

                    Orbital Energies (a.u.)
 --------------------------------------------------------------

 Alpha MOs
 -- Occupied --
-19.115 -10.224 -10.221 -10.166 -10.166 -10.162 -10.161 -10.160
-10.151  -1.049  -0.799  -0.789  -0.749  -0.717  -0.652  -0.616
 -0.562  -0.556  -0.486  -0.474  -0.464  -0.444  -0.420  -0.410
 -0.407  -0.402  -0.384  -0.360  -0.346  -0.343  -0.340  -0.333
 -0.316  -0.299  -0.261

          Ground-State Mulliken Net Atomic Charges

     Atom                 Charge (a.u.)
  ----------------------------------------
      1 C                    -0.420339
      2 C                    -0.465156
      3 C                     0.021652
      4 C                    -0.292191
      5 C                    -0.243937
      6 C                     0.049747
      7 O                     0.027765
      8 H                     0.171922
      9 H                     0.061092
     10 H                     0.155113
     11 H                     0.063751
     12 C                    -0.324456
     13 C                    -0.342343
     14 H                     0.151918
     15 H                     0.149449
     16 H                     0.154876
     17 H                     0.141956
     18 H                     0.145926
     19 H                     0.153054
     20 H                     0.136362
     21 H                     0.175069
     22 H                     0.164132
     23 H                     0.145022
     24 GH                    0.002813
     25 GH                    0.002750
     26 GH                   -0.004277
     27 GH                    0.000747
     28 GH                   -0.002967
     29 GH                   -0.007400
     30 GH                   -0.000419
     31 GH                   -0.000122
     32 GH                    0.000008
     33 GH                   -0.000114
     34 GH                    0.000031
     35 GH                   -0.005896
     36 GH                   -0.000671
     37 GH                    0.000763
     38 GH                   -0.000684
     39 GH                    0.006628
     40 GH                    0.001018
     41 GH                   -0.000791
     42 GH                    0.006971
     43 GH                   -0.001354
     44 GH                    0.013692
     45 GH                    0.009609
     46 GH                   -0.000722
  ----------------------------------------
  Sum of atomic charges =     0.000000

                    Cartesian Multipole Moments
 -----------------------------------------------------------------
    Charge (ESU x 10^10)
                 0.0000
    Dipole Moment (Debye)
         X      -0.0334      Y       0.4293      Z       1.5059
       Tot       1.5663
    Quadrupole Moments (Debye-Ang)
        XX     -56.4724     XY       0.1420     YY     -54.7967
        XZ       2.3929     YZ      -0.4941     ZZ     -59.1089

 Total job time:  262.77s(wall), 1037.51s(cpu)
        *  Thank you very much for using Q-Chem.  Have a nice day.  *
