 Q-Chem 5.0, Q-Chem, Inc., Pleasanton, CA (2017)
 Q-Chem 5.0.1 for Intel X86 EM64T Linux

User input:
--------------------------------------------------------------
$molecule
0  1
--
0  1
C        +0.22270000        +1.04488000        +0.58595000
C        +0.62626000        -0.41353000        +0.99871000
C        +1.33008000        +1.39974000        -0.43491000
C        +2.63070000        +1.71700000        +0.32855000
C        +3.04336000        +0.29351000        +0.80300000
C        +1.94423000        -0.59299000        +0.15262000
O        +1.62840000        +0.13663000        -1.04376000
H        +3.37234000        +2.13782000        -0.35195000
H        +2.48236000        +2.42488000        +1.14651000
H        +4.02182000        +0.00994000        +0.41161000
H        +3.07359000        +0.18738000        +1.88928000
C        +0.90028000        +2.39077000        -1.49430000
C        +2.35450000        -2.01267000        -0.16812000
H        +3.26311000        -2.00678000        -0.77366000
H        +2.54990000        -2.57059000        +0.75079000
H        +1.57335000        -2.52896000        -0.72872000
H        +1.71845000        +2.58186000        -2.15686000
H        +0.59919000        +3.30478000        -1.02650000
H        +0.07925000        +1.98653000        -2.04874000
H        +0.81693000        -0.48905000        +2.04887000
H        -0.12524000        -1.15356000        +0.81843000
H        -0.74673000        +1.06811000        +0.13365000
H        +0.15552000        +1.72617000        +1.40828000
--
0  1
C        +3.67533000        +2.89030000        +3.00127000
C        +4.07889000        +1.43189000        +3.41403000
C        +4.78271000        +3.24516000        +1.98041000
C        +6.08333000        +3.56242000        +2.74387000
C        +6.49599000        +2.13893000        +3.21832000
C        +5.39686000        +1.25243000        +2.56794000
O        +5.08103000        +1.98205000        +1.37156000
H        +6.82497000        +3.98324000        +2.06337000
H        +5.93499000        +4.27030000        +3.56183000
H        +7.47445000        +1.85536000        +2.82693000
H        +6.52622000        +2.03280000        +4.30460000
C        +4.35291000        +4.23619000        +0.92102000
C        +5.80713000        -0.16725000        +2.24720000
H        +6.71574000        -0.16136000        +1.64166000
H        +6.00253000        -0.72517000        +3.16611000
H        +5.02598000        -0.68354000        +1.68660000
H        +5.17108000        +4.42728000        +0.25846000
H        +4.05182000        +5.15020000        +1.38882000
H        +3.53188000        +3.83195000        +0.36658000
H        +4.26956000        +1.35637000        +4.46419000
H        +3.32739000        +0.69186000        +3.23375000
H        +2.70590000        +2.91353000        +2.54897000
H        +3.60815000        +3.57159000        +3.82360000
$end

$rem
JOBTYPE                   SP
METHOD                    B3LYP
DFT_D                     d3_op
BASIS                     6-311++G(d,p)
SYMMETRY                  False
THRESH                    12
SCF_CONVERGENCE           8
MAX_SUB_FILE_NUM          128
MEM_STATIC                400
MEM_TOTAL                 4000
$end
--------------------------------------------------------------

             Standard Nuclear Orientation (Angstroms)
    I     Atom           X                Y                Z
 ----------------------------------------------------------------
    1      C       2.8141530826    -0.8061569007     1.3059956034
    2      C       2.8799470050     0.7607768941     1.3300966778
    3      C       2.3501665599    -1.0783524942    -0.1448652752
    4      C       0.8435604904    -0.7726260230    -0.2535250185
    5      C       0.8569716781     0.7818768047    -0.1824197671
    6      C       2.3802935716     1.0877916531    -0.1288505092
    7      O       2.9392610033     0.0003397044    -0.8827886415
    8      H       0.4578891858    -1.1216052910    -1.2125196626
    9      H       0.2557791472    -1.2417129271     0.5380733523
   10      H       0.4253756643     1.2266461684    -1.0806887372
   11      H       0.3220828908     1.1837762562     0.6804547802
   12      C       2.8213692599    -2.4016406783    -0.7070503606
   13      C       2.7997993481     2.4215660170    -0.7048260059
   14      H       2.4148224082     2.5223880230    -1.7216412274
   15      H       2.4053911077     3.2404622369    -0.0984411483
   16      H       3.8871069140     2.5081400806    -0.7407458488
   17      H       2.4602209123    -2.5127475087    -1.7081150108
   18      H       2.4460661211    -3.2002160011    -0.1017972597
   19      H       3.8910500800    -2.4277896815    -0.7088180361
   20      H       2.2291137954     1.1727091953     2.0728094469
   21      H       3.8401365872     1.1644324155     1.5750369065
   22      H       3.7736083631    -1.2398136284     1.4965129388
   23      H       2.1730030426    -1.2255143403     2.0529640161
   24      C      -1.7850840665    -0.8064793084     1.3897639621
   25      C      -1.7192901441     0.7604544864     1.4138650365
   26      C      -2.2490705892    -1.0786749018    -0.0610969166
   27      C      -3.7556766587    -0.7729484307    -0.1697566598
   28      C      -3.7422654711     0.7815543970    -0.0986514084
   29      C      -2.2189435775     1.0874692454    -0.0450821506
   30      O      -1.6599761458     0.0000172967    -0.7990202828
   31      H      -4.1413479633    -1.1219276987    -1.1287513039
   32      H      -4.3434580019    -1.2420353348     0.6218417109
   33      H      -4.1738614848     1.2263237607    -0.9969203785
   34      H      -4.2771542583     1.1834538485     0.7642231389
   35      C      -1.7778678892    -2.4019630860    -0.6232820019
   36      C      -1.7994378011     2.4212436093    -0.6210576472
   37      H      -2.1844147409     2.5220656153    -1.6378728687
   38      H      -2.1938460414     3.2401398292    -0.0146727897
   39      H      -0.7121302351     2.5078176729    -0.6569774901
   40      H      -2.1390162369    -2.5130699164    -1.6243466521
   41      H      -2.1531710280    -3.2005384088    -0.0180289010
   42      H      -0.7081870691    -2.4281120892    -0.6250496775
   43      H      -2.3701233537     1.1723867877     2.1565778056
   44      H      -0.7591005620     1.1641100078     1.6588052652
   45      H      -0.8256287860    -1.2401360360     1.5802812975
   46      H      -2.4262341065    -1.2258367480     2.1367323747
 ----------------------------------------------------------------

   13    -777.2288530500      6.23E-09 Convergence criterion met
 Total energy in the final basis set = -777.22885305

                    Orbital Energies (a.u.)
 --------------------------------------------------------------

 Alpha MOs
 -- Occupied --
-19.118 -19.105 -10.230 -10.226 -10.214 -10.210 -10.170 -10.169
-10.167 -10.166 -10.161 -10.156 -10.155 -10.154 -10.152 -10.148
-10.148 -10.145  -1.056  -1.039  -0.806  -0.795  -0.792  -0.781
 -0.758  -0.739  -0.721  -0.711  -0.657  -0.647  -0.628  -0.606
 -0.568  -0.568  -0.556  -0.545  -0.500  -0.489  -0.475  -0.467
 -0.467  -0.455  -0.450  -0.438  -0.424  -0.422  -0.416  -0.411
 -0.409  -0.402  -0.398  -0.395  -0.384  -0.373  -0.365  -0.356
 -0.352  -0.351  -0.347  -0.341  -0.338  -0.331  -0.327  -0.321
 -0.315  -0.307  -0.295  -0.287  -0.268  -0.247

          Ground-State Mulliken Net Atomic Charges

     Atom                 Charge (a.u.)
  ----------------------------------------
      1 C                    -0.410799
      2 C                    -0.423050
      3 C                    -0.224377
      4 C                    -0.121791
      5 C                    -0.162816
      6 C                    -0.313383
      7 O                     0.070539
      8 H                     0.221047
      9 H                    -0.076818
     10 H                     0.203140
     11 H                    -0.023936
     12 C                    -0.246129
     13 C                    -0.277984
     14 H                     0.151136
     15 H                     0.153891
     16 H                     0.164184
     17 H                     0.141027
     18 H                     0.149769
     19 H                     0.162633
     20 H                     0.120580
     21 H                     0.172972
     22 H                     0.158580
     23 H                     0.134268
     24 C                    -0.361024
     25 C                    -0.382955
     26 C                     0.090762
     27 C                    -0.517330
     28 C                    -0.500631
     29 C                     0.176852
     30 O                     0.151176
     31 H                     0.157024
     32 H                     0.138398
     33 H                     0.160909
     34 H                     0.134629
     35 C                    -0.262320
     36 C                    -0.335800
     37 H                     0.158789
     38 H                     0.151663
     39 H                     0.135598
     40 H                     0.157674
     41 H                     0.148669
     42 H                     0.131803
     43 H                     0.179787
     44 H                     0.194449
     45 H                     0.178929
     46 H                     0.190268
  ----------------------------------------
  Sum of atomic charges =     0.000000

                    Cartesian Multipole Moments
 -----------------------------------------------------------------
    Charge (ESU x 10^10)
                 0.0000
    Dipole Moment (Debye)
         X      -2.4487      Y       0.0316      Z       2.2958
       Tot       3.3568
    Quadrupole Moments (Debye-Ang)
        XX    -117.1375     XY       0.1658     YY    -110.3110
        XZ       2.6117     YZ      -0.2212     ZZ    -116.3213

 Total job time:  383.36s(wall), 1517.30s(cpu)
        *  Thank you very much for using Q-Chem.  Have a nice day.  *
