 Q-Chem 5.0, Q-Chem, Inc., Pleasanton, CA (2017)
 Q-Chem 5.0.1 for Intel X86 EM64T Linux

User input:
--------------------------------------------------------------
$molecule
0  1
--
0  1
C        +0.22270000        +1.04488000        +0.58595000
C        +0.62626000        -0.41353000        +0.99871000
C        +1.33008000        +1.39974000        -0.43491000
C        +2.63070000        +1.71700000        +0.32855000
C        +3.04336000        +0.29351000        +0.80300000
C        +1.94423000        -0.59299000        +0.15262000
O        +1.62840000        +0.13663000        -1.04376000
H        +3.37234000        +2.13782000        -0.35195000
H        +2.48236000        +2.42488000        +1.14651000
H        +4.02182000        +0.00994000        +0.41161000
H        +3.07359000        +0.18738000        +1.88928000
C        +0.90028000        +2.39077000        -1.49430000
C        +2.35450000        -2.01267000        -0.16812000
H        +3.26311000        -2.00678000        -0.77366000
H        +2.54990000        -2.57059000        +0.75079000
H        +1.57335000        -2.52896000        -0.72872000
H        +1.71845000        +2.58186000        -2.15686000
H        +0.59919000        +3.30478000        -1.02650000
H        +0.07925000        +1.98653000        -2.04874000
H        +0.81693000        -0.48905000        +2.04887000
H        -0.12524000        -1.15356000        +0.81843000
H        -0.74673000        +1.06811000        +0.13365000
H        +0.15552000        +1.72617000        +1.40828000
--
0  1
C        +4.65108000        +3.41183000        +3.68386000
C        +5.05464000        +1.95342000        +4.09662000
C        +5.75846000        +3.76669000        +2.66300000
C        +7.05908000        +4.08395000        +3.42646000
C        +7.47174000        +2.66046000        +3.90091000
C        +6.37261000        +1.77396000        +3.25053000
O        +6.05678000        +2.50358000        +2.05415000
H        +7.80072000        +4.50477000        +2.74596000
H        +6.91074000        +4.79183000        +4.24442000
H        +8.45020000        +2.37689000        +3.50952000
H        +7.50197000        +2.55433000        +4.98719000
C        +5.32866000        +4.75772000        +1.60361000
C        +6.78288000        +0.35428000        +2.92979000
H        +7.69149000        +0.36017000        +2.32425000
H        +6.97828000        -0.20364000        +3.84870000
H        +6.00173000        -0.16201000        +2.36919000
H        +6.14683000        +4.94881000        +0.94105000
H        +5.02757000        +5.67173000        +2.07141000
H        +4.50763000        +4.35348000        +1.04917000
H        +5.24531000        +1.87790000        +5.14678000
H        +4.30314000        +1.21339000        +3.91634000
H        +3.68165000        +3.43506000        +3.23156000
H        +4.58390000        +4.09312000        +4.50619000
$end

$rem
JOBTYPE                   SP
METHOD                    B3LYP
DFT_D                     d3_op
BASIS                     6-311++G(d,p)
SYMMETRY                  False
THRESH                    12
SCF_CONVERGENCE           8
MAX_SUB_FILE_NUM          128
MEM_STATIC                400
MEM_TOTAL                 4000
$end
--------------------------------------------------------------

             Standard Nuclear Orientation (Angstroms)
    I     Atom           X                Y                Z
 ----------------------------------------------------------------
    1      C       3.4547295406    -0.8062257651     1.3187641943
    2      C       3.5204003823     0.7607058895     1.3433355126
    3      C       3.0010650858    -1.0784041873    -0.1353605227
    4      C       1.4952797042    -0.7726294474    -0.2547324470
    5      C       1.5082344297     0.7818728358    -0.1835307275
    6      C       3.0311465515     1.0877389711    -0.1191278726
    7      O       3.5954274112     0.0002704067    -0.8690733844
    8      H       1.1164277162    -1.1215948442    -1.2164465080
    9      H       0.9018681426    -1.2416988765     0.5326645309
   10      H       1.0830523197     1.2266574374    -1.0848458112
   11      H       0.9672349376     1.1837879575     0.6755184287
   12      C       3.4762120954    -2.4017064975    -0.6941824874
   13      C       3.4547808101     2.4215008803    -0.6921026605
   14      H       3.0770487614     2.5223368291    -1.7116300641
   15      H       3.0560958595     3.2404087032    -0.0885367882
   16      H       4.5423191108     2.5080402945    -0.7202881322
   17      H       3.1221892505    -2.5128001711    -1.6977906338
   18      H       3.0965882016    -3.2002708244    -0.0916154594
   19      H       4.5458775975    -2.4278896430    -0.6883422319
   20      H       2.8643143522     1.1726577575     2.0814013121
   21      H       4.4788364595     1.1643303622     1.5950994900
   22      H       4.4127916915    -1.2399134291     1.5160998802
   23      H       2.8082696424    -1.2255639535     2.0611528588
   24      C      -2.4449111717    -0.8064476773     1.3842432877
   25      C      -2.3792403300     0.7604839772     1.4088146060
   26      C      -2.8985756265    -1.0786260996    -0.0698814293
   27      C      -4.4043610081    -0.7728513597    -0.1892533536
   28      C      -4.3914062826     0.7816509235    -0.1180516341
   29      C      -2.8684941608     1.0875170588    -0.0536487793
   30      O      -2.3042133011     0.0000484944    -0.8035942910
   31      H      -4.7832129961    -1.1218167564    -1.1509674146
   32      H      -4.9977725697    -1.2419207887     0.5981436243
   33      H      -4.8165883926     1.2264355251    -1.0193667178
   34      H      -4.9324057747     1.1835660452     0.7409975221
   35      C      -2.4234286169    -2.4019284098    -0.6287033940
   36      C      -2.4448599022     2.4212789680    -0.6266235671
   37      H      -2.8225919509     2.5221149169    -1.6461509707
   38      H      -2.8435448527     3.2401867909    -0.0230576948
   39      H      -1.3573216014     2.5078183822    -0.6548090389
   40      H      -2.7774514618    -2.5130220834    -1.6323115404
   41      H      -2.8030525107    -3.2004927367    -0.0261363661
   42      H      -1.3537631148    -2.4281115552    -0.6228631386
   43      H      -3.0353263601     1.1724358452     2.1468804055
   44      H      -1.4208042528     1.1641084499     1.6605785834
   45      H      -1.4868490208    -1.2401353413     1.5815789736
   46      H      -3.0913710699    -1.2257858658     2.1266319521
 ----------------------------------------------------------------

   13    -777.2695017341      4.24E-09 Convergence criterion met
 Total energy in the final basis set = -777.26950173

                    Orbital Energies (a.u.)
 --------------------------------------------------------------

 Alpha MOs
 -- Occupied --
-19.117 -19.111 -10.227 -10.223 -10.221 -10.217 -10.168 -10.167
-10.165 -10.164 -10.162 -10.161 -10.160 -10.160 -10.158 -10.157
-10.153 -10.148  -1.051  -1.045  -0.802  -0.795  -0.791  -0.785
 -0.751  -0.744  -0.720  -0.714  -0.654  -0.649  -0.618  -0.612
 -0.564  -0.559  -0.558  -0.551  -0.488  -0.482  -0.476  -0.471
 -0.467  -0.460  -0.446  -0.440  -0.422  -0.417  -0.413  -0.409
 -0.406  -0.405  -0.403  -0.397  -0.386  -0.380  -0.362  -0.357
 -0.349  -0.346  -0.344  -0.342  -0.340  -0.336  -0.335  -0.330
 -0.318  -0.312  -0.302  -0.295  -0.264  -0.257

          Ground-State Mulliken Net Atomic Charges

     Atom                 Charge (a.u.)
  ----------------------------------------
      1 C                    -0.424441
      2 C                    -0.469051
      3 C                     0.026302
      4 C                    -0.298539
      5 C                    -0.251304
      6 C                     0.045926
      7 O                     0.025949
      8 H                     0.177955
      9 H                     0.036935
     10 H                     0.156331
     11 H                     0.044337
     12 C                    -0.315747
     13 C                    -0.328381
     14 H                     0.153973
     15 H                     0.147764
     16 H                     0.153617
     17 H                     0.143939
     18 H                     0.144454
     19 H                     0.151832
     20 H                     0.134659
     21 H                     0.173834
     22 H                     0.163209
     23 H                     0.143805
     24 C                    -0.293711
     25 C                    -0.348736
     26 C                     0.150038
     27 C                    -0.620921
     28 C                    -0.515814
     29 C                     0.142733
     30 O                     0.012868
     31 H                     0.156577
     32 H                     0.138577
     33 H                     0.159069
     34 H                     0.138166
     35 C                    -0.237429
     36 C                    -0.334654
     37 H                     0.155907
     38 H                     0.146459
     39 H                     0.154932
     40 H                     0.151822
     41 H                     0.143122
     42 H                     0.148427
     43 H                     0.154609
     44 H                     0.158616
     45 H                     0.130441
     46 H                     0.171543
  ----------------------------------------
  Sum of atomic charges =     0.000000

                    Cartesian Multipole Moments
 -----------------------------------------------------------------
    Charge (ESU x 10^10)
                 0.0000
    Dipole Moment (Debye)
         X      -2.0642      Y       0.0172      Z       2.3505
       Tot       3.1283
    Quadrupole Moments (Debye-Ang)
        XX    -115.9394     XY       0.2043     YY    -109.6786
        XZ       2.6368     YZ      -0.2230     ZZ    -116.2548

 Total job time:  301.36s(wall), 1191.37s(cpu)
        *  Thank you very much for using Q-Chem.  Have a nice day.  *
