 Q-Chem 5.0, Q-Chem, Inc., Pleasanton, CA (2017)
 Q-Chem 5.0.1 for Intel X86 EM64T Linux

User input:
--------------------------------------------------------------
$molecule
0  1
C        -0.70166000        -1.01259000        +4.51864000
C        -0.71431000        +0.38989000        +4.64046000
C        -1.90042000        -1.74505000        +4.46001000
C        -3.09674000        -1.02945000        +4.53268000
C        -3.11035000        +0.35366000        +4.65487000
C        -1.92883000        +1.09515000        +4.71363000
H        -4.06076000        +0.87436000        +4.70263000
H        -4.03614000        -1.57100000        +4.49565000
C        -1.99682000        +2.59857000        +4.83392000
H        -1.39936000        +3.09463000        +4.06488000
H        -1.61225000        +2.93538000        +5.79837000
H        -3.02933000        +2.93734000        +4.73191000
H        -1.89600000        -2.77282000        +4.36678000
H        +0.20103000        -1.51055000        +4.47167000
H        +0.17829000        +0.90660000        +4.67650000
@C        -0.54444000        -0.68370000        -0.06689000
@C        -0.55709000        +0.71878000        +0.05493000
@C        -1.74320000        -1.41616000        -0.12552000
@C        -2.93952000        -0.70056000        -0.05285000
@C        -2.95313000        +0.68255000        +0.06934000
@C        -1.77161000        +1.42404000        +0.12810000
@H        -3.90354000        +1.20325000        +0.11710000
@H        -3.87892000        -1.24211000        -0.08988000
@C        -1.83960000        +2.92746000        +0.24839000
@H        -1.24214000        +3.42352000        -0.52065000
@H        -1.45503000        +3.26427000        +1.21284000
@H        -2.87211000        +3.26623000        +0.14638000
@H        -1.73878000        -2.44393000        -0.21875000
@H        +0.35825000        -1.18166000        -0.11386000
@H        +0.33551000        +1.23549000        +0.09097000
$end

$rem
JOBTYPE                   SP
METHOD                    B3LYP
DFT_D                     d3_op
BASIS                     6-311++G(d,p)
SYMMETRY                  False
THRESH                    12
SCF_CONVERGENCE           8
MAX_SUB_FILE_NUM          128
MEM_STATIC                400
MEM_TOTAL                 4000
$end
--------------------------------------------------------------

             Standard Nuclear Orientation (Angstroms)
    I     Atom           X                Y                Z
 ----------------------------------------------------------------
    1      C      -0.7016600000    -1.0125900000     4.5186400000
    2      C      -0.7143100000     0.3898900000     4.6404600000
    3      C      -1.9004200000    -1.7450500000     4.4600100000
    4      C      -3.0967400000    -1.0294500000     4.5326800000
    5      C      -3.1103500000     0.3536600000     4.6548700000
    6      C      -1.9288300000     1.0951500000     4.7136300000
    7      H      -4.0607600000     0.8743600000     4.7026300000
    8      H      -4.0361400000    -1.5710000000     4.4956500000
    9      C      -1.9968200000     2.5985700000     4.8339200000
   10      H      -1.3993600000     3.0946300000     4.0648800000
   11      H      -1.6122500000     2.9353800000     5.7983700000
   12      H      -3.0293300000     2.9373400000     4.7319100000
   13      H      -1.8960000000    -2.7728200000     4.3667800000
   14      H       0.2010300000    -1.5105500000     4.4716700000
   15      H       0.1782900000     0.9066000000     4.6765000000
   16      GH     -0.5444400000    -0.6837000000    -0.0668900000
   17      GH     -0.5570900000     0.7187800000     0.0549300000
   18      GH     -1.7432000000    -1.4161600000    -0.1255200000
   19      GH     -2.9395200000    -0.7005600000    -0.0528500000
   20      GH     -2.9531300000     0.6825500000     0.0693400000
   21      GH     -1.7716100000     1.4240400000     0.1281000000
   22      GH     -3.9035400000     1.2032500000     0.1171000000
   23      GH     -3.8789200000    -1.2421100000    -0.0898800000
   24      GH     -1.8396000000     2.9274600000     0.2483900000
   25      GH     -1.2421400000     3.4235200000    -0.5206500000
   26      GH     -1.4550300000     3.2642700000     1.2128400000
   27      GH     -2.8721100000     3.2662300000     0.1463800000
   28      GH     -1.7387800000    -2.4439300000    -0.2187500000
   29      GH      0.3582500000    -1.1816600000    -0.1138600000
   30      GH      0.3355100000     1.2354900000     0.0909700000
 ----------------------------------------------------------------

   12    -271.6437712184      9.80E-09 Convergence criterion met
 Total energy in the final basis set = -271.64377122

                    Orbital Energies (a.u.)
 --------------------------------------------------------------

 Alpha MOs
 -- Occupied --
-10.185 -10.174 -10.172 -10.171 -10.170 -10.169 -10.169  -0.858
 -0.776  -0.747  -0.691  -0.611  -0.591  -0.521  -0.465  -0.462
 -0.424  -0.423  -0.418  -0.390  -0.358  -0.350  -0.342  -0.255
 -0.247

          Ground-State Mulliken Net Atomic Charges

     Atom                 Charge (a.u.)
  ----------------------------------------
      1 C                    -0.140316
      2 C                    -0.375412
      3 C                    -0.327152
      4 C                    -0.182329
      5 C                    -0.399673
      6 C                     0.843509
      7 H                     0.154567
      8 H                     0.171504
      9 C                    -0.668767
     10 H                     0.156298
     11 H                     0.158598
     12 H                     0.141261
     13 H                     0.151280
     14 H                     0.160324
     15 H                     0.170143
     16 GH                   -0.037986
     17 GH                    0.010526
     18 GH                    0.033925
     19 GH                   -0.032809
     20 GH                    0.015937
     21 GH                   -0.020537
     22 GH                    0.001439
     23 GH                   -0.000424
     24 GH                    0.015901
     25 GH                   -0.000407
     26 GH                   -0.003567
     27 GH                    0.001623
     28 GH                    0.003516
     29 GH                   -0.000938
     30 GH                   -0.000035
  ----------------------------------------
  Sum of atomic charges =    -0.000000

                    Cartesian Multipole Moments
 -----------------------------------------------------------------
    Charge (ESU x 10^10)
                -0.0000
    Dipole Moment (Debye)
         X       0.0628      Y       0.3878      Z       0.0304
       Tot       0.3941
    Quadrupole Moments (Debye-Ang)
        XX     -39.3943     XY      -0.7128     YY     -38.3437
        XZ       0.2034     YZ       2.4908     ZZ     -46.1185

 Total job time:  83.82s(wall), 333.36s(cpu)
        *  Thank you very much for using Q-Chem.  Have a nice day.  *
