 Q-Chem 5.0, Q-Chem, Inc., Pleasanton, CA (2017)
 Q-Chem 5.0.1 for Intel X86 EM64T Linux

User input:
--------------------------------------------------------------
$molecule
0  1
--
0  1
C        -0.54444000        -0.68370000        -0.06689000
C        -0.55709000        +0.71878000        +0.05493000
C        -1.74320000        -1.41616000        -0.12552000
C        -2.93952000        -0.70056000        -0.05285000
C        -2.95313000        +0.68255000        +0.06934000
C        -1.77161000        +1.42404000        +0.12810000
H        -3.90354000        +1.20325000        +0.11710000
H        -3.87892000        -1.24211000        -0.08988000
C        -1.83960000        +2.92746000        +0.24839000
H        -1.24214000        +3.42352000        -0.52065000
H        -1.45503000        +3.26427000        +1.21284000
H        -2.87211000        +3.26623000        +0.14638000
H        -1.73878000        -2.44393000        -0.21875000
H        +0.35825000        -1.18166000        -0.11386000
H        +0.33551000        +1.23549000        +0.09097000
--
0  1
C        -0.74609000        -1.10554000        +5.81455000
C        -0.75874000        +0.29694000        +5.93637000
C        -1.94485000        -1.83800000        +5.75592000
C        -3.14117000        -1.12240000        +5.82859000
C        -3.15478000        +0.26071000        +5.95078000
C        -1.97326000        +1.00220000        +6.00954000
H        -4.10519000        +0.78141000        +5.99854000
H        -4.08057000        -1.66395000        +5.79156000
C        -2.04125000        +2.50562000        +6.12983000
H        -1.44379000        +3.00168000        +5.36079000
H        -1.65668000        +2.84243000        +7.09428000
H        -3.07376000        +2.84439000        +6.02782000
H        -1.94043000        -2.86577000        +5.66269000
H        +0.15660000        -1.60350000        +5.76758000
H        +0.13386000        +0.81365000        +5.97241000
$end

$rem
JOBTYPE                   SP
METHOD                    B3LYP
DFT_D                     d3_op
BASIS                     6-311++G(d,p)
SYMMETRY                  False
THRESH                    12
SCF_CONVERGENCE           8
MAX_SUB_FILE_NUM          128
MEM_STATIC                400
MEM_TOTAL                 4000
$end
--------------------------------------------------------------

             Standard Nuclear Orientation (Angstroms)
    I     Atom           X                Y                Z
 ----------------------------------------------------------------
    1      C       3.0300891198    -1.2098056421     1.1731770809
    2      C       3.0005941777     0.1974316992     1.2008067574
    3      C       2.9924744730    -1.9109598625    -0.0449889848
    4      C       2.9195196390    -1.1592144662    -1.2189149973
    5      C       2.8883404472     0.2287517852    -1.1927149356
    6      C       2.9257337122     0.9394006013     0.0084635157
    7      H       2.8371727105     0.7776396727    -2.1269486459
    8      H       2.8832933073    -1.6757345608    -2.1723375837
    9      C       2.9022136559     2.4487637225    -0.0167117878
   10      H       3.7254864705     2.8771248952     0.5605100718
   11      H       1.9781640609     2.8366046408     0.4159666512
   12      H       2.9851036967     2.8087413249    -1.0437431505
   13      H       3.0178414459    -2.9423381422    -0.0702457268
   14      H       3.0800665255    -1.7346340218     2.0603506881
   15      H       3.0343045500     0.6904088652     2.1068199970
   16      C      -2.8697198448    -1.2435664300     1.2057741932
   17      C      -2.8992147869     0.1636709112     1.2334038697
   18      C      -2.9073344916    -1.9447206504    -0.0123918725
   19      C      -2.9802893256    -1.1929752542    -1.1863178850
   20      C      -3.0114685175     0.1949909972    -1.1601178233
   21      C      -2.9740752525     0.9056398134     0.0410606280
   22      H      -3.0626362542     0.7438788847    -2.0943515336
   23      H      -3.0165156573    -1.7094953487    -2.1397404714
   24      C      -2.9975953087     2.4150029346     0.0158853245
   25      H      -2.1743224941     2.8433641073     0.5931071841
   26      H      -3.9216449038     2.8028438529     0.4485637635
   27      H      -2.9147052680     2.7749805370    -1.0111460382
   28      H      -2.8819675187    -2.9760989301    -0.0376486145
   29      H      -2.8197424391    -1.7683948098     2.0929478004
   30      H      -2.8655044147     0.6566480772     2.1394171093
 ----------------------------------------------------------------

   13    -543.2873134947      5.04E-09 Convergence criterion met
 Total energy in the final basis set = -543.28731349

                    Orbital Energies (a.u.)
 --------------------------------------------------------------

 Alpha MOs
 -- Occupied --
-10.183 -10.183 -10.171 -10.171 -10.170 -10.170 -10.168 -10.168
-10.168 -10.168 -10.167 -10.167 -10.167 -10.167  -0.856  -0.856
 -0.774  -0.774  -0.745  -0.745  -0.689  -0.689  -0.609  -0.609
 -0.588  -0.588  -0.519  -0.519  -0.463  -0.463  -0.460  -0.460
 -0.423  -0.422  -0.421  -0.421  -0.416  -0.416  -0.388  -0.388
 -0.355  -0.355  -0.348  -0.348  -0.340  -0.340  -0.252  -0.252
 -0.245  -0.245

          Ground-State Mulliken Net Atomic Charges

     Atom                 Charge (a.u.)
  ----------------------------------------
      1 C                    -0.016252
      2 C                    -0.429245
      3 C                    -0.342012
      4 C                    -0.048838
      5 C                    -0.756572
      6 C                     0.994814
      7 H                     0.133417
      8 H                     0.169738
      9 C                    -0.617409
     10 H                     0.146471
     11 H                     0.153988
     12 H                     0.147260
     13 H                     0.146845
     14 H                     0.158826
     15 H                     0.158340
     16 C                    -0.073668
     17 C                    -0.376175
     18 C                    -0.311101
     19 C                    -0.121870
     20 C                    -0.656162
     21 C                     0.935208
     22 H                     0.135197
     23 H                     0.170227
     24 C                    -0.617942
     25 H                     0.147408
     26 H                     0.158108
     27 H                     0.147604
     28 H                     0.147196
     29 H                     0.159160
     30 H                     0.157440
  ----------------------------------------
  Sum of atomic charges =     0.000000

                    Cartesian Multipole Moments
 -----------------------------------------------------------------
    Charge (ESU x 10^10)
                 0.0000
    Dipole Moment (Debye)
         X      -0.0156      Y       0.6929      Z       0.1353
       Tot       0.7062
    Quadrupole Moments (Debye-Ang)
        XX     -93.7482     XY      -0.3281     YY     -77.0334
        XZ       0.6204     YZ       0.0803     ZZ     -78.3760

 Total job time:  81.82s(wall), 325.70s(cpu)
        *  Thank you very much for using Q-Chem.  Have a nice day.  *
