 Q-Chem 5.0, Q-Chem, Inc., Pleasanton, CA (2017)
 Q-Chem 5.0.1 for Intel X86 EM64T Linux

User input:
--------------------------------------------------------------
$molecule
0  1
--
0  1
C        -0.54444000        -0.68370000        -0.06689000
C        -0.55709000        +0.71878000        +0.05493000
C        -1.74320000        -1.41616000        -0.12552000
C        -2.93952000        -0.70056000        -0.05285000
C        -2.95313000        +0.68255000        +0.06934000
C        -1.77161000        +1.42404000        +0.12810000
H        -3.90354000        +1.20325000        +0.11710000
H        -3.87892000        -1.24211000        -0.08988000
C        -1.83960000        +2.92746000        +0.24839000
H        -1.24214000        +3.42352000        -0.52065000
H        -1.45503000        +3.26427000        +1.21284000
H        -2.87211000        +3.26623000        +0.14638000
H        -1.73878000        -2.44393000        -0.21875000
H        +0.35825000        -1.18166000        -0.11386000
H        +0.33551000        +1.23549000        +0.09097000
--
0  1
C        -0.50384000        -1.19813000        +5.81050000
C        -0.51649000        +0.20435000        +5.93232000
C        -1.70260000        -1.93059000        +5.75187000
C        -2.89892000        -1.21499000        +5.82454000
C        -2.91253000        +0.16812000        +5.94673000
C        -1.73101000        +0.90961000        +6.00549000
H        -3.86294000        +0.68882000        +5.99449000
H        -3.83832000        -1.75654000        +5.78751000
C        -1.79900000        +2.41303000        +6.12578000
H        -1.20154000        +2.90909000        +5.35674000
H        -1.41443000        +2.74984000        +7.09023000
H        -2.83151000        +2.75180000        +6.02377000
H        -1.69818000        -2.95836000        +5.65864000
H        +0.39885000        -1.69609000        +5.76353000
H        +0.37611000        +0.72106000        +5.96836000
$end

$rem
JOBTYPE                   SP
METHOD                    B3LYP
DFT_D                     d3_op
BASIS                     6-311++G(d,p)
SYMMETRY                  False
THRESH                    12
SCF_CONVERGENCE           8
MAX_SUB_FILE_NUM          128
MEM_STATIC                400
MEM_TOTAL                 4000
$end
--------------------------------------------------------------

             Standard Nuclear Orientation (Angstroms)
    I     Atom           X                Y                Z
 ----------------------------------------------------------------
    1      C       2.9467661749    -1.2305496805     1.1901346745
    2      C       2.9486421962     0.1769805983     1.2185121286
    3      C       2.9491672763    -1.9300954977    -0.0295335388
    4      C       2.9478984964    -1.1763328153    -1.2044318493
    5      C       2.9477119603     0.2119713122    -1.1775894400
    6      C       2.9460936545     0.9210219200     0.0251134679
    7      H       2.9524403778     0.7623179210    -2.1123540778
    8      H       2.9437476745    -1.6914452018    -2.1592941344
    9      C       2.9587395733     2.4305354014     0.0011728963
   10      H       3.7642038913     2.8394091800     0.6164012787
   11      H       2.0249434068     2.8395305541     0.3913607330
   12      H       3.0972518744     2.7889519701    -1.0203945067
   13      H       2.9517681860    -2.9617732863    -0.0551600517
   14      H       2.9435780568    -1.7567945375     2.0778709895
   15      H       2.9519225945     0.6686360677     2.1258637717
   16      C      -2.9532327073    -1.2269504844     1.1899521130
   17      C      -2.9513566860     0.1805797944     1.2183295671
   18      C      -2.9508316058    -1.9264963016    -0.0297161003
   19      C      -2.9521003858    -1.1727336192    -1.2046144108
   20      C      -2.9522869218     0.2155705083    -1.1777720015
   21      C      -2.9539052277     0.9246211162     0.0249309064
   22      H      -2.9475585043     0.7659171171    -2.1125366393
   23      H      -2.9562512076    -1.6878460056    -2.1594766959
   24      C      -2.9412593088     2.4341345975     0.0009903348
   25      H      -2.1357949909     2.8430083761     0.6162187172
   26      H      -3.8750554753     2.8431297502     0.3911781715
   27      H      -2.8027470078     2.7925511663    -1.0205770682
   28      H      -2.9482306961    -2.9581740901    -0.0553426132
   29      H      -2.9564208254    -1.7531953414     2.0776884280
   30      H      -2.9480762876     0.6722352638     2.1256812102
 ----------------------------------------------------------------

   13    -543.2873238833      4.78E-09 Convergence criterion met
 Total energy in the final basis set = -543.28732388

                    Orbital Energies (a.u.)
 --------------------------------------------------------------

 Alpha MOs
 -- Occupied --
-10.183 -10.183 -10.171 -10.171 -10.170 -10.170 -10.168 -10.168
-10.168 -10.168 -10.167 -10.167 -10.167 -10.167  -0.856  -0.856
 -0.774  -0.774  -0.745  -0.745  -0.689  -0.689  -0.609  -0.609
 -0.588  -0.588  -0.519  -0.519  -0.463  -0.463  -0.460  -0.460
 -0.423  -0.422  -0.421  -0.421  -0.416  -0.416  -0.388  -0.388
 -0.355  -0.355  -0.348  -0.348  -0.340  -0.340  -0.252  -0.252
 -0.245  -0.245

          Ground-State Mulliken Net Atomic Charges

     Atom                 Charge (a.u.)
  ----------------------------------------
      1 C                    -0.017205
      2 C                    -0.426551
      3 C                    -0.340075
      4 C                    -0.050546
      5 C                    -0.755263
      6 C                     0.987291
      7 H                     0.133921
      8 H                     0.169693
      9 C                    -0.613411
     10 H                     0.146731
     11 H                     0.154296
     12 H                     0.147199
     13 H                     0.146797
     14 H                     0.158692
     15 H                     0.157948
     16 C                    -0.071665
     17 C                    -0.389263
     18 C                    -0.311147
     19 C                    -0.122688
     20 C                    -0.646384
     21 C                     0.936809
     22 H                     0.135435
     23 H                     0.169710
     24 C                    -0.616930
     25 H                     0.147503
     26 H                     0.157980
     27 H                     0.147030
     28 H                     0.147183
     29 H                     0.159518
     30 H                     0.157392
  ----------------------------------------
  Sum of atomic charges =     0.000000

                    Cartesian Multipole Moments
 -----------------------------------------------------------------
    Charge (ESU x 10^10)
                 0.0000
    Dipole Moment (Debye)
         X      -0.0044      Y       0.6929      Z       0.1359
       Tot       0.7061
    Quadrupole Moments (Debye-Ang)
        XX     -93.7825     XY       0.0371     YY     -77.0271
        XZ      -0.0303     YZ       0.0679     ZZ     -78.3466

 Total job time:  80.85s(wall), 322.21s(cpu)
        *  Thank you very much for using Q-Chem.  Have a nice day.  *
