 Q-Chem 5.0, Q-Chem, Inc., Pleasanton, CA (2017)
 Q-Chem 5.0.1 for Intel X86 EM64T Linux

User input:
--------------------------------------------------------------
$molecule
0  1
--
0  1
C        -0.54444000        -0.68370000        -0.06689000
C        -0.55709000        +0.71878000        +0.05493000
C        -1.74320000        -1.41616000        -0.12552000
C        -2.93952000        -0.70056000        -0.05285000
C        -2.95313000        +0.68255000        +0.06934000
C        -1.77161000        +1.42404000        +0.12810000
H        -3.90354000        +1.20325000        +0.11710000
H        -3.87892000        -1.24211000        -0.08988000
C        -1.83960000        +2.92746000        +0.24839000
H        -1.24214000        +3.42352000        -0.52065000
H        -1.45503000        +3.26427000        +1.21284000
H        -2.87211000        +3.26623000        +0.14638000
H        -1.73878000        -2.44393000        -0.21875000
H        +0.35825000        -1.18166000        -0.11386000
H        +0.33551000        +1.23549000        +0.09097000
--
0  1
C        -0.70166000        -1.01259000        +4.51864000
C        -0.71431000        +0.38989000        +4.64046000
C        -1.90042000        -1.74505000        +4.46001000
C        -3.09674000        -1.02945000        +4.53268000
C        -3.11035000        +0.35366000        +4.65487000
C        -1.92883000        +1.09515000        +4.71363000
H        -4.06076000        +0.87436000        +4.70263000
H        -4.03614000        -1.57100000        +4.49565000
C        -1.99682000        +2.59857000        +4.83392000
H        -1.39936000        +3.09463000        +4.06488000
H        -1.61225000        +2.93538000        +5.79837000
H        -3.02933000        +2.93734000        +4.73191000
H        -1.89600000        -2.77282000        +4.36678000
H        +0.20103000        -1.51055000        +4.47167000
H        +0.17829000        +0.90660000        +4.67650000
$end

$rem
JOBTYPE                   SP
METHOD                    B3LYP
DFT_D                     d3_op
BASIS                     6-311++G(d,p)
SYMMETRY                  False
THRESH                    12
SCF_CONVERGENCE           8
MAX_SUB_FILE_NUM          128
MEM_STATIC                400
MEM_TOTAL                 4000
$end
--------------------------------------------------------------

             Standard Nuclear Orientation (Angstroms)
    I     Atom           X                Y                Z
 ----------------------------------------------------------------
    1      C       2.3933817814    -1.1973606105     1.1663650883
    2      C       2.3545902116     0.2096526294     1.1939194391
    3      C       2.3550535038    -1.8989654477    -0.0515192501
    4      C       2.2718566776    -1.1479319923    -1.2252197520
    5      C       2.2315035686     0.2397990645    -1.1990847007
    6      C       2.2694714909     0.9508938107     0.0018117839
    7      H       2.1725152917     0.7881676075    -2.1331623206
    8      H       2.2348561235    -1.6648509190    -2.1783964228
    9      C       2.2357365233     2.4600612327    -0.0234798105
   10      H       3.0586780428     2.8940249908     0.5500175382
   11      H       1.3110415036     2.8417846071     0.4132412097
   12      H       2.3116542843     2.8204046865    -1.0509218488
   13      H       2.3872117179    -2.9301552638    -0.0767373884
   14      H       2.4508097681    -1.7216864414     2.0533848332
   15      H       2.3890219969     0.7030039644     2.0997018512
   16      C      -2.2060322695    -1.2544640246     1.2122097187
   17      C      -2.2448238393     0.1525492153     1.2397640695
   18      C      -2.2443605471    -1.9560688618    -0.0056746197
   19      C      -2.3275573733    -1.2050354064    -1.1793751216
   20      C      -2.3679104823     0.1826956504    -1.1532400703
   21      C      -2.3299425600     0.8937903965     0.0476564144
   22      H      -2.4268987591     0.7310641933    -2.0873176902
   23      H      -2.3645579274    -1.7219543331    -2.1325517924
   24      C      -2.3636775275     2.4029578186     0.0223648199
   25      H      -1.5407360081     2.8369215767     0.5958621687
   26      H      -3.2883725472     2.7846811930     0.4590858401
   27      H      -2.2877597666     2.7633012724    -1.0050772184
   28      H      -2.2122023329    -2.9872586780    -0.0308927580
   29      H      -2.1486042828    -1.7787898556     2.0992294636
   30      H      -2.2103920540     0.6459005503     2.1455464817
 ----------------------------------------------------------------

   13    -543.2888404136      7.80E-09 Convergence criterion met
 Total energy in the final basis set = -543.28884041

                    Orbital Energies (a.u.)
 --------------------------------------------------------------

 Alpha MOs
 -- Occupied --
-10.182 -10.181 -10.170 -10.170 -10.168 -10.168 -10.168 -10.168
-10.167 -10.167 -10.166 -10.166 -10.165 -10.165  -0.854  -0.854
 -0.773  -0.772  -0.744  -0.743  -0.689  -0.688  -0.608  -0.607
 -0.587  -0.587  -0.518  -0.517  -0.462  -0.462  -0.459  -0.459
 -0.425  -0.420  -0.419  -0.419  -0.415  -0.415  -0.388  -0.387
 -0.357  -0.351  -0.347  -0.347  -0.339  -0.339  -0.253  -0.247
 -0.246  -0.241

          Ground-State Mulliken Net Atomic Charges

     Atom                 Charge (a.u.)
  ----------------------------------------
      1 C                    -0.106768
      2 C                    -0.436116
      3 C                    -0.307466
      4 C                    -0.160113
      5 C                    -0.485596
      6 C                     0.936308
      7 H                     0.150872
      8 H                     0.163676
      9 C                    -0.672314
     10 H                     0.146155
     11 H                     0.153968
     12 H                     0.143135
     13 H                     0.151119
     14 H                     0.155821
     15 H                     0.164862
     16 C                    -0.161972
     17 C                    -0.348235
     18 C                    -0.283259
     19 C                    -0.222419
     20 C                    -0.397811
     21 C                     0.833279
     22 H                     0.151150
     23 H                     0.167555
     24 C                    -0.656323
     25 H                     0.146600
     26 H                     0.157217
     27 H                     0.140619
     28 H                     0.150680
     29 H                     0.156910
     30 H                     0.168467
  ----------------------------------------
  Sum of atomic charges =    -0.000000

                    Cartesian Multipole Moments
 -----------------------------------------------------------------
    Charge (ESU x 10^10)
                -0.0000
    Dipole Moment (Debye)
         X      -0.0221      Y       0.6248      Z       0.1229
       Tot       0.6371
    Quadrupole Moments (Debye-Ang)
        XX     -94.0348     XY      -0.4329     YY     -77.3404
        XZ       0.6744     YZ       0.0571     ZZ     -78.5391

 Total job time:  94.55s(wall), 376.43s(cpu)
        *  Thank you very much for using Q-Chem.  Have a nice day.  *
