 Q-Chem 5.0, Q-Chem, Inc., Pleasanton, CA (2017)
 Q-Chem 5.0.1 for Intel X86 EM64T Linux

User input:
--------------------------------------------------------------
$molecule
0  1
C        -0.54444000        -0.68370000        -0.06689000
C        -0.55709000        +0.71878000        +0.05493000
C        -1.74320000        -1.41616000        -0.12552000
C        -2.93952000        -0.70056000        -0.05285000
C        -2.95313000        +0.68255000        +0.06934000
C        -1.77161000        +1.42404000        +0.12810000
H        -3.90354000        +1.20325000        +0.11710000
H        -3.87892000        -1.24211000        -0.08988000
C        -1.83960000        +2.92746000        +0.24839000
H        -1.24214000        +3.42352000        -0.52065000
H        -1.45503000        +3.26427000        +1.21284000
H        -2.87211000        +3.26623000        +0.14638000
H        -1.73878000        -2.44393000        -0.21875000
H        +0.35825000        -1.18166000        -0.11386000
H        +0.33551000        +1.23549000        +0.09097000
@C        -0.51278000        -1.08478000        +4.51548000
@C        -0.52543000        +0.31770000        +4.63730000
@C        -1.71154000        -1.81724000        +4.45685000
@C        -2.90786000        -1.10164000        +4.52952000
@C        -2.92147000        +0.28147000        +4.65171000
@C        -1.73995000        +1.02296000        +4.71047000
@H        -3.87188000        +0.80217000        +4.69947000
@H        -3.84726000        -1.64319000        +4.49249000
@C        -1.80794000        +2.52638000        +4.83076000
@H        -1.21048000        +3.02244000        +4.06172000
@H        -1.42337000        +2.86319000        +5.79521000
@H        -2.84045000        +2.86515000        +4.72875000
@H        -1.70712000        -2.84501000        +4.36362000
@H        +0.38991000        -1.58274000        +4.46851000
@H        +0.36717000        +0.83441000        +4.67334000
$end

$rem
JOBTYPE                   SP
METHOD                    B3LYP
DFT_D                     d3_op
BASIS                     6-311++G(d,p)
SYMMETRY                  False
THRESH                    12
SCF_CONVERGENCE           8
MAX_SUB_FILE_NUM          128
MEM_STATIC                400
MEM_TOTAL                 4000
$end
--------------------------------------------------------------

             Standard Nuclear Orientation (Angstroms)
    I     Atom           X                Y                Z
 ----------------------------------------------------------------
    1      C      -0.5444400000    -0.6837000000    -0.0668900000
    2      C      -0.5570900000     0.7187800000     0.0549300000
    3      C      -1.7432000000    -1.4161600000    -0.1255200000
    4      C      -2.9395200000    -0.7005600000    -0.0528500000
    5      C      -2.9531300000     0.6825500000     0.0693400000
    6      C      -1.7716100000     1.4240400000     0.1281000000
    7      H      -3.9035400000     1.2032500000     0.1171000000
    8      H      -3.8789200000    -1.2421100000    -0.0898800000
    9      C      -1.8396000000     2.9274600000     0.2483900000
   10      H      -1.2421400000     3.4235200000    -0.5206500000
   11      H      -1.4550300000     3.2642700000     1.2128400000
   12      H      -2.8721100000     3.2662300000     0.1463800000
   13      H      -1.7387800000    -2.4439300000    -0.2187500000
   14      H       0.3582500000    -1.1816600000    -0.1138600000
   15      H       0.3355100000     1.2354900000     0.0909700000
   16      GH     -0.5127800000    -1.0847800000     4.5154800000
   17      GH     -0.5254300000     0.3177000000     4.6373000000
   18      GH     -1.7115400000    -1.8172400000     4.4568500000
   19      GH     -2.9078600000    -1.1016400000     4.5295200000
   20      GH     -2.9214700000     0.2814700000     4.6517100000
   21      GH     -1.7399500000     1.0229600000     4.7104700000
   22      GH     -3.8718800000     0.8021700000     4.6994700000
   23      GH     -3.8472600000    -1.6431900000     4.4924900000
   24      GH     -1.8079400000     2.5263800000     4.8307600000
   25      GH     -1.2104800000     3.0224400000     4.0617200000
   26      GH     -1.4233700000     2.8631900000     5.7952100000
   27      GH     -2.8404500000     2.8651500000     4.7287500000
   28      GH     -1.7071200000    -2.8450100000     4.3636200000
   29      GH      0.3899100000    -1.5827400000     4.4685100000
   30      GH      0.3671700000     0.8344100000     4.6733400000
 ----------------------------------------------------------------

   12    -271.6437867211      9.89E-09 Convergence criterion met
 Total energy in the final basis set = -271.64378672

                    Orbital Energies (a.u.)
 --------------------------------------------------------------

 Alpha MOs
 -- Occupied --
-10.185 -10.174 -10.172 -10.171 -10.170 -10.169 -10.169  -0.858
 -0.776  -0.747  -0.691  -0.611  -0.591  -0.521  -0.465  -0.462
 -0.424  -0.423  -0.418  -0.390  -0.358  -0.350  -0.342  -0.255
 -0.247

          Ground-State Mulliken Net Atomic Charges

     Atom                 Charge (a.u.)
  ----------------------------------------
      1 C                    -0.080701
      2 C                    -0.428572
      3 C                    -0.333339
      4 C                    -0.142291
      5 C                    -0.497634
      6 C                     0.911686
      7 H                     0.154090
      8 H                     0.168253
      9 C                    -0.674804
     10 H                     0.147681
     11 H                     0.164436
     12 H                     0.142397
     13 H                     0.151287
     14 H                     0.159768
     15 H                     0.169602
     16 GH                   -0.038010
     17 GH                    0.042783
     18 GH                    0.037223
     19 GH                   -0.034500
     20 GH                    0.001753
     21 GH                   -0.031863
     22 GH                    0.000448
     23 GH                    0.000399
     24 GH                    0.006678
     25 GH                   -0.002816
     26 GH                   -0.000694
     27 GH                    0.001649
     28 GH                    0.003088
     29 GH                   -0.000241
     30 GH                    0.002243
  ----------------------------------------
  Sum of atomic charges =     0.000000

                    Cartesian Multipole Moments
 -----------------------------------------------------------------
    Charge (ESU x 10^10)
                 0.0000
    Dipole Moment (Debye)
         X       0.0614      Y       0.3873      Z       0.0383
       Tot       0.3940
    Quadrupole Moments (Debye-Ang)
        XX     -39.3699     XY      -0.6304     YY     -38.0874
        XZ      -0.1002     YZ       0.7248     ZZ     -46.3970

 Total job time:  83.65s(wall), 333.59s(cpu)
        *  Thank you very much for using Q-Chem.  Have a nice day.  *
