 Q-Chem 5.0, Q-Chem, Inc., Pleasanton, CA (2017)
 Q-Chem 5.0.1 for Intel X86 EM64T Linux

User input:
--------------------------------------------------------------
$molecule
0  1
C        -0.54444000        -0.68370000        -0.06689000
C        -0.55709000        +0.71878000        +0.05493000
C        -1.74320000        -1.41616000        -0.12552000
C        -2.93952000        -0.70056000        -0.05285000
C        -2.95313000        +0.68255000        +0.06934000
C        -1.77161000        +1.42404000        +0.12810000
H        -3.90354000        +1.20325000        +0.11710000
H        -3.87892000        -1.24211000        -0.08988000
C        -1.83960000        +2.92746000        +0.24839000
H        -1.24214000        +3.42352000        -0.52065000
H        -1.45503000        +3.26427000        +1.21284000
H        -2.87211000        +3.26623000        +0.14638000
H        -1.73878000        -2.44393000        -0.21875000
H        +0.35825000        -1.18166000        -0.11386000
H        +0.33551000        +1.23549000        +0.09097000
@C        -0.74609000        -1.10554000        +5.81455000
@C        -0.75874000        +0.29694000        +5.93637000
@C        -1.94485000        -1.83800000        +5.75592000
@C        -3.14117000        -1.12240000        +5.82859000
@C        -3.15478000        +0.26071000        +5.95078000
@C        -1.97326000        +1.00220000        +6.00954000
@H        -4.10519000        +0.78141000        +5.99854000
@H        -4.08057000        -1.66395000        +5.79156000
@C        -2.04125000        +2.50562000        +6.12983000
@H        -1.44379000        +3.00168000        +5.36079000
@H        -1.65668000        +2.84243000        +7.09428000
@H        -3.07376000        +2.84439000        +6.02782000
@H        -1.94043000        -2.86577000        +5.66269000
@H        +0.15660000        -1.60350000        +5.76758000
@H        +0.13386000        +0.81365000        +5.97241000
$end

$rem
JOBTYPE                   SP
METHOD                    B3LYP
DFT_D                     d3_op
BASIS                     6-311++G(d,p)
SYMMETRY                  False
THRESH                    12
SCF_CONVERGENCE           8
MAX_SUB_FILE_NUM          128
MEM_STATIC                400
MEM_TOTAL                 4000
$end
--------------------------------------------------------------

             Standard Nuclear Orientation (Angstroms)
    I     Atom           X                Y                Z
 ----------------------------------------------------------------
    1      C      -0.5444400000    -0.6837000000    -0.0668900000
    2      C      -0.5570900000     0.7187800000     0.0549300000
    3      C      -1.7432000000    -1.4161600000    -0.1255200000
    4      C      -2.9395200000    -0.7005600000    -0.0528500000
    5      C      -2.9531300000     0.6825500000     0.0693400000
    6      C      -1.7716100000     1.4240400000     0.1281000000
    7      H      -3.9035400000     1.2032500000     0.1171000000
    8      H      -3.8789200000    -1.2421100000    -0.0898800000
    9      C      -1.8396000000     2.9274600000     0.2483900000
   10      H      -1.2421400000     3.4235200000    -0.5206500000
   11      H      -1.4550300000     3.2642700000     1.2128400000
   12      H      -2.8721100000     3.2662300000     0.1463800000
   13      H      -1.7387800000    -2.4439300000    -0.2187500000
   14      H       0.3582500000    -1.1816600000    -0.1138600000
   15      H       0.3355100000     1.2354900000     0.0909700000
   16      GH     -0.7460900000    -1.1055400000     5.8145500000
   17      GH     -0.7587400000     0.2969400000     5.9363700000
   18      GH     -1.9448500000    -1.8380000000     5.7559200000
   19      GH     -3.1411700000    -1.1224000000     5.8285900000
   20      GH     -3.1547800000     0.2607100000     5.9507800000
   21      GH     -1.9732600000     1.0022000000     6.0095400000
   22      GH     -4.1051900000     0.7814100000     5.9985400000
   23      GH     -4.0805700000    -1.6639500000     5.7915600000
   24      GH     -2.0412500000     2.5056200000     6.1298300000
   25      GH     -1.4437900000     3.0016800000     5.3607900000
   26      GH     -1.6566800000     2.8424300000     7.0942800000
   27      GH     -3.0737600000     2.8443900000     6.0278200000
   28      GH     -1.9404300000    -2.8657700000     5.6626900000
   29      GH      0.1566000000    -1.6035000000     5.7675800000
   30      GH      0.1338600000     0.8136500000     5.9724100000
 ----------------------------------------------------------------

   12    -271.6435878035      9.59E-09 Convergence criterion met
 Total energy in the final basis set = -271.64358780

                    Orbital Energies (a.u.)
 --------------------------------------------------------------

 Alpha MOs
 -- Occupied --
-10.185 -10.174 -10.172 -10.171 -10.170 -10.169 -10.169  -0.858
 -0.776  -0.747  -0.691  -0.611  -0.591  -0.521  -0.465  -0.462
 -0.424  -0.423  -0.418  -0.390  -0.358  -0.350  -0.342  -0.255
 -0.247

          Ground-State Mulliken Net Atomic Charges

     Atom                 Charge (a.u.)
  ----------------------------------------
      1 C                    -0.018137
      2 C                    -0.427257
      3 C                    -0.347308
      4 C                    -0.048763
      5 C                    -0.749158
      6 C                     0.978924
      7 H                     0.135934
      8 H                     0.171615
      9 C                    -0.614100
     10 H                     0.147059
     11 H                     0.156849
     12 H                     0.147546
     13 H                     0.148003
     14 H                     0.160998
     15 H                     0.160546
     16 GH                   -0.000286
     17 GH                    0.003253
     18 GH                    0.003893
     19 GH                   -0.002693
     20 GH                   -0.007877
     21 GH                    0.001768
     22 GH                   -0.000747
     23 GH                   -0.000317
     24 GH                    0.000255
     25 GH                    0.000233
     26 GH                   -0.000020
     27 GH                    0.000330
     28 GH                    0.000281
     29 GH                   -0.000350
     30 GH                   -0.000476
  ----------------------------------------
  Sum of atomic charges =     0.000000

                    Cartesian Multipole Moments
 -----------------------------------------------------------------
    Charge (ESU x 10^10)
                 0.0000
    Dipole Moment (Debye)
         X       0.0620      Y       0.3874      Z       0.0395
       Tot       0.3943
    Quadrupole Moments (Debye-Ang)
        XX     -39.3513     XY      -0.6306     YY     -38.0697
        XZ      -0.1001     YZ       0.7291     ZZ     -46.4132

 Total job time:  71.71s(wall), 285.20s(cpu)
        *  Thank you very much for using Q-Chem.  Have a nice day.  *
