 Q-Chem 5.0, Q-Chem, Inc., Pleasanton, CA (2017)
 Q-Chem 5.0.1 for Intel X86 EM64T Linux

User input:
--------------------------------------------------------------
$molecule
0  1
--
0  1
C        -0.54444000        -0.68370000        -0.06689000
C        -0.55709000        +0.71878000        +0.05493000
C        -1.74320000        -1.41616000        -0.12552000
C        -2.93952000        -0.70056000        -0.05285000
C        -2.95313000        +0.68255000        +0.06934000
C        -1.77161000        +1.42404000        +0.12810000
H        -3.90354000        +1.20325000        +0.11710000
H        -3.87892000        -1.24211000        -0.08988000
C        -1.83960000        +2.92746000        +0.24839000
H        -1.24214000        +3.42352000        -0.52065000
H        -1.45503000        +3.26427000        +1.21284000
H        -2.87211000        +3.26623000        +0.14638000
H        -1.73878000        -2.44393000        -0.21875000
H        +0.35825000        -1.18166000        -0.11386000
H        +0.33551000        +1.23549000        +0.09097000
--
0  1
C        -0.51278000        -1.08478000        +4.51548000
C        -0.52543000        +0.31770000        +4.63730000
C        -1.71154000        -1.81724000        +4.45685000
C        -2.90786000        -1.10164000        +4.52952000
C        -2.92147000        +0.28147000        +4.65171000
C        -1.73995000        +1.02296000        +4.71047000
H        -3.87188000        +0.80217000        +4.69947000
H        -3.84726000        -1.64319000        +4.49249000
C        -1.80794000        +2.52638000        +4.83076000
H        -1.21048000        +3.02244000        +4.06172000
H        -1.42337000        +2.86319000        +5.79521000
H        -2.84045000        +2.86515000        +4.72875000
H        -1.70712000        -2.84501000        +4.36362000
H        +0.38991000        -1.58274000        +4.46851000
H        +0.36717000        +0.83441000        +4.67334000
$end

$rem
JOBTYPE                   SP
METHOD                    B3LYP
DFT_D                     d3_op
BASIS                     6-311++G(d,p)
SYMMETRY                  False
THRESH                    12
SCF_CONVERGENCE           8
MAX_SUB_FILE_NUM          128
MEM_STATIC                400
MEM_TOTAL                 4000
$end
--------------------------------------------------------------

             Standard Nuclear Orientation (Angstroms)
    I     Atom           X                Y                Z
 ----------------------------------------------------------------
    1      C       2.2958545223    -1.2317936996     1.1901725691
    2      C       2.2987352325     0.1757348833     1.2185499419
    3      C       2.2977881999    -1.9313411900    -0.0294955151
    4      C       2.2970889532    -1.1775779251    -1.2043939289
    5      C       2.2978934134     0.2107259845    -1.1775516537
    6      C       2.2967497698     0.9197777021     0.0251511450
    7      H       2.3030397005     0.7610689706    -2.1123162172
    8      H       2.2925954464    -1.6926873219    -2.1592562756
    9      C       2.3104746092     2.4292817623     0.0012107676
   10      H       3.1162145077     2.8375801384     0.6164604315
   11      H       1.3769605108     2.8389438925     0.3913738498
   12      H       2.4492699420     2.7875991818    -1.0203530021
   13      H       2.2996528293    -2.9630205761    -0.0551218632
   14      H       2.2922669956    -1.7580360456     2.0779088484
   15      H       2.3023428177     0.6673879854     2.1259016258
   16      C      -2.3041395158    -1.2257009528     1.1899142750
   17      C      -2.3012588056     0.1818276301     1.2182916478
   18      C      -2.3022058382    -1.9252484432    -0.0297538092
   19      C      -2.3029050849    -1.1714851783    -1.2046522231
   20      C      -2.3021006247     0.2168187313    -1.1778099478
   21      C      -2.3032442683     0.9258704489     0.0248928509
   22      H      -2.2969543376     0.7671617174    -2.1125745113
   23      H      -2.3073985917    -1.6865945751    -2.1595145697
   24      C      -2.2895194289     2.4353745091     0.0009524735
   25      H      -1.4837795304     2.8436728852     0.6162021373
   26      H      -3.2230335273     2.8450366393     0.3911155557
   27      H      -2.1507240961     2.7936919286    -1.0206112962
   28      H      -2.3003412088    -2.9569278293    -0.0553801573
   29      H      -2.3077270425    -1.7519432987     2.0776505543
   30      H      -2.2976512204     0.6734807323     2.1256433316
 ----------------------------------------------------------------

   13    -543.2888386763      5.60E-09 Convergence criterion met
 Total energy in the final basis set = -543.28883868

                    Orbital Energies (a.u.)
 --------------------------------------------------------------

 Alpha MOs
 -- Occupied --
-10.182 -10.181 -10.170 -10.170 -10.168 -10.168 -10.168 -10.168
-10.167 -10.167 -10.166 -10.166 -10.165 -10.165  -0.854  -0.854
 -0.773  -0.772  -0.744  -0.743  -0.689  -0.688  -0.608  -0.607
 -0.587  -0.587  -0.518  -0.517  -0.462  -0.462  -0.459  -0.459
 -0.425  -0.420  -0.419  -0.419  -0.415  -0.414  -0.388  -0.387
 -0.356  -0.351  -0.347  -0.347  -0.339  -0.339  -0.253  -0.247
 -0.246  -0.241

          Ground-State Mulliken Net Atomic Charges

     Atom                 Charge (a.u.)
  ----------------------------------------
      1 C                    -0.102842
      2 C                    -0.442552
      3 C                    -0.290635
      4 C                    -0.182951
      5 C                    -0.477608
      6 C                     0.924864
      7 H                     0.151947
      8 H                     0.162985
      9 C                    -0.661645
     10 H                     0.146559
     11 H                     0.155736
     12 H                     0.142657
     13 H                     0.151461
     14 H                     0.155477
     15 H                     0.165286
     16 C                    -0.175600
     17 C                    -0.345079
     18 C                    -0.290526
     19 C                    -0.204817
     20 C                    -0.390265
     21 C                     0.830936
     22 H                     0.151603
     23 H                     0.167423
     24 C                    -0.659632
     25 H                     0.144148
     26 H                     0.157019
     27 H                     0.139824
     28 H                     0.150702
     29 H                     0.157006
     30 H                     0.168520
  ----------------------------------------
  Sum of atomic charges =    -0.000000

                    Cartesian Multipole Moments
 -----------------------------------------------------------------
    Charge (ESU x 10^10)
                -0.0000
    Dipole Moment (Debye)
         X      -0.0087      Y       0.6242      Z       0.1239
       Tot       0.6365
    Quadrupole Moments (Debye-Ang)
        XX     -94.0835     XY       0.0467     YY     -77.3294
        XZ      -0.0310     YZ       0.0402     ZZ     -78.5024

 Total job time:  94.16s(wall), 375.33s(cpu)
        *  Thank you very much for using Q-Chem.  Have a nice day.  *
