 Q-Chem 5.0, Q-Chem, Inc., Pleasanton, CA (2017)
 Q-Chem 5.0.1 for Intel X86 EM64T Linux

User input:
--------------------------------------------------------------
$molecule
0  1
C        -0.54444000        -0.68370000        -0.06689000
C        -0.55709000        +0.71878000        +0.05493000
C        -1.74320000        -1.41616000        -0.12552000
C        -2.93952000        -0.70056000        -0.05285000
C        -2.95313000        +0.68255000        +0.06934000
C        -1.77161000        +1.42404000        +0.12810000
H        -3.90354000        +1.20325000        +0.11710000
H        -3.87892000        -1.24211000        -0.08988000
C        -1.83960000        +2.92746000        +0.24839000
H        -1.24214000        +3.42352000        -0.52065000
H        -1.45503000        +3.26427000        +1.21284000
H        -2.87211000        +3.26623000        +0.14638000
H        -1.73878000        -2.44393000        -0.21875000
H        +0.35825000        -1.18166000        -0.11386000
H        +0.33551000        +1.23549000        +0.09097000
@C        -0.50384000        -1.19813000        +5.81050000
@C        -0.51649000        +0.20435000        +5.93232000
@C        -1.70260000        -1.93059000        +5.75187000
@C        -2.89892000        -1.21499000        +5.82454000
@C        -2.91253000        +0.16812000        +5.94673000
@C        -1.73101000        +0.90961000        +6.00549000
@H        -3.86294000        +0.68882000        +5.99449000
@H        -3.83832000        -1.75654000        +5.78751000
@C        -1.79900000        +2.41303000        +6.12578000
@H        -1.20154000        +2.90909000        +5.35674000
@H        -1.41443000        +2.74984000        +7.09023000
@H        -2.83151000        +2.75180000        +6.02377000
@H        -1.69818000        -2.95836000        +5.65864000
@H        +0.39885000        -1.69609000        +5.76353000
@H        +0.37611000        +0.72106000        +5.96836000
$end

$rem
JOBTYPE                   SP
METHOD                    B3LYP
DFT_D                     d3_op
BASIS                     6-311++G(d,p)
SYMMETRY                  False
THRESH                    12
SCF_CONVERGENCE           8
MAX_SUB_FILE_NUM          128
MEM_STATIC                400
MEM_TOTAL                 4000
$end
--------------------------------------------------------------

             Standard Nuclear Orientation (Angstroms)
    I     Atom           X                Y                Z
 ----------------------------------------------------------------
    1      C      -0.5444400000    -0.6837000000    -0.0668900000
    2      C      -0.5570900000     0.7187800000     0.0549300000
    3      C      -1.7432000000    -1.4161600000    -0.1255200000
    4      C      -2.9395200000    -0.7005600000    -0.0528500000
    5      C      -2.9531300000     0.6825500000     0.0693400000
    6      C      -1.7716100000     1.4240400000     0.1281000000
    7      H      -3.9035400000     1.2032500000     0.1171000000
    8      H      -3.8789200000    -1.2421100000    -0.0898800000
    9      C      -1.8396000000     2.9274600000     0.2483900000
   10      H      -1.2421400000     3.4235200000    -0.5206500000
   11      H      -1.4550300000     3.2642700000     1.2128400000
   12      H      -2.8721100000     3.2662300000     0.1463800000
   13      H      -1.7387800000    -2.4439300000    -0.2187500000
   14      H       0.3582500000    -1.1816600000    -0.1138600000
   15      H       0.3355100000     1.2354900000     0.0909700000
   16      GH     -0.5038400000    -1.1981300000     5.8105000000
   17      GH     -0.5164900000     0.2043500000     5.9323200000
   18      GH     -1.7026000000    -1.9305900000     5.7518700000
   19      GH     -2.8989200000    -1.2149900000     5.8245400000
   20      GH     -2.9125300000     0.1681200000     5.9467300000
   21      GH     -1.7310100000     0.9096100000     6.0054900000
   22      GH     -3.8629400000     0.6888200000     5.9944900000
   23      GH     -3.8383200000    -1.7565400000     5.7875100000
   24      GH     -1.7990000000     2.4130300000     6.1257800000
   25      GH     -1.2015400000     2.9090900000     5.3567400000
   26      GH     -1.4144300000     2.7498400000     7.0902300000
   27      GH     -2.8315100000     2.7518000000     6.0237700000
   28      GH     -1.6981800000    -2.9583600000     5.6586400000
   29      GH      0.3988500000    -1.6960900000     5.7635300000
   30      GH      0.3761100000     0.7210600000     5.9683600000
 ----------------------------------------------------------------

   12    -271.6435880546      9.59E-09 Convergence criterion met
 Total energy in the final basis set = -271.64358805

                    Orbital Energies (a.u.)
 --------------------------------------------------------------

 Alpha MOs
 -- Occupied --
-10.185 -10.174 -10.172 -10.171 -10.170 -10.169 -10.169  -0.858
 -0.776  -0.747  -0.691  -0.611  -0.591  -0.521  -0.465  -0.462
 -0.424  -0.423  -0.418  -0.390  -0.358  -0.350  -0.342  -0.255
 -0.247

          Ground-State Mulliken Net Atomic Charges

     Atom                 Charge (a.u.)
  ----------------------------------------
      1 C                    -0.020384
      2 C                    -0.425922
      3 C                    -0.345675
      4 C                    -0.049773
      5 C                    -0.747319
      6 C                     0.973500
      7 H                     0.136339
      8 H                     0.171623
      9 C                    -0.610449
     10 H                     0.147239
     11 H                     0.157138
     12 H                     0.147461
     13 H                     0.147929
     14 H                     0.160804
     15 H                     0.160321
     16 GH                   -0.000448
     17 GH                    0.004075
     18 GH                    0.003765
     19 GH                   -0.002439
     20 GH                   -0.008635
     21 GH                    0.002207
     22 GH                   -0.000828
     23 GH                   -0.000275
     24 GH                   -0.000224
     25 GH                    0.000152
     26 GH                   -0.000021
     27 GH                    0.000403
     28 GH                    0.000257
     29 GH                   -0.000383
     30 GH                   -0.000438
  ----------------------------------------
  Sum of atomic charges =     0.000000

                    Cartesian Multipole Moments
 -----------------------------------------------------------------
    Charge (ESU x 10^10)
                 0.0000
    Dipole Moment (Debye)
         X       0.0623      Y       0.3872      Z       0.0395
       Tot       0.3942
    Quadrupole Moments (Debye-Ang)
        XX     -39.3525     XY      -0.6303     YY     -38.0701
        XZ      -0.0997     YZ       0.7287     ZZ     -46.4131

 Total job time:  71.02s(wall), 282.78s(cpu)
        *  Thank you very much for using Q-Chem.  Have a nice day.  *
