 Q-Chem 5.0, Q-Chem, Inc., Pleasanton, CA (2017)
 Q-Chem 5.0.1 for Intel X86 EM64T Linux

User input:
--------------------------------------------------------------
$molecule
0  1
C        -2.34252000        +0.29093000        +5.46728000
C        -2.35517000        +1.69341000        +5.58910000
C        -3.54128000        -0.44153000        +5.40865000
C        -4.73760000        +0.27407000        +5.48132000
C        -4.75121000        +1.65718000        +5.60351000
C        -3.56969000        +2.39867000        +5.66227000
H        -5.70162000        +2.17788000        +5.65127000
H        -5.67700000        -0.26748000        +5.44429000
C        -3.63768000        +3.90209000        +5.78256000
C        -3.57911000        -1.94763000        +5.28827000
H        -3.19560000        -2.27760000        +4.32094000
H        -4.60380000        -2.30712000        +5.39790000
H        -2.96766000        -2.43314000        +6.05343000
H        -3.04022000        +4.39815000        +5.01352000
H        -3.25311000        +4.23890000        +6.74701000
H        -4.67019000        +4.24086000        +5.68055000
H        -1.43983000        -0.20703000        +5.42031000
H        -1.46257000        +2.21012000        +5.62514000
@C        -0.54444000        -0.68370000        -0.06689000
@C        -0.55709000        +0.71878000        +0.05493000
@C        -1.74320000        -1.41616000        -0.12552000
@C        -2.93952000        -0.70056000        -0.05285000
@C        -2.95313000        +0.68255000        +0.06934000
@C        -1.77161000        +1.42404000        +0.12810000
@H        -3.90354000        +1.20325000        +0.11710000
@H        -3.87892000        -1.24211000        -0.08988000
@C        -1.83960000        +2.92746000        +0.24839000
@C        -1.78103000        -2.92226000        -0.24590000
@H        -1.39752000        -3.25223000        -1.21323000
@H        -2.80572000        -3.28175000        -0.13627000
@H        -1.16958000        -3.40777000        +0.51926000
@H        -1.24214000        +3.42352000        -0.52065000
@H        -1.45503000        +3.26427000        +1.21284000
@H        -2.87211000        +3.26623000        +0.14638000
@H        +0.35825000        -1.18166000        -0.11386000
@H        +0.33551000        +1.23549000        +0.09097000
$end

$rem
JOBTYPE                   SP
METHOD                    B3LYP
DFT_D                     d3_op
BASIS                     6-311++G(d,p)
SYMMETRY                  False
THRESH                    12
SCF_CONVERGENCE           8
MAX_SUB_FILE_NUM          128
MEM_STATIC                400
MEM_TOTAL                 4000
$end
--------------------------------------------------------------

             Standard Nuclear Orientation (Angstroms)
    I     Atom           X                Y                Z
 ----------------------------------------------------------------
    1      C      -2.3425200000     0.2909300000     5.4672800000
    2      C      -2.3551700000     1.6934100000     5.5891000000
    3      C      -3.5412800000    -0.4415300000     5.4086500000
    4      C      -4.7376000000     0.2740700000     5.4813200000
    5      C      -4.7512100000     1.6571800000     5.6035100000
    6      C      -3.5696900000     2.3986700000     5.6622700000
    7      H      -5.7016200000     2.1778800000     5.6512700000
    8      H      -5.6770000000    -0.2674800000     5.4442900000
    9      C      -3.6376800000     3.9020900000     5.7825600000
   10      C      -3.5791100000    -1.9476300000     5.2882700000
   11      H      -3.1956000000    -2.2776000000     4.3209400000
   12      H      -4.6038000000    -2.3071200000     5.3979000000
   13      H      -2.9676600000    -2.4331400000     6.0534300000
   14      H      -3.0402200000     4.3981500000     5.0135200000
   15      H      -3.2531100000     4.2389000000     6.7470100000
   16      H      -4.6701900000     4.2408600000     5.6805500000
   17      H      -1.4398300000    -0.2070300000     5.4203100000
   18      H      -1.4625700000     2.2101200000     5.6251400000
   19      GH     -0.5444400000    -0.6837000000    -0.0668900000
   20      GH     -0.5570900000     0.7187800000     0.0549300000
   21      GH     -1.7432000000    -1.4161600000    -0.1255200000
   22      GH     -2.9395200000    -0.7005600000    -0.0528500000
   23      GH     -2.9531300000     0.6825500000     0.0693400000
   24      GH     -1.7716100000     1.4240400000     0.1281000000
   25      GH     -3.9035400000     1.2032500000     0.1171000000
   26      GH     -3.8789200000    -1.2421100000    -0.0898800000
   27      GH     -1.8396000000     2.9274600000     0.2483900000
   28      GH     -1.7810300000    -2.9222600000    -0.2459000000
   29      GH     -1.3975200000    -3.2522300000    -1.2132300000
   30      GH     -2.8057200000    -3.2817500000    -0.1362700000
   31      GH     -1.1695800000    -3.4077700000     0.5192600000
   32      GH     -1.2421400000     3.4235200000    -0.5206500000
   33      GH     -1.4550300000     3.2642700000     1.2128400000
   34      GH     -2.8721100000     3.2662300000     0.1463800000
   35      GH      0.3582500000    -1.1816600000    -0.1138600000
   36      GH      0.3355100000     1.2354900000     0.0909700000
 ----------------------------------------------------------------

   11    -310.9759280948      9.22E-09 Convergence criterion met
 Total energy in the final basis set = -310.97592809

                    Orbital Energies (a.u.)
 --------------------------------------------------------------

 Alpha MOs
 -- Occupied --
-10.180 -10.180 -10.168 -10.168 -10.168 -10.167 -10.167 -10.167
 -0.859  -0.787  -0.745  -0.721  -0.658  -0.612  -0.577  -0.496
 -0.472  -0.460  -0.425  -0.421  -0.417  -0.404  -0.397  -0.376
 -0.345  -0.342  -0.339  -0.252  -0.236

          Ground-State Mulliken Net Atomic Charges

     Atom                 Charge (a.u.)
  ----------------------------------------
      1 C                    -0.192946
      2 C                    -0.156821
      3 C                     0.629484
      4 C                    -0.615530
      5 C                    -0.568770
      6 C                     0.650808
      7 H                     0.142836
      8 H                     0.149824
      9 C                    -0.620417
     10 C                    -0.636946
     11 H                     0.155184
     12 H                     0.145137
     13 H                     0.147340
     14 H                     0.149256
     15 H                     0.158564
     16 H                     0.147591
     17 H                     0.163345
     18 H                     0.160433
     19 GH                    0.000320
     20 GH                   -0.003771
     21 GH                    0.005088
     22 GH                   -0.004248
     23 GH                   -0.009048
     24 GH                    0.008188
     25 GH                    0.000152
     26 GH                   -0.001198
     27 GH                   -0.006190
     28 GH                    0.002049
     29 GH                    0.000036
     30 GH                    0.000132
     31 GH                    0.000663
     32 GH                   -0.000376
     33 GH                   -0.000185
     34 GH                    0.000821
     35 GH                   -0.000280
     36 GH                   -0.000523
  ----------------------------------------
  Sum of atomic charges =     0.000000

                    Cartesian Multipole Moments
 -----------------------------------------------------------------
    Charge (ESU x 10^10)
                -0.0000
    Dipole Moment (Debye)
         X       0.0921      Y       0.0024      Z      -0.0048
       Tot       0.0923
    Quadrupole Moments (Debye-Ang)
        XX     -46.6008     XY       0.0843     YY     -44.6902
        XZ       0.4833     YZ       0.6861     ZZ     -52.7724

 Total job time:  112.28s(wall), 446.56s(cpu)
        *  Thank you very much for using Q-Chem.  Have a nice day.  *
