 Q-Chem 5.0, Q-Chem, Inc., Pleasanton, CA (2017)
 Q-Chem 5.0.1 for Intel X86 EM64T Linux

User input:
--------------------------------------------------------------
$molecule
0  1
--
0  1
C        -0.54444000        -0.68370000        -0.06689000
C        -0.55709000        +0.71878000        +0.05493000
C        -1.74320000        -1.41616000        -0.12552000
C        -2.93952000        -0.70056000        -0.05285000
C        -2.95313000        +0.68255000        +0.06934000
C        -1.77161000        +1.42404000        +0.12810000
H        -3.90354000        +1.20325000        +0.11710000
H        -3.87892000        -1.24211000        -0.08988000
C        -1.83960000        +2.92746000        +0.24839000
C        -1.78103000        -2.92226000        -0.24590000
H        -1.39752000        -3.25223000        -1.21323000
H        -2.80572000        -3.28175000        -0.13627000
H        -1.16958000        -3.40777000        +0.51926000
H        -1.24214000        +3.42352000        -0.52065000
H        -1.45503000        +3.26427000        +1.21284000
H        -2.87211000        +3.26623000        +0.14638000
H        +0.35825000        -1.18166000        -0.11386000
H        +0.33551000        +1.23549000        +0.09097000
--
0  1
C        -1.94633000        +0.07618000        +4.24788000
C        -1.95898000        +1.47866000        +4.36970000
C        -3.14509000        -0.65628000        +4.18925000
C        -4.34141000        +0.05932000        +4.26192000
C        -4.35502000        +1.44243000        +4.38411000
C        -3.17350000        +2.18392000        +4.44287000
H        -5.30543000        +1.96313000        +4.43187000
H        -5.28081000        -0.48223000        +4.22489000
C        -3.24149000        +3.68734000        +4.56316000
C        -3.18292000        -2.16238000        +4.06887000
H        -2.79941000        -2.49235000        +3.10154000
H        -4.20761000        -2.52187000        +4.17850000
H        -2.57147000        -2.64789000        +4.83403000
H        -2.64403000        +4.18340000        +3.79412000
H        -2.85692000        +4.02415000        +5.52761000
H        -4.27400000        +4.02611000        +4.46115000
H        -1.04364000        -0.42178000        +4.20091000
H        -1.06638000        +1.99537000        +4.40574000
$end

$rem
JOBTYPE                   SP
METHOD                    B3LYP
DFT_D                     d3_op
BASIS                     6-311++G(d,p)
SYMMETRY                  False
THRESH                    12
SCF_CONVERGENCE           8
MAX_SUB_FILE_NUM          128
MEM_STATIC                400
MEM_TOTAL                 4000
$end
--------------------------------------------------------------

             Standard Nuclear Orientation (Angstroms)
    I     Atom           X                Y                Z
 ----------------------------------------------------------------
    1      C       2.9391955079     0.4150177629     1.0009750303
    2      C       2.1759114762     1.5972995201     0.9615083510
    3      C       2.9597185111    -0.4702846731    -0.0911692227
    4      C       2.1923973065    -0.1337717459    -1.2076471894
    5      C       1.4376066575     1.0310731193    -1.2468443383
    6      C       1.4073863086     1.9204782194    -0.1710678901
    7      H       0.8587062001     1.2604526918    -2.1350717573
    8      H       2.1858773877    -0.8026727170    -2.0618421114
    9      C       0.5807906201     3.1801556085    -0.2675897216
   10      C       3.7548148957    -1.7556172756    -0.0923953670
   11      H       4.8283104480    -1.5575233019    -0.0850791735
   12      H       3.5151082742    -2.3441781726    -0.9797387049
   13      H       3.5401105272    -2.3685126602     0.7869920162
   14      H       1.1688308295     4.0705084161    -0.0310794960
   15      H      -0.2552277917     3.1586381835     0.4339151459
   16      H       0.1856509263     3.2937038288    -1.2786384232
   17      H       3.4919573399     0.1948272885     1.8441773137
   18      H       2.1803952463     2.2344047076     1.7733579316
   19      C      -1.4189647366    -1.0279391846     1.2912643181
   20      C      -2.1822487682     0.1543425726     1.2517976388
   21      C      -1.3984417333    -1.9132416206     0.1991200651
   22      C      -2.1657629380    -1.5767286934    -0.9173579016
   23      C      -2.9205535870    -0.4118838282    -0.9565550505
   24      C      -2.9507739359     0.4775212719     0.1192213977
   25      H      -3.4994540443    -0.1825042557    -1.8447824695
   26      H      -2.1722828568    -2.2456296645    -1.7715528237
   27      C      -3.7773696244     1.7371986610     0.0226995662
   28      C      -0.6033453487    -3.1985742231     0.1978939208
   29      H       0.4701502036    -3.0004802494     0.2052101143
   30      H      -0.8430519703    -3.7871351201    -0.6894494171
   31      H      -0.8180497173    -3.8114696077     1.0772813040
   32      H      -3.1893294149     2.6275514686     0.2592097917
   33      H      -4.6133880361     1.7156812360     0.7242044337
   34      H      -4.1725093182     1.8507468813    -0.9883491355
   35      H      -0.8662029046    -1.2481296590     2.1344666014
   36      H      -2.1777649982     0.7914477601     2.0636472194
 ----------------------------------------------------------------

   13    -621.9559991796      8.51E-09 Convergence criterion met
 Total energy in the final basis set = -621.95599918

                    Orbital Energies (a.u.)
 --------------------------------------------------------------

 Alpha MOs
 -- Occupied --
-10.178 -10.177 -10.177 -10.176 -10.166 -10.166 -10.165 -10.165
-10.165 -10.165 -10.165 -10.164 -10.164 -10.164 -10.163 -10.163
 -0.856  -0.855  -0.785  -0.784  -0.742  -0.742  -0.719  -0.718
 -0.656  -0.655  -0.609  -0.609  -0.574  -0.574  -0.493  -0.493
 -0.469  -0.469  -0.457  -0.457  -0.426  -0.420  -0.418  -0.417
 -0.416  -0.412  -0.402  -0.402  -0.395  -0.394  -0.374  -0.373
 -0.345  -0.340  -0.340  -0.339  -0.336  -0.336  -0.250  -0.247
 -0.234  -0.233

          Ground-State Mulliken Net Atomic Charges

     Atom                 Charge (a.u.)
  ----------------------------------------
      1 C                    -0.238639
      2 C                    -0.389040
      3 C                     0.467353
      4 C                    -0.391780
      5 C                    -0.339503
      6 C                     0.699674
      7 H                     0.145966
      8 H                     0.148425
      9 C                    -0.679078
     10 C                    -0.654558
     11 H                     0.156184
     12 H                     0.137186
     13 H                     0.152409
     14 H                     0.144730
     15 H                     0.165332
     16 H                     0.137002
     17 H                     0.163164
     18 H                     0.166382
     19 C                    -0.422966
     20 C                    -0.242019
     21 C                     0.678649
     22 C                    -0.390483
     23 C                    -0.493810
     24 C                     0.604425
     25 H                     0.147589
     26 H                     0.158872
     27 C                    -0.617965
     28 C                    -0.669615
     29 H                     0.203815
     30 H                     0.132912
     31 H                     0.147251
     32 H                     0.152460
     33 H                     0.160649
     34 H                     0.139772
     35 H                     0.152118
     36 H                     0.167139
  ----------------------------------------
  Sum of atomic charges =     0.000000

                    Cartesian Multipole Moments
 -----------------------------------------------------------------
    Charge (ESU x 10^10)
                 0.0000
    Dipole Moment (Debye)
         X       0.0770      Y       0.0488      Z       0.1368
       Tot       0.1644
    Quadrupole Moments (Debye-Ang)
        XX    -100.7960     XY      -6.3096     YY     -94.1477
        XZ       3.9653     YZ       2.3902     ZZ     -94.1625

 Total job time:  160.74s(wall), 639.54s(cpu)
        *  Thank you very much for using Q-Chem.  Have a nice day.  *
