 Q-Chem 5.0, Q-Chem, Inc., Pleasanton, CA (2017)
 Q-Chem 5.0.1 for Intel X86 EM64T Linux

User input:
--------------------------------------------------------------
$molecule
0  1
C        -0.54444000        -0.68370000        -0.06689000
C        -0.55709000        +0.71878000        +0.05493000
C        -1.74320000        -1.41616000        -0.12552000
C        -2.93952000        -0.70056000        -0.05285000
C        -2.95313000        +0.68255000        +0.06934000
C        -1.77161000        +1.42404000        +0.12810000
H        -3.90354000        +1.20325000        +0.11710000
H        -3.87892000        -1.24211000        -0.08988000
C        -1.83960000        +2.92746000        +0.24839000
C        -1.78103000        -2.92226000        -0.24590000
H        -1.39752000        -3.25223000        -1.21323000
H        -2.80572000        -3.28175000        -0.13627000
H        -1.16958000        -3.40777000        +0.51926000
H        -1.24214000        +3.42352000        -0.52065000
H        -1.45503000        +3.26427000        +1.21284000
H        -2.87211000        +3.26623000        +0.14638000
H        +0.35825000        -1.18166000        -0.11386000
H        +0.33551000        +1.23549000        +0.09097000
@C        -2.34252000        +0.29093000        +5.46728000
@C        -2.35517000        +1.69341000        +5.58910000
@C        -3.54128000        -0.44153000        +5.40865000
@C        -4.73760000        +0.27407000        +5.48132000
@C        -4.75121000        +1.65718000        +5.60351000
@C        -3.56969000        +2.39867000        +5.66227000
@H        -5.70162000        +2.17788000        +5.65127000
@H        -5.67700000        -0.26748000        +5.44429000
@C        -3.63768000        +3.90209000        +5.78256000
@C        -3.57911000        -1.94763000        +5.28827000
@H        -3.19560000        -2.27760000        +4.32094000
@H        -4.60380000        -2.30712000        +5.39790000
@H        -2.96766000        -2.43314000        +6.05343000
@H        -3.04022000        +4.39815000        +5.01352000
@H        -3.25311000        +4.23890000        +6.74701000
@H        -4.67019000        +4.24086000        +5.68055000
@H        -1.43983000        -0.20703000        +5.42031000
@H        -1.46257000        +2.21012000        +5.62514000
$end

$rem
JOBTYPE                   SP
METHOD                    B3LYP
DFT_D                     d3_op
BASIS                     6-311++G(d,p)
SYMMETRY                  False
THRESH                    12
SCF_CONVERGENCE           8
MAX_SUB_FILE_NUM          128
MEM_STATIC                400
MEM_TOTAL                 4000
$end
--------------------------------------------------------------

             Standard Nuclear Orientation (Angstroms)
    I     Atom           X                Y                Z
 ----------------------------------------------------------------
    1      C      -0.5444400000    -0.6837000000    -0.0668900000
    2      C      -0.5570900000     0.7187800000     0.0549300000
    3      C      -1.7432000000    -1.4161600000    -0.1255200000
    4      C      -2.9395200000    -0.7005600000    -0.0528500000
    5      C      -2.9531300000     0.6825500000     0.0693400000
    6      C      -1.7716100000     1.4240400000     0.1281000000
    7      H      -3.9035400000     1.2032500000     0.1171000000
    8      H      -3.8789200000    -1.2421100000    -0.0898800000
    9      C      -1.8396000000     2.9274600000     0.2483900000
   10      C      -1.7810300000    -2.9222600000    -0.2459000000
   11      H      -1.3975200000    -3.2522300000    -1.2132300000
   12      H      -2.8057200000    -3.2817500000    -0.1362700000
   13      H      -1.1695800000    -3.4077700000     0.5192600000
   14      H      -1.2421400000     3.4235200000    -0.5206500000
   15      H      -1.4550300000     3.2642700000     1.2128400000
   16      H      -2.8721100000     3.2662300000     0.1463800000
   17      H       0.3582500000    -1.1816600000    -0.1138600000
   18      H       0.3355100000     1.2354900000     0.0909700000
   19      GH     -2.3425200000     0.2909300000     5.4672800000
   20      GH     -2.3551700000     1.6934100000     5.5891000000
   21      GH     -3.5412800000    -0.4415300000     5.4086500000
   22      GH     -4.7376000000     0.2740700000     5.4813200000
   23      GH     -4.7512100000     1.6571800000     5.6035100000
   24      GH     -3.5696900000     2.3986700000     5.6622700000
   25      GH     -5.7016200000     2.1778800000     5.6512700000
   26      GH     -5.6770000000    -0.2674800000     5.4442900000
   27      GH     -3.6376800000     3.9020900000     5.7825600000
   28      GH     -3.5791100000    -1.9476300000     5.2882700000
   29      GH     -3.1956000000    -2.2776000000     4.3209400000
   30      GH     -4.6038000000    -2.3071200000     5.3979000000
   31      GH     -2.9676600000    -2.4331400000     6.0534300000
   32      GH     -3.0402200000     4.3981500000     5.0135200000
   33      GH     -3.2531100000     4.2389000000     6.7470100000
   34      GH     -4.6701900000     4.2408600000     5.6805500000
   35      GH     -1.4398300000    -0.2070300000     5.4203100000
   36      GH     -1.4625700000     2.2101200000     5.6251400000
 ----------------------------------------------------------------

   12    -310.9759149140      7.61E-09 Convergence criterion met
 Total energy in the final basis set = -310.97591491

                    Orbital Energies (a.u.)
 --------------------------------------------------------------

 Alpha MOs
 -- Occupied --
-10.180 -10.180 -10.168 -10.168 -10.168 -10.167 -10.167 -10.167
 -0.859  -0.787  -0.745  -0.721  -0.658  -0.612  -0.577  -0.496
 -0.472  -0.460  -0.425  -0.421  -0.417  -0.404  -0.397  -0.376
 -0.345  -0.342  -0.339  -0.252  -0.236

          Ground-State Mulliken Net Atomic Charges

     Atom                 Charge (a.u.)
  ----------------------------------------
      1 C                    -0.148960
      2 C                    -0.289444
      3 C                     0.605158
      4 C                    -0.519812
      5 C                    -0.488997
      6 C                     0.592536
      7 H                     0.150543
      8 H                     0.141114
      9 C                    -0.642494
     10 C                    -0.620014
     11 H                     0.155744
     12 H                     0.147886
     13 H                     0.149650
     14 H                     0.144018
     15 H                     0.163570
     16 H                     0.141255
     17 H                     0.160282
     18 H                     0.167636
     19 GH                   -0.007711
     20 GH                   -0.004447
     21 GH                    0.002393
     22 GH                   -0.004071
     23 GH                   -0.001749
     24 GH                    0.005857
     25 GH                   -0.000225
     26 GH                   -0.000843
     27 GH                    0.002169
     28 GH                    0.004698
     29 GH                   -0.006870
     30 GH                    0.000534
     31 GH                   -0.000169
     32 GH                    0.000186
     33 GH                   -0.000021
     34 GH                    0.000105
     35 GH                    0.000305
     36 GH                    0.000186
  ----------------------------------------
  Sum of atomic charges =    -0.000000

                    Cartesian Multipole Moments
 -----------------------------------------------------------------
    Charge (ESU x 10^10)
                -0.0000
    Dipole Moment (Debye)
         X       0.0918      Y       0.0012      Z       0.0049
       Tot       0.0919
    Quadrupole Moments (Debye-Ang)
        XX     -46.2687     XY       0.0023     YY     -44.6893
        XZ      -0.0581     YZ       0.6783     ZZ     -52.7200

 Total job time:  119.45s(wall), 475.30s(cpu)
        *  Thank you very much for using Q-Chem.  Have a nice day.  *
