 Q-Chem 5.0, Q-Chem, Inc., Pleasanton, CA (2017)
 Q-Chem 5.0.1 for Intel X86 EM64T Linux

User input:
--------------------------------------------------------------
$molecule
0  1
C        -1.94633000        +0.07618000        +4.24788000
C        -1.95898000        +1.47866000        +4.36970000
C        -3.14509000        -0.65628000        +4.18925000
C        -4.34141000        +0.05932000        +4.26192000
C        -4.35502000        +1.44243000        +4.38411000
C        -3.17350000        +2.18392000        +4.44287000
H        -5.30543000        +1.96313000        +4.43187000
H        -5.28081000        -0.48223000        +4.22489000
C        -3.24149000        +3.68734000        +4.56316000
C        -3.18292000        -2.16238000        +4.06887000
H        -2.79941000        -2.49235000        +3.10154000
H        -4.20761000        -2.52187000        +4.17850000
H        -2.57147000        -2.64789000        +4.83403000
H        -2.64403000        +4.18340000        +3.79412000
H        -2.85692000        +4.02415000        +5.52761000
H        -4.27400000        +4.02611000        +4.46115000
H        -1.04364000        -0.42178000        +4.20091000
H        -1.06638000        +1.99537000        +4.40574000
@C        -0.54444000        -0.68370000        -0.06689000
@C        -0.55709000        +0.71878000        +0.05493000
@C        -1.74320000        -1.41616000        -0.12552000
@C        -2.93952000        -0.70056000        -0.05285000
@C        -2.95313000        +0.68255000        +0.06934000
@C        -1.77161000        +1.42404000        +0.12810000
@H        -3.90354000        +1.20325000        +0.11710000
@H        -3.87892000        -1.24211000        -0.08988000
@C        -1.83960000        +2.92746000        +0.24839000
@C        -1.78103000        -2.92226000        -0.24590000
@H        -1.39752000        -3.25223000        -1.21323000
@H        -2.80572000        -3.28175000        -0.13627000
@H        -1.16958000        -3.40777000        +0.51926000
@H        -1.24214000        +3.42352000        -0.52065000
@H        -1.45503000        +3.26427000        +1.21284000
@H        -2.87211000        +3.26623000        +0.14638000
@H        +0.35825000        -1.18166000        -0.11386000
@H        +0.33551000        +1.23549000        +0.09097000
$end

$rem
JOBTYPE                   SP
METHOD                    B3LYP
DFT_D                     d3_op
BASIS                     6-311++G(d,p)
SYMMETRY                  False
THRESH                    12
SCF_CONVERGENCE           8
MAX_SUB_FILE_NUM          128
MEM_STATIC                400
MEM_TOTAL                 4000
$end
--------------------------------------------------------------

             Standard Nuclear Orientation (Angstroms)
    I     Atom           X                Y                Z
 ----------------------------------------------------------------
    1      C      -1.9463300000     0.0761800000     4.2478800000
    2      C      -1.9589800000     1.4786600000     4.3697000000
    3      C      -3.1450900000    -0.6562800000     4.1892500000
    4      C      -4.3414100000     0.0593200000     4.2619200000
    5      C      -4.3550200000     1.4424300000     4.3841100000
    6      C      -3.1735000000     2.1839200000     4.4428700000
    7      H      -5.3054300000     1.9631300000     4.4318700000
    8      H      -5.2808100000    -0.4822300000     4.2248900000
    9      C      -3.2414900000     3.6873400000     4.5631600000
   10      C      -3.1829200000    -2.1623800000     4.0688700000
   11      H      -2.7994100000    -2.4923500000     3.1015400000
   12      H      -4.2076100000    -2.5218700000     4.1785000000
   13      H      -2.5714700000    -2.6478900000     4.8340300000
   14      H      -2.6440300000     4.1834000000     3.7941200000
   15      H      -2.8569200000     4.0241500000     5.5276100000
   16      H      -4.2740000000     4.0261100000     4.4611500000
   17      H      -1.0436400000    -0.4217800000     4.2009100000
   18      H      -1.0663800000     1.9953700000     4.4057400000
   19      GH     -0.5444400000    -0.6837000000    -0.0668900000
   20      GH     -0.5570900000     0.7187800000     0.0549300000
   21      GH     -1.7432000000    -1.4161600000    -0.1255200000
   22      GH     -2.9395200000    -0.7005600000    -0.0528500000
   23      GH     -2.9531300000     0.6825500000     0.0693400000
   24      GH     -1.7716100000     1.4240400000     0.1281000000
   25      GH     -3.9035400000     1.2032500000     0.1171000000
   26      GH     -3.8789200000    -1.2421100000    -0.0898800000
   27      GH     -1.8396000000     2.9274600000     0.2483900000
   28      GH     -1.7810300000    -2.9222600000    -0.2459000000
   29      GH     -1.3975200000    -3.2522300000    -1.2132300000
   30      GH     -2.8057200000    -3.2817500000    -0.1362700000
   31      GH     -1.1695800000    -3.4077700000     0.5192600000
   32      GH     -1.2421400000     3.4235200000    -0.5206500000
   33      GH     -1.4550300000     3.2642700000     1.2128400000
   34      GH     -2.8721100000     3.2662300000     0.1463800000
   35      GH      0.3582500000    -1.1816600000    -0.1138600000
   36      GH      0.3355100000     1.2354900000     0.0909700000
 ----------------------------------------------------------------

   12    -310.9763075546      7.72E-09 Convergence criterion met
 Total energy in the final basis set = -310.97630755

                    Orbital Energies (a.u.)
 --------------------------------------------------------------

 Alpha MOs
 -- Occupied --
-10.180 -10.180 -10.168 -10.168 -10.168 -10.167 -10.167 -10.167
 -0.859  -0.787  -0.745  -0.721  -0.658  -0.612  -0.577  -0.496
 -0.472  -0.460  -0.425  -0.421  -0.417  -0.404  -0.397  -0.376
 -0.345  -0.343  -0.339  -0.252  -0.236

          Ground-State Mulliken Net Atomic Charges

     Atom                 Charge (a.u.)
  ----------------------------------------
      1 C                    -0.358284
      2 C                    -0.195528
      3 C                     0.610950
      4 C                    -0.432153
      5 C                    -0.469275
      6 C                     0.567782
      7 H                     0.153639
      8 H                     0.160111
      9 C                    -0.638607
     10 C                    -0.639641
     11 H                     0.191945
     12 H                     0.137014
     13 H                     0.148932
     14 H                     0.156953
     15 H                     0.161551
     16 H                     0.139842
     17 H                     0.163371
     18 H                     0.164175
     19 GH                   -0.034229
     20 GH                   -0.027255
     21 GH                   -0.027071
     22 GH                    0.007624
     23 GH                    0.006501
     24 GH                    0.073717
     25 GH                   -0.007910
     26 GH                    0.001246
     27 GH                   -0.015872
     28 GH                    0.003046
     29 GH                   -0.000071
     30 GH                   -0.002439
     31 GH                    0.003765
     32 GH                   -0.001831
     33 GH                   -0.004105
     34 GH                    0.004975
     35 GH                   -0.002817
     36 GH                   -0.000049
  ----------------------------------------
  Sum of atomic charges =     0.000000

                    Cartesian Multipole Moments
 -----------------------------------------------------------------
    Charge (ESU x 10^10)
                 0.0000
    Dipole Moment (Debye)
         X       0.0917      Y       0.0041      Z       0.0005
       Tot       0.0917
    Quadrupole Moments (Debye-Ang)
        XX     -46.5690     XY       0.0576     YY     -44.7249
        XZ       0.3566     YZ       0.6886     ZZ     -52.6921

 Total job time:  141.52s(wall), 563.10s(cpu)
        *  Thank you very much for using Q-Chem.  Have a nice day.  *
