 Q-Chem 5.0, Q-Chem, Inc., Pleasanton, CA (2017)
 Q-Chem 5.0.1 for Intel X86 EM64T Linux

User input:
--------------------------------------------------------------
$molecule
0  1
--
0  1
C        -0.54444000        -0.68370000        -0.06689000
C        -0.55709000        +0.71878000        +0.05493000
C        -1.74320000        -1.41616000        -0.12552000
C        -2.93952000        -0.70056000        -0.05285000
C        -2.95313000        +0.68255000        +0.06934000
C        -1.77161000        +1.42404000        +0.12810000
H        -3.90354000        +1.20325000        +0.11710000
H        -3.87892000        -1.24211000        -0.08988000
C        -1.83960000        +2.92746000        +0.24839000
C        -1.78103000        -2.92226000        -0.24590000
H        -1.39752000        -3.25223000        -1.21323000
H        -2.80572000        -3.28175000        -0.13627000
H        -1.16958000        -3.40777000        +0.51926000
H        -1.24214000        +3.42352000        -0.52065000
H        -1.45503000        +3.26427000        +1.21284000
H        -2.87211000        +3.26623000        +0.14638000
H        +0.35825000        -1.18166000        -0.11386000
H        +0.33551000        +1.23549000        +0.09097000
--
0  1
C        -2.34252000        +0.29093000        +5.46728000
C        -2.35517000        +1.69341000        +5.58910000
C        -3.54128000        -0.44153000        +5.40865000
C        -4.73760000        +0.27407000        +5.48132000
C        -4.75121000        +1.65718000        +5.60351000
C        -3.56969000        +2.39867000        +5.66227000
H        -5.70162000        +2.17788000        +5.65127000
H        -5.67700000        -0.26748000        +5.44429000
C        -3.63768000        +3.90209000        +5.78256000
C        -3.57911000        -1.94763000        +5.28827000
H        -3.19560000        -2.27760000        +4.32094000
H        -4.60380000        -2.30712000        +5.39790000
H        -2.96766000        -2.43314000        +6.05343000
H        -3.04022000        +4.39815000        +5.01352000
H        -3.25311000        +4.23890000        +6.74701000
H        -4.67019000        +4.24086000        +5.68055000
H        -1.43983000        -0.20703000        +5.42031000
H        -1.46257000        +2.21012000        +5.62514000
$end

$rem
JOBTYPE                   SP
METHOD                    B3LYP
DFT_D                     d3_op
BASIS                     6-311++G(d,p)
SYMMETRY                  False
THRESH                    12
SCF_CONVERGENCE           8
MAX_SUB_FILE_NUM          128
MEM_STATIC                400
MEM_TOTAL                 4000
$end
--------------------------------------------------------------

             Standard Nuclear Orientation (Angstroms)
    I     Atom           X                Y                Z
 ----------------------------------------------------------------
    1      C       3.5827893746    -0.0286467967     1.0514693192
    2      C       3.0403804441     1.2699521508     1.0142723988
    3      C       3.4753043183    -0.8900985657    -0.0545634463
    4      C       2.8078006361    -0.4099021876    -1.1825688116
    5      C       2.2706794036     0.8700348790    -1.2195929567
    6      C       2.3697598437     1.7374355730    -0.1300752788
    7      H       1.7639523655     1.2087703381    -2.1169082153
    8      H       2.7056531489    -1.0565440561    -2.0477509705
    9      C       1.7801007321     3.1240707520    -0.2244629541
   10      C       4.0319515930    -2.2952261302    -0.0590358398
   11      H       5.1230107843    -2.2893400816    -0.0237846618
   12      H       3.7152852317    -2.8213211211    -0.9613594343
   13      H       3.6905211927    -2.8716188720     0.8048261730
   14      H       2.5092056632     3.8939730042     0.0403256755
   15      H       0.9356802003     3.2413733890     0.4572209317
   16      H       1.4369966538     3.3179647255    -1.2422707806
   17      H       4.0665569325    -0.3531760593     1.9033315653
   18      H       3.1360180700     1.8861818723     1.8365480463
   19      C      -2.2529167743    -0.8707840790     1.2644750808
   20      C      -2.7953257047     0.4278148685     1.2272781604
   21      C      -2.3604018306    -1.7322358480     0.1584423153
   22      C      -3.0279055127    -1.2520394699    -0.9695630500
   23      C      -3.5650267452     0.0278975967    -1.0065871951
   24      C      -3.4659463052     0.8952982907     0.0829304828
   25      H      -4.0717537833     0.3666330558    -1.9039024537
   26      H      -3.1300529999    -1.8986813384    -1.8347452089
   27      C      -4.0556054167     2.2819334697    -0.0114571925
   28      C      -1.8037545558    -3.1373634125     0.1539699218
   29      H      -0.7126953646    -3.1314773639     0.1892210998
   30      H      -2.1204209172    -3.6634584034    -0.7483536727
   31      H      -2.1451849562    -3.7137561543     1.0178319346
   32      H      -3.3265004857     3.0518357219     0.2533314371
   33      H      -4.9000259485     2.3992361068     0.6702266933
   34      H      -4.3987094950     2.4758274433    -1.0292650190
   35      H      -1.7691492163    -1.1953133416     2.1163373268
   36      H      -2.6996880788     1.0440445901     2.0495538079
 ----------------------------------------------------------------

   13    -621.9524778336      6.13E-09 Convergence criterion met
 Total energy in the final basis set = -621.95247783

                    Orbital Energies (a.u.)
 --------------------------------------------------------------

 Alpha MOs
 -- Occupied --
-10.178 -10.178 -10.178 -10.178 -10.166 -10.166 -10.166 -10.166
-10.166 -10.166 -10.165 -10.165 -10.165 -10.165 -10.165 -10.165
 -0.857  -0.856  -0.786  -0.785  -0.743  -0.743  -0.719  -0.719
 -0.656  -0.656  -0.610  -0.610  -0.575  -0.575  -0.494  -0.494
 -0.470  -0.470  -0.458  -0.458  -0.423  -0.422  -0.419  -0.419
 -0.415  -0.415  -0.403  -0.402  -0.396  -0.395  -0.374  -0.374
 -0.344  -0.343  -0.341  -0.341  -0.337  -0.337  -0.250  -0.250
 -0.235  -0.234

          Ground-State Mulliken Net Atomic Charges

     Atom                 Charge (a.u.)
  ----------------------------------------
      1 C                    -0.150010
      2 C                    -0.296760
      3 C                     0.599100
      4 C                    -0.517250
      5 C                    -0.483947
      6 C                     0.613499
      7 H                     0.149377
      8 H                     0.138611
      9 C                    -0.654919
     10 C                    -0.619394
     11 H                     0.155784
     12 H                     0.147171
     13 H                     0.148557
     14 H                     0.142713
     15 H                     0.161447
     16 H                     0.141843
     17 H                     0.159024
     18 H                     0.166144
     19 C                    -0.198869
     20 C                    -0.161747
     21 C                     0.650044
     22 C                    -0.618055
     23 C                    -0.568897
     24 C                     0.655305
     25 H                     0.141574
     26 H                     0.148005
     27 C                    -0.620412
     28 C                    -0.646226
     29 H                     0.154315
     30 H                     0.144116
     31 H                     0.146056
     32 H                     0.147679
     33 H                     0.158211
     34 H                     0.147213
     35 H                     0.161916
     36 H                     0.158784
  ----------------------------------------
  Sum of atomic charges =    -0.000000

                    Cartesian Multipole Moments
 -----------------------------------------------------------------
    Charge (ESU x 10^10)
                -0.0000
    Dipole Moment (Debye)
         X       0.0678      Y       0.0331      Z       0.1566
       Tot       0.1738
    Quadrupole Moments (Debye-Ang)
        XX    -102.7352     XY      -4.9654     YY     -91.6690
        XZ       4.1400     YZ       1.6100     ZZ     -93.7288

 Total job time:  137.49s(wall), 547.25s(cpu)
        *  Thank you very much for using Q-Chem.  Have a nice day.  *
