 Q-Chem 5.0, Q-Chem, Inc., Pleasanton, CA (2017)
 Q-Chem 5.0.1 for Intel X86 EM64T Linux

User input:
--------------------------------------------------------------
$molecule
0  1
--
0  1
C        +0.22270000        +1.04488000        +0.58595000
C        +0.62626000        -0.41353000        +0.99871000
C        -1.18200000        +1.23223000        +0.04377000
C        -0.37457000        -1.51643000        +0.72333000
O        -2.09172000        +0.78832000        +0.93966000
O        -1.47336000        +1.75939000        -0.99882000
O        -0.91364000        -1.42792000        -0.50620000
O        -0.62208000        -2.40877000        +1.49911000
C        -1.86134000        -2.44741000        -0.86560000
C        -3.47068000        +0.87492000        +0.53920000
C        +1.33008000        +1.39974000        -0.43491000
C        +2.63070000        +1.71700000        +0.32855000
C        +3.04336000        +0.29351000        +0.80300000
C        +1.94423000        -0.59299000        +0.15262000
O        +1.62840000        +0.13663000        -1.04376000
H        +0.27811000        +1.68786000        +1.46900000
H        +0.83923000        -0.48042000        +2.06408000
H        -2.68749000        -2.46677000        -0.15296000
H        -3.76076000        +1.91522000        +0.38406000
H        +3.37234000        +2.13782000        -0.35195000
H        +2.48236000        +2.42488000        +1.14651000
H        +4.02182000        +0.00994000        +0.41161000
H        +3.07359000        +0.18738000        +1.88928000
H        -2.21148000        -2.17765000        -1.85937000
H        -1.38062000        -3.42697000        -0.88096000
H        -4.03855000        +0.43623000        +1.35671000
H        -3.63120000        +0.31700000        -0.38495000
H        +1.03270000        +2.19943000        -1.08064000
H        +2.24339000        -1.61496000        +0.04786000
--
0  1
C        +0.24878000        +2.52233000        +5.36261000
C        +0.65234000        +1.06392000        +5.77537000
C        -1.15592000        +2.70968000        +4.82043000
C        -0.34849000        -0.03898000        +5.49999000
O        -2.06564000        +2.26577000        +5.71632000
O        -1.44728000        +3.23684000        +3.77784000
O        -0.88756000        +0.04953000        +4.27046000
O        -0.59600000        -0.93132000        +6.27577000
C        -1.83526000        -0.96996000        +3.91106000
C        -3.44460000        +2.35237000        +5.31586000
C        +1.35616000        +2.87719000        +4.34175000
C        +2.65678000        +3.19445000        +5.10521000
C        +3.06944000        +1.77096000        +5.57966000
C        +1.97031000        +0.88446000        +4.92928000
O        +1.65448000        +1.61408000        +3.73290000
H        +0.30419000        +3.16531000        +6.24566000
H        +0.86531000        +0.99703000        +6.84074000
H        -2.66141000        -0.98932000        +4.62370000
H        -3.73468000        +3.39267000        +5.16072000
H        +3.39842000        +3.61527000        +4.42471000
H        +2.50844000        +3.90233000        +5.92317000
H        +4.04790000        +1.48739000        +5.18827000
H        +3.09967000        +1.66483000        +6.66594000
H        -2.18540000        -0.70020000        +2.91729000
H        -1.35454000        -1.94952000        +3.89570000
H        -4.01247000        +1.91368000        +6.13337000
H        -3.60512000        +1.79445000        +4.39171000
H        +1.05878000        +3.67688000        +3.69602000
H        +2.26947000        -0.13751000        +4.82452000
$end

$rem
JOBTYPE                   SP
METHOD                    B3LYP
DFT_D                     d3_op
BASIS                     6-311++G(d,p)
SYMMETRY                  False
THRESH                    12
SCF_CONVERGENCE           8
MAX_SUB_FILE_NUM          128
MEM_STATIC                400
MEM_TOTAL                 4000
$end
--------------------------------------------------------------

             Standard Nuclear Orientation (Angstroms)
    I     Atom           X                Y                Z
 ----------------------------------------------------------------
    1      C      -1.7121300511     0.6398100569     0.8739810698
    2      C      -1.8198693057     0.7302520706    -0.6881980858
    3      C      -2.2628019975    -0.6177320477     1.5201927437
    4      C      -2.5535026217    -0.3869453542    -1.4006132141
    5      O      -1.6633242841    -1.7116499846     0.9993900199
    6      O      -3.0661939054    -0.6590523537     2.4160924580
    7      O      -3.7084463292    -0.7144941415    -0.7931666483
    8      O      -2.1731305852    -0.8916245616    -2.4301677273
    9      C      -4.4858961442    -1.7535615632    -1.4116924670
   10      C      -2.1163725548    -2.9819078741     1.4999802831
   11      C      -2.4437531973     1.9303109705     1.3141017210
   12      C      -1.5144428564     3.1369326866     1.0783395777
   13      C      -1.5515430329     3.2328290092    -0.4744457681
   14      C      -2.5639847313     2.1115379184    -0.8413670791
   15      O      -3.4395599504     2.1028087417     0.2973650558
   16      H      -0.6556100549     0.6686093426     1.1554183628
   17      H      -0.8362244768     0.7679518860    -1.1528111554
   18      H      -3.8973954394    -2.6684053381    -1.4981921172
   19      H      -1.9102152429    -3.0693488995     2.5678249094
   20      H      -1.9356241496     4.0310584907     1.5402323971
   21      H      -0.5116385339     2.9875516233     1.4835878970
   22      H      -1.9379225590     4.1981083103    -0.8060008635
   23      H      -0.5773918074     3.0827680918    -0.9442252686
   24      H      -5.3411910983    -1.9020749319    -0.7564355625
   25      H      -4.8132552411    -1.4447956145    -2.4058579725
   26      H      -1.5601446654    -3.7300173094     0.9394531553
   27      H      -3.1890561059    -3.0929661365     1.3323178817
   28      H      -2.7807417350     1.8690672642     2.3278048961
   29      H      -3.0044292340     2.2496156550    -1.8066842408
   30      C       3.2615867864     0.1976314731     0.6158370300
   31      C       3.1538475318     0.2880734868    -0.9463421257
   32      C       2.7109148399    -1.0599106315     1.2620487039
   33      C       2.4202142157    -0.8291239379    -1.6587572540
   34      O       3.3103925534    -2.1538285683     0.7412459801
   35      O       1.9075229321    -1.1012309375     2.1579484182
   36      O       1.2652705082    -1.1566727252    -1.0513106881
   37      O       2.8005862523    -1.3338031453    -2.6883117671
   38      C       0.4878206933    -2.1957401469    -1.6698365069
   39      C       2.8573442827    -3.4240864579     1.2418362433
   40      C       2.5299636402     1.4881323867     1.0559576811
   41      C       3.4592739811     2.6947541028     0.8201955379
   42      C       3.4221738045     2.7906504255    -0.7325898080
   43      C       2.4097321061     1.6693593347    -1.0995111189
   44      O       1.5341568870     1.6606301579     0.0392210159
   45      H       4.3181067825     0.2264307589     0.8972743230
   46      H       4.1374923607     0.3257733022    -1.4109551953
   47      H       1.0763213981    -3.1105839219    -1.7563361571
   48      H       3.0635015946    -3.5115274832     2.3096808695
   49      H       3.0380926879     3.5888799069     1.2820883573
   50      H       4.4620783036     2.5453730395     1.2254438571
   51      H       3.0357942784     3.7559297266    -1.0641449034
   52      H       4.3963250301     2.6405895080    -1.2023693084
   53      H      -0.3674742608    -2.3442535157    -1.0145796023
   54      H       0.1604615964    -1.8869741983    -2.6640020123
   55      H       3.4135721720    -4.1721958932     0.6813091154
   56      H       1.7846607316    -3.5351447203     1.0741738419
   57      H       2.1929751024     1.4268886804     2.0696608563
   58      H       1.9692876034     1.8074370712    -2.0648282807
 ----------------------------------------------------------------

   15   -1531.7316784756      5.04E-09 Convergence criterion met
 Total energy in the final basis set = -1531.73167848

                    Orbital Energies (a.u.)
 --------------------------------------------------------------

 Alpha MOs
 -- Occupied --
-19.180 -19.171 -19.170 -19.169 -19.149 -19.126 -19.125 -19.115
-19.114 -19.111 -10.315 -10.306 -10.302 -10.301 -10.251 -10.242
-10.235 -10.232 -10.229 -10.228 -10.220 -10.215 -10.213 -10.211
-10.194 -10.191 -10.190 -10.188 -10.170 -10.167  -1.123  -1.115
 -1.112  -1.108  -1.077  -1.054  -1.036  -1.026  -1.025  -1.023
 -0.840  -0.821  -0.792  -0.785  -0.774  -0.768  -0.743  -0.734
 -0.726  -0.723  -0.662  -0.649  -0.616  -0.605  -0.602  -0.585
 -0.584  -0.573  -0.568  -0.561  -0.555  -0.544  -0.525  -0.512
 -0.510  -0.501  -0.500  -0.492  -0.488  -0.487  -0.481  -0.479
 -0.476  -0.474  -0.470  -0.466  -0.465  -0.452  -0.445  -0.432
 -0.430  -0.426  -0.422  -0.418  -0.417  -0.410  -0.400  -0.393
 -0.391  -0.378  -0.377  -0.375  -0.373  -0.370  -0.366  -0.364
 -0.360  -0.357  -0.353  -0.345  -0.344  -0.342  -0.327  -0.324
 -0.322  -0.316  -0.310  -0.308  -0.295  -0.290  -0.283  -0.281
 -0.276  -0.266

          Ground-State Mulliken Net Atomic Charges

     Atom                 Charge (a.u.)
  ----------------------------------------
      1 C                     0.087267
      2 C                     0.966522
      3 C                    -0.602566
      4 C                    -0.952030
      5 O                     0.018367
      6 O                    -0.168904
      7 O                     0.030865
      8 O                    -0.106793
      9 C                    -0.192616
     10 C                    -0.279031
     11 C                    -0.556345
     12 C                    -0.222091
     13 C                    -0.423254
     14 C                    -0.271974
     15 O                    -0.092221
     16 H                     0.249369
     17 H                     0.409005
     18 H                     0.184899
     19 H                     0.195731
     20 H                     0.202464
     21 H                     0.109919
     22 H                     0.195330
     23 H                     0.085244
     24 H                     0.176467
     25 H                     0.173866
     26 H                     0.121229
     27 H                     0.190596
     28 H                     0.275481
     29 H                     0.259960
     30 C                    -0.068559
     31 C                     0.247237
     32 C                    -0.468921
     33 C                    -0.515988
     34 O                     0.037670
     35 O                    -0.121120
     36 O                     0.003804
     37 O                    -0.140850
     38 C                    -0.431736
     39 C                    -0.165622
     40 C                    -0.160682
     41 C                    -0.676720
     42 C                    -0.500661
     43 C                    -0.117507
     44 O                     0.210574
     45 H                     0.247031
     46 H                     0.294011
     47 H                     0.219056
     48 H                     0.168839
     49 H                     0.179536
     50 H                     0.141431
     51 H                     0.178899
     52 H                     0.132692
     53 H                     0.126394
     54 H                     0.239733
     55 H                     0.168896
     56 H                     0.184157
     57 H                     0.271269
     58 H                     0.252382
  ----------------------------------------
  Sum of atomic charges =     0.000000

                    Cartesian Multipole Moments
 -----------------------------------------------------------------
    Charge (ESU x 10^10)
                 0.0000
    Dipole Moment (Debye)
         X       3.3910      Y      -0.1006      Z       0.5660
       Tot       3.4394
    Quadrupole Moments (Debye-Ang)
        XX    -175.8971     XY      15.2595     YY    -155.0936
        XZ      17.1823     YZ      -7.4686     ZZ    -193.9376

 Total job time:  7715.56s(wall), 7697.24s(cpu)
        *  Thank you very much for using Q-Chem.  Have a nice day.  *
