 Q-Chem 5.0, Q-Chem, Inc., Pleasanton, CA (2017)
 Q-Chem 5.0.1 for Intel X86 EM64T Linux

User input:
--------------------------------------------------------------
$molecule
0  1
--
0  1
C        -0.54444000        -0.68370000        -0.06689000
C        -0.55709000        +0.71878000        +0.05493000
C        +0.74969000        -1.43776000        -0.09374000
C        +0.72843000        +1.48436000        +0.06598000
O        +1.53645000        -1.09176000        +0.94813000
O        +1.04702000        -2.28405000        -0.90088000
O        +1.53784000        +1.08301000        -0.93877000
O        +1.01035000        +2.37097000        +0.83478000
C        +2.83449000        +1.70121000        -0.99358000
C        +2.82316000        -1.73208000        +1.00475000
C        -1.74320000        -1.41616000        -0.12552000
C        -2.93952000        -0.70056000        -0.05285000
C        -2.95313000        +0.68255000        +0.06934000
C        -1.77161000        +1.42404000        +0.12810000
H        +2.73835000        +2.77989000        -1.12464000
H        +2.70778000        -2.81319000        +1.09555000
H        -3.90354000        +1.20325000        +0.11710000
H        +3.38998000        +1.50093000        -0.07544000
H        +3.33184000        +1.25269000        -1.85067000
H        +3.31095000        -1.32281000        +1.88650000
H        +3.39889000        -1.50934000        +0.10459000
H        -3.87892000        -1.24211000        -0.08988000
H        -1.78886000        +2.45164000        +0.22176000
H        -1.73878000        -2.44393000        -0.21875000
--
0  1
C        -0.51003000        -1.11966000        +4.91395000
C        -0.52268000        +0.28282000        +5.03577000
C        +0.78410000        -1.87372000        +4.88710000
C        +0.76284000        +1.04840000        +5.04682000
O        +1.57086000        -1.52772000        +5.92897000
O        +1.08143000        -2.72001000        +4.07996000
O        +1.57225000        +0.64705000        +4.04207000
O        +1.04476000        +1.93501000        +5.81562000
C        +2.86890000        +1.26525000        +3.98726000
C        +2.85757000        -2.16804000        +5.98559000
C        -1.70879000        -1.85212000        +4.85532000
C        -2.90511000        -1.13652000        +4.92799000
C        -2.91872000        +0.24659000        +5.05018000
C        -1.73720000        +0.98808000        +5.10894000
H        +2.77276000        +2.34393000        +3.85620000
H        +2.74219000        -3.24915000        +6.07639000
H        -3.86913000        +0.76729000        +5.09794000
H        +3.42439000        +1.06497000        +4.90540000
H        +3.36625000        +0.81673000        +3.13017000
H        +3.34536000        -1.75877000        +6.86734000
H        +3.43330000        -1.94530000        +5.08543000
H        -3.84451000        -1.67807000        +4.89096000
H        -1.75445000        +2.01568000        +5.20260000
H        -1.70437000        -2.87989000        +4.76209000
$end

$rem
JOBTYPE                   SP
METHOD                    B3LYP
DFT_D                     d3_op
BASIS                     6-311++G(d,p)
SYMMETRY                  False
THRESH                    12
SCF_CONVERGENCE           8
MAX_SUB_FILE_NUM          128
MEM_STATIC                400
MEM_TOTAL                 4000
$end
--------------------------------------------------------------

             Standard Nuclear Orientation (Angstroms)
    I     Atom           X                Y                Z
 ----------------------------------------------------------------
    1      C      -2.4667867112     0.8047118797     0.8449636700
    2      C      -2.5506802277     0.8256315603    -0.5601962960
    3      C      -2.3679574337    -0.4932459267     1.5863395327
    4      C      -2.6357778409    -0.4559658694    -1.3277006502
    5      O      -1.3781958602    -1.2648736659     1.0871771802
    6      O      -3.0396035512    -0.8049774080     2.5391258933
    7      O      -3.5615508620    -1.2801447753    -0.7897207457
    8      O      -2.0009623784    -0.7237303760    -2.3186199789
    9      C      -3.6902034956    -2.5744229362    -1.4019046564
   10      C      -1.2134467251    -2.5537946200     1.7039256279
   11      C      -2.4325378860     1.9991036404     1.5860547617
   12      C      -2.4792609283     3.1996663328     0.8754127912
   13      C      -2.5599789715     3.2214580985    -0.5106314421
   14      C      -2.5956217393     2.0443495482    -1.2605612534
   15      H      -3.9781095161    -2.4748222875    -2.4493587125
   16      H      -0.9675597360    -2.4424247782     2.7610407415
   17      H      -2.6000009442     4.1748818862    -1.0264511766
   18      H      -2.7460676307    -3.1190054374    -1.3410799386
   19      H      -4.4667868315    -3.0848969552    -0.8366922367
   20      H      -0.3948980940    -3.0282381505     1.1674505079
   21      H      -2.1294551521    -3.1399868900     1.6107948032
   22      H      -2.4483268549     4.1359129331     1.4227749840
   23      H      -2.6528317532     2.0677146461    -2.2907129920
   24      H      -2.3750321077     1.9885720536     2.6163967987
   25      C       2.5244893985     0.8323031059     0.5510014331
   26      C       2.4405958819     0.8532227865    -0.8541585329
   27      C       2.6233186759    -0.4656547005     1.2923772957
   28      C       2.3554982687    -0.4283746432    -1.6216628871
   29      O       3.6130802494    -1.2372824397     0.7932149433
   30      O       1.9516725585    -0.7773861819     2.2451636564
   31      O       1.4297252476    -1.2525535491    -1.0836829826
   32      O       2.9903137312    -0.6961391498    -2.6125822158
   33      C       1.3010726141    -2.5468317100    -1.6958668933
   34      C       3.7778293845    -2.5262033938     1.4099633910
   35      C       2.5587382236     2.0266948666     1.2920925247
   36      C       2.5120151814     3.2272575590     0.5814505543
   37      C       2.4312971381     3.2490493247    -0.8045936790
   38      C       2.3956543703     2.0719407744    -1.5545234903
   39      H       1.0131665936    -2.4472310613    -2.7433209494
   40      H       4.0237163737    -2.4148335520     2.4670785046
   41      H       2.3912751654     4.2024731124    -1.3204134135
   42      H       2.2452084789    -3.0914142112    -1.6350421756
   43      H       0.5244892782    -3.0573057290    -1.1306544736
   44      H       4.5963780156    -3.0006469243     0.8734882710
   45      H       2.8618209576    -3.1123956638     1.3168325663
   46      H       2.5429492548     4.1635041593     1.1288127471
   47      H       2.3384443565     2.0953058723    -2.5846752289
   48      H       2.6162440020     2.0161632798     2.3224345618
 ----------------------------------------------------------------

   15   -1376.4269003555      6.22E-09 Convergence criterion met
 Total energy in the final basis set = -1376.42690036

                    Orbital Energies (a.u.)
 --------------------------------------------------------------

 Alpha MOs
 -- Occupied --
-19.178 -19.177 -19.171 -19.170 -19.121 -19.121 -19.116 -19.115
-10.313 -10.313 -10.308 -10.308 -10.234 -10.233 -10.228 -10.226
-10.212 -10.211 -10.211 -10.210 -10.195 -10.195 -10.195 -10.195
-10.194 -10.194 -10.194 -10.194  -1.121  -1.120  -1.112  -1.111
 -1.032  -1.032  -1.026  -1.025  -0.884  -0.884  -0.797  -0.796
 -0.784  -0.783  -0.741  -0.740  -0.730  -0.728  -0.653  -0.653
 -0.643  -0.642  -0.593  -0.592  -0.576  -0.575  -0.552  -0.551
 -0.521  -0.520  -0.513  -0.511  -0.491  -0.491  -0.488  -0.487
 -0.483  -0.480  -0.477  -0.474  -0.469  -0.468  -0.465  -0.464
 -0.439  -0.437  -0.430  -0.426  -0.413  -0.413  -0.405  -0.404
 -0.386  -0.386  -0.385  -0.382  -0.381  -0.379  -0.367  -0.366
 -0.363  -0.359  -0.321  -0.320  -0.311  -0.310  -0.299  -0.298
 -0.293  -0.292  -0.273  -0.271  -0.269  -0.267

          Ground-State Mulliken Net Atomic Charges

     Atom                 Charge (a.u.)
  ----------------------------------------
      1 C                     0.944746
      2 C                     0.828853
      3 C                    -0.670424
      4 C                    -0.792772
      5 O                     0.093325
      6 O                    -0.173343
      7 O                     0.078742
      8 O                    -0.133335
      9 C                    -0.170799
     10 C                    -0.346671
     11 C                    -0.348060
     12 C                    -0.299790
     13 C                    -0.259774
     14 C                    -0.518233
     15 H                     0.169591
     16 H                     0.206754
     17 H                     0.180003
     18 H                     0.177565
     19 H                     0.172749
     20 H                     0.095850
     21 H                     0.188369
     22 H                     0.177925
     23 H                     0.196139
     24 H                     0.204777
     25 C                     0.819824
     26 C                     0.969332
     27 C                    -0.852984
     28 C                    -0.633180
     29 O                     0.086812
     30 O                    -0.121981
     31 O                     0.074811
     32 O                    -0.175709
     33 C                    -0.353968
     34 C                    -0.166906
     35 C                    -0.503695
     36 C                    -0.255106
     37 C                    -0.306001
     38 C                    -0.354980
     39 H                     0.209421
     40 H                     0.168659
     41 H                     0.177756
     42 H                     0.193010
     43 H                     0.093316
     44 H                     0.171984
     45 H                     0.176896
     46 H                     0.180411
     47 H                     0.205403
     48 H                     0.194688
  ----------------------------------------
  Sum of atomic charges =     0.000000

                    Cartesian Multipole Moments
 -----------------------------------------------------------------
    Charge (ESU x 10^10)
                 0.0000
    Dipole Moment (Debye)
         X       0.1956      Y       0.1918      Z       0.2037
       Tot       0.3413
    Quadrupole Moments (Debye-Ang)
        XX    -169.8590     XY      -0.8381     YY    -124.9415
        XZ      18.8379     YZ       0.5455     ZZ    -174.1811

 Total job time:  1289.82s(wall), 2558.66s(cpu)
        *  Thank you very much for using Q-Chem.  Have a nice day.  *
