 Q-Chem 5.0, Q-Chem, Inc., Pleasanton, CA (2017)
 Q-Chem 5.0.1 for Intel X86 EM64T Linux

User input:
--------------------------------------------------------------
$molecule
0  1
--
0  1
C        +0.22270000        +1.04488000        +0.58595000
C        +0.62626000        -0.41353000        +0.99871000
C        -1.18200000        +1.23223000        +0.04377000
C        -0.37457000        -1.51643000        +0.72333000
O        -2.09172000        +0.78832000        +0.93966000
O        -1.47336000        +1.75939000        -0.99882000
O        -0.91364000        -1.42792000        -0.50620000
O        -0.62208000        -2.40877000        +1.49911000
C        -1.86134000        -2.44741000        -0.86560000
C        -3.47068000        +0.87492000        +0.53920000
C        +1.33008000        +1.39974000        -0.43491000
C        +2.63070000        +1.71700000        +0.32855000
C        +3.04336000        +0.29351000        +0.80300000
C        +1.94423000        -0.59299000        +0.15262000
O        +1.62840000        +0.13663000        -1.04376000
H        +0.27811000        +1.68786000        +1.46900000
H        +0.83923000        -0.48042000        +2.06408000
H        -2.68749000        -2.46677000        -0.15296000
H        -3.76076000        +1.91522000        +0.38406000
H        +3.37234000        +2.13782000        -0.35195000
H        +2.48236000        +2.42488000        +1.14651000
H        +4.02182000        +0.00994000        +0.41161000
H        +3.07359000        +0.18738000        +1.88928000
H        -2.21148000        -2.17765000        -1.85937000
H        -1.38062000        -3.42697000        -0.88096000
H        -4.03855000        +0.43623000        +1.35671000
H        -3.63120000        +0.31700000        -0.38495000
C        +2.35450000        -2.01267000        -0.16812000
H        +3.26311000        -2.00678000        -0.77366000
H        +2.54990000        -2.57059000        +0.75079000
H        +1.57335000        -2.52896000        -0.72872000
H        +1.03270000        +2.19943000        -1.08064000
--
0  1
C        +0.24878000        +2.52233000        +5.36261000
C        +0.65234000        +1.06392000        +5.77537000
C        -1.15592000        +2.70968000        +4.82043000
C        -0.34849000        -0.03898000        +5.49999000
O        -2.06564000        +2.26577000        +5.71632000
O        -1.44728000        +3.23684000        +3.77784000
O        -0.88756000        +0.04953000        +4.27046000
O        -0.59600000        -0.93132000        +6.27577000
C        -1.83526000        -0.96996000        +3.91106000
C        -3.44460000        +2.35237000        +5.31586000
C        +1.35616000        +2.87719000        +4.34175000
C        +2.65678000        +3.19445000        +5.10521000
C        +3.06944000        +1.77096000        +5.57966000
C        +1.97031000        +0.88446000        +4.92928000
O        +1.65448000        +1.61408000        +3.73290000
H        +0.30419000        +3.16531000        +6.24566000
H        +0.86531000        +0.99703000        +6.84074000
H        -2.66141000        -0.98932000        +4.62370000
H        -3.73468000        +3.39267000        +5.16072000
H        +3.39842000        +3.61527000        +4.42471000
H        +2.50844000        +3.90233000        +5.92317000
H        +4.04790000        +1.48739000        +5.18827000
H        +3.09967000        +1.66483000        +6.66594000
H        -2.18540000        -0.70020000        +2.91729000
H        -1.35454000        -1.94952000        +3.89570000
H        -4.01247000        +1.91368000        +6.13337000
H        -3.60512000        +1.79445000        +4.39171000
C        +2.38058000        -0.53522000        +4.60854000
H        +3.28919000        -0.52933000        +4.00300000
H        +2.57598000        -1.09314000        +5.52745000
H        +1.59943000        -1.05151000        +4.04794000
H        +1.05878000        +3.67688000        +3.69602000
$end

$rem
JOBTYPE                   SP
METHOD                    B3LYP
DFT_D                     d3_op
BASIS                     6-311++G(d,p)
SYMMETRY                  False
THRESH                    12
SCF_CONVERGENCE           8
MAX_SUB_FILE_NUM          128
MEM_STATIC                400
MEM_TOTAL                 4000
$end
--------------------------------------------------------------

             Standard Nuclear Orientation (Angstroms)
    I     Atom           X                Y                Z
 ----------------------------------------------------------------
    1      C      -1.6440527526     0.2148460582     1.1332102528
    2      C      -1.7983214153     0.5762381824    -0.3852719274
    3      C      -2.1111102063    -1.1665553967     1.5525294870
    4      C      -2.4918569060    -0.4352494319    -1.2739701735
    5      O      -1.4698704872    -2.1148249480     0.8335983780
    6      O      -2.8868850918    -1.4118104935     2.4401135607
    7      O      -3.6114797561    -0.9299048388    -0.7154585731
    8      O      -2.1136249435    -0.7261877794    -2.3837728337
    9      C      -4.3502879069    -1.8838302183    -1.4970290414
   10      C      -1.8427278909    -3.4772943172     1.1057252374
   11      C      -2.4295884233     1.3632361494     1.8103403230
   12      C      -1.5708567752     2.6425881420     1.7791009383
   13      C      -1.6546377438     3.0116119032     0.2696251779
   14      C      -2.6169992602     1.9189102400    -0.2751927167
   15      O      -3.4599945890     1.6583357777     0.8583322557
   16      H      -0.5832658851     0.2520086585     1.3970681953
   17      H      -0.8308137034     0.7511057001    -0.8523842358
   18      H      -3.7176223950    -2.7342381139    -1.7564421537
   19      H      -1.6036615247    -3.7420880045     2.1368268288
   20      H      -2.0253165168     3.4150560754     2.4011614235
   21      H      -0.5511124665     2.4796288971     2.1336756710
   22      H      -2.0993909478     3.9974117326     0.1234221264
   23      H      -0.6869978907     3.0024169193    -0.2361121404
   24      H      -5.1787841963    -2.1943801705    -0.8644945241
   25      H      -4.7198580303    -1.4215236627    -2.4138474608
   26      H      -1.2636867051    -4.0811811136     0.4105418836
   27      H      -2.9123195929    -3.6164584811     0.9392874243
   28      C      -3.4363319463     2.3129883923    -1.4835317760
   29      H      -3.9727499257     3.2418508643    -1.2791894769
   30      H      -2.7890875242     2.4660314929    -2.3504250463
   31      H      -4.1688024733     1.5419494873    -1.7284990814
   32      H      -2.7355549780     1.1034725626     2.8022140749
   33      C       3.3371684123     0.1045040449     0.7145459823
   34      C       3.1828997496     0.4658961691    -0.8039361979
   35      C       2.8701109585    -1.2768974100     1.1338652165
   36      C       2.4893642589    -0.5455914451    -1.6926344439
   37      O       3.5113506777    -2.2251669612     0.4149341076
   38      O       2.0943360731    -1.5221525067     2.0214492902
   39      O       1.3697414088    -1.0402468521    -1.1341228435
   40      O       2.8675962214    -0.8365297926    -2.8024371041
   41      C       0.6309332580    -1.9941722315    -1.9156933119
   42      C       3.1384932740    -3.5876363305     0.6870609670
   43      C       2.5516327416     1.2528941362     1.3916760526
   44      C       3.4103643897     2.5322461288     1.3604366679
   45      C       3.3265834211     2.9012698899    -0.1490390925
   46      C       2.3642219046     1.8085682267    -0.6938569871
   47      O       1.5212265759     1.5479937644     0.4396679853
   48      H       4.3979552798     0.1416666452     0.9784039248
   49      H       4.1504074614     0.6407636868    -1.2710485063
   50      H       1.2635987698    -2.8445801272    -2.1751064241
   51      H       3.3775596402    -3.8524300177     1.7181625584
   52      H       2.9559046480     3.3047140621     1.9824971530
   53      H       4.4301086983     2.3692868838     1.7150114005
   54      H       2.8818302170     3.8870697194    -0.2952421441
   55      H       4.2942232742     2.8920749061    -0.6547764109
   56      H      -0.1975630315    -2.3047221837    -1.2831587945
   57      H       0.2613631346    -1.5318656759    -2.8325117313
   58      H       3.7175344598    -4.1915231268    -0.0081223869
   59      H       2.0689015719    -3.7268004943     0.5206231539
   60      C       1.5448892186     2.2026463790    -1.9021960465
   61      H       1.0084712392     3.1315088510    -1.6978537474
   62      H       2.1921336406     2.3556894796    -2.7690893167
   63      H       0.8124186916     1.4316074740    -2.1471633519
   64      H       2.2456661868     0.9931305493     2.3835498045
 ----------------------------------------------------------------

   15   -1610.4087234550      5.16E-09 Convergence criterion met
 Total energy in the final basis set = -1610.40872346

                    Orbital Energies (a.u.)
 --------------------------------------------------------------

 Alpha MOs
 -- Occupied --
-19.179 -19.171 -19.171 -19.169 -19.143 -19.124 -19.121 -19.115
-19.114 -19.110 -10.314 -10.305 -10.303 -10.300 -10.253 -10.238
-10.236 -10.234 -10.229 -10.229 -10.217 -10.215 -10.211 -10.209
-10.193 -10.190 -10.186 -10.186 -10.178 -10.168 -10.165 -10.165
 -1.122  -1.116  -1.112  -1.108  -1.074  -1.053  -1.035  -1.026
 -1.025  -1.023  -0.839  -0.821  -0.803  -0.790  -0.786  -0.774
 -0.747  -0.741  -0.727  -0.724  -0.703  -0.689  -0.660  -0.646
 -0.611  -0.598  -0.597  -0.581  -0.568  -0.566  -0.564  -0.555
 -0.539  -0.525  -0.522  -0.515  -0.510  -0.503  -0.498  -0.493
 -0.487  -0.484  -0.483  -0.479  -0.476  -0.474  -0.470  -0.466
 -0.465  -0.453  -0.448  -0.438  -0.435  -0.428  -0.427  -0.419
 -0.417  -0.410  -0.410  -0.399  -0.398  -0.396  -0.392  -0.386
 -0.382  -0.375  -0.374  -0.371  -0.369  -0.366  -0.364  -0.359
 -0.356  -0.351  -0.345  -0.341  -0.338  -0.338  -0.324  -0.323
 -0.320  -0.316  -0.309  -0.308  -0.294  -0.287  -0.283  -0.280
 -0.275  -0.264

          Ground-State Mulliken Net Atomic Charges

     Atom                 Charge (a.u.)
  ----------------------------------------
      1 C                    -0.047162
      2 C                     0.519222
      3 C                    -0.622554
      4 C                    -0.098627
      5 O                     0.023451
      6 O                    -0.161480
      7 O                     0.085378
      8 O                    -0.090205
      9 C                    -0.174910
     10 C                    -0.282879
     11 C                    -0.609794
     12 C                    -0.287619
     13 C                    -0.252792
     14 C                    -0.481425
     15 O                     0.020184
     16 H                     0.257844
     17 H                     0.064764
     18 H                     0.193919
     19 H                     0.197477
     20 H                     0.197075
     21 H                     0.122360
     22 H                     0.192913
     23 H                     0.049524
     24 H                     0.177590
     25 H                     0.174432
     26 H                     0.119899
     27 H                     0.190543
     28 C                    -0.331103
     29 H                     0.185999
     30 H                     0.162048
     31 H                     0.186904
     32 H                     0.277542
     33 C                    -0.009667
     34 C                     0.424629
     35 C                    -0.678622
     36 C                    -0.818581
     37 O                     0.037312
     38 O                    -0.103424
     39 O                     0.060843
     40 O                    -0.089809
     41 C                    -0.384502
     42 C                    -0.165757
     43 C                    -0.114717
     44 C                    -0.690617
     45 C                    -0.310052
     46 C                    -0.305301
     47 O                     0.255323
     48 H                     0.248454
     49 H                     0.289480
     50 H                     0.216139
     51 H                     0.169567
     52 H                     0.177171
     53 H                     0.143198
     54 H                     0.168422
     55 H                     0.147973
     56 H                     0.139806
     57 H                     0.242143
     58 H                     0.167518
     59 H                     0.182716
     60 C                    -0.272377
     61 H                     0.206496
     62 H                     0.198356
     63 H                     0.234955
     64 H                     0.274409
  ----------------------------------------
  Sum of atomic charges =     0.000000

                    Cartesian Multipole Moments
 -----------------------------------------------------------------
    Charge (ESU x 10^10)
                -0.0000
    Dipole Moment (Debye)
         X       3.0781      Y       0.0717      Z       0.1080
       Tot       3.0808
    Quadrupole Moments (Debye-Ang)
        XX    -188.7337     XY       9.4939     YY    -165.6272
        XZ      19.5860     YZ       0.1746     ZZ    -209.0157

 Total job time:  7844.35s(wall), 7826.10s(cpu)
        *  Thank you very much for using Q-Chem.  Have a nice day.  *
