 Q-Chem 5.0, Q-Chem, Inc., Pleasanton, CA (2017)
 Q-Chem 5.0.1 for Intel X86 EM64T Linux

User input:
--------------------------------------------------------------
$molecule
0  1
C        +0.22270000        +1.04488000        +0.58595000
C        +0.62626000        -0.41353000        +0.99871000
C        -1.18200000        +1.23223000        +0.04377000
C        -0.37457000        -1.51643000        +0.72333000
O        -2.09172000        +0.78832000        +0.93966000
O        -1.47336000        +1.75939000        -0.99882000
O        -0.91364000        -1.42792000        -0.50620000
O        -0.62208000        -2.40877000        +1.49911000
C        -1.86134000        -2.44741000        -0.86560000
C        -3.47068000        +0.87492000        +0.53920000
C        +1.33008000        +1.39974000        -0.43491000
C        +2.63070000        +1.71700000        +0.32855000
C        +3.04336000        +0.29351000        +0.80300000
C        +1.94423000        -0.59299000        +0.15262000
O        +1.62840000        +0.13663000        -1.04376000
H        +0.27811000        +1.68786000        +1.46900000
H        +0.83923000        -0.48042000        +2.06408000
H        -2.68749000        -2.46677000        -0.15296000
H        -3.76076000        +1.91522000        +0.38406000
H        +3.37234000        +2.13782000        -0.35195000
H        +2.48236000        +2.42488000        +1.14651000
H        +4.02182000        +0.00994000        +0.41161000
H        +3.07359000        +0.18738000        +1.88928000
H        -2.21148000        -2.17765000        -1.85937000
H        -1.38062000        -3.42697000        -0.88096000
H        -4.03855000        +0.43623000        +1.35671000
H        -3.63120000        +0.31700000        -0.38495000
C        +2.35450000        -2.01267000        -0.16812000
H        +3.26311000        -2.00678000        -0.77366000
H        +2.54990000        -2.57059000        +0.75079000
H        +1.57335000        -2.52896000        -0.72872000
H        +1.03270000        +2.19943000        -1.08064000
@C        +0.24878000        +2.52233000        +5.36261000
@C        +0.65234000        +1.06392000        +5.77537000
@C        -1.15592000        +2.70968000        +4.82043000
@C        -0.34849000        -0.03898000        +5.49999000
@O        -2.06564000        +2.26577000        +5.71632000
@O        -1.44728000        +3.23684000        +3.77784000
@O        -0.88756000        +0.04953000        +4.27046000
@O        -0.59600000        -0.93132000        +6.27577000
@C        -1.83526000        -0.96996000        +3.91106000
@C        -3.44460000        +2.35237000        +5.31586000
@C        +1.35616000        +2.87719000        +4.34175000
@C        +2.65678000        +3.19445000        +5.10521000
@C        +3.06944000        +1.77096000        +5.57966000
@C        +1.97031000        +0.88446000        +4.92928000
@O        +1.65448000        +1.61408000        +3.73290000
@H        +0.30419000        +3.16531000        +6.24566000
@H        +0.86531000        +0.99703000        +6.84074000
@H        -2.66141000        -0.98932000        +4.62370000
@H        -3.73468000        +3.39267000        +5.16072000
@H        +3.39842000        +3.61527000        +4.42471000
@H        +2.50844000        +3.90233000        +5.92317000
@H        +4.04790000        +1.48739000        +5.18827000
@H        +3.09967000        +1.66483000        +6.66594000
@H        -2.18540000        -0.70020000        +2.91729000
@H        -1.35454000        -1.94952000        +3.89570000
@H        -4.01247000        +1.91368000        +6.13337000
@H        -3.60512000        +1.79445000        +4.39171000
@C        +2.38058000        -0.53522000        +4.60854000
@H        +3.28919000        -0.52933000        +4.00300000
@H        +2.57598000        -1.09314000        +5.52745000
@H        +1.59943000        -1.05151000        +4.04794000
@H        +1.05878000        +3.67688000        +3.69602000
$end

$rem
JOBTYPE                   SP
METHOD                    B3LYP
DFT_D                     d3_op
BASIS                     6-311++G(d,p)
SYMMETRY                  False
THRESH                    12
SCF_CONVERGENCE           8
MAX_SUB_FILE_NUM          128
MEM_STATIC                400
MEM_TOTAL                 4000
$end
--------------------------------------------------------------

             Standard Nuclear Orientation (Angstroms)
    I     Atom           X                Y                Z
 ----------------------------------------------------------------
    1      C       0.2227000000     1.0448800000     0.5859500000
    2      C       0.6262600000    -0.4135300000     0.9987100000
    3      C      -1.1820000000     1.2322300000     0.0437700000
    4      C      -0.3745700000    -1.5164300000     0.7233300000
    5      O      -2.0917200000     0.7883200000     0.9396600000
    6      O      -1.4733600000     1.7593900000    -0.9988200000
    7      O      -0.9136400000    -1.4279200000    -0.5062000000
    8      O      -0.6220800000    -2.4087700000     1.4991100000
    9      C      -1.8613400000    -2.4474100000    -0.8656000000
   10      C      -3.4706800000     0.8749200000     0.5392000000
   11      C       1.3300800000     1.3997400000    -0.4349100000
   12      C       2.6307000000     1.7170000000     0.3285500000
   13      C       3.0433600000     0.2935100000     0.8030000000
   14      C       1.9442300000    -0.5929900000     0.1526200000
   15      O       1.6284000000     0.1366300000    -1.0437600000
   16      H       0.2781100000     1.6878600000     1.4690000000
   17      H       0.8392300000    -0.4804200000     2.0640800000
   18      H      -2.6874900000    -2.4667700000    -0.1529600000
   19      H      -3.7607600000     1.9152200000     0.3840600000
   20      H       3.3723400000     2.1378200000    -0.3519500000
   21      H       2.4823600000     2.4248800000     1.1465100000
   22      H       4.0218200000     0.0099400000     0.4116100000
   23      H       3.0735900000     0.1873800000     1.8892800000
   24      H      -2.2114800000    -2.1776500000    -1.8593700000
   25      H      -1.3806200000    -3.4269700000    -0.8809600000
   26      H      -4.0385500000     0.4362300000     1.3567100000
   27      H      -3.6312000000     0.3170000000    -0.3849500000
   28      C       2.3545000000    -2.0126700000    -0.1681200000
   29      H       3.2631100000    -2.0067800000    -0.7736600000
   30      H       2.5499000000    -2.5705900000     0.7507900000
   31      H       1.5733500000    -2.5289600000    -0.7287200000
   32      H       1.0327000000     2.1994300000    -1.0806400000
   33      GH      0.2487800000     2.5223300000     5.3626100000
   34      GH      0.6523400000     1.0639200000     5.7753700000
   35      GH     -1.1559200000     2.7096800000     4.8204300000
   36      GH     -0.3484900000    -0.0389800000     5.4999900000
   37      GH     -2.0656400000     2.2657700000     5.7163200000
   38      GH     -1.4472800000     3.2368400000     3.7778400000
   39      GH     -0.8875600000     0.0495300000     4.2704600000
   40      GH     -0.5960000000    -0.9313200000     6.2757700000
   41      GH     -1.8352600000    -0.9699600000     3.9110600000
   42      GH     -3.4446000000     2.3523700000     5.3158600000
   43      GH      1.3561600000     2.8771900000     4.3417500000
   44      GH      2.6567800000     3.1944500000     5.1052100000
   45      GH      3.0694400000     1.7709600000     5.5796600000
   46      GH      1.9703100000     0.8844600000     4.9292800000
   47      GH      1.6544800000     1.6140800000     3.7329000000
   48      GH      0.3041900000     3.1653100000     6.2456600000
   49      GH      0.8653100000     0.9970300000     6.8407400000
   50      GH     -2.6614100000    -0.9893200000     4.6237000000
   51      GH     -3.7346800000     3.3926700000     5.1607200000
   52      GH      3.3984200000     3.6152700000     4.4247100000
   53      GH      2.5084400000     3.9023300000     5.9231700000
   54      GH      4.0479000000     1.4873900000     5.1882700000
   55      GH      3.0996700000     1.6648300000     6.6659400000
   56      GH     -2.1854000000    -0.7002000000     2.9172900000
   57      GH     -1.3545400000    -1.9495200000     3.8957000000
   58      GH     -4.0124700000     1.9136800000     6.1333700000
   59      GH     -3.6051200000     1.7944500000     4.3917100000
   60      GH      2.3805800000    -0.5352200000     4.6085400000
   61      GH      3.2891900000    -0.5293300000     4.0030000000
   62      GH      2.5759800000    -1.0931400000     5.5274500000
   63      GH      1.5994300000    -1.0515100000     4.0479400000
   64      GH      1.0587800000     3.6768800000     3.6960200000
 ----------------------------------------------------------------

   14    -805.1973541977      6.72E-09 Convergence criterion met
 Total energy in the final basis set = -805.19735420

                    Orbital Energies (a.u.)
 --------------------------------------------------------------

 Alpha MOs
 -- Occupied --
-19.175 -19.173 -19.131 -19.119 -19.116 -10.309 -10.306 -10.246
-10.232 -10.230 -10.228 -10.205 -10.204 -10.180 -10.178 -10.171
 -1.120  -1.113  -1.063  -1.030  -1.027  -0.832  -0.796  -0.784
 -0.746  -0.729  -0.697  -0.655  -0.606  -0.590  -0.569  -0.562
 -0.534  -0.518  -0.510  -0.492  -0.490  -0.483  -0.476  -0.472
 -0.461  -0.443  -0.434  -0.425  -0.416  -0.405  -0.397  -0.389
 -0.381  -0.374  -0.369  -0.361  -0.355  -0.351  -0.333  -0.332
 -0.320  -0.313  -0.289  -0.281  -0.274

          Ground-State Mulliken Net Atomic Charges

     Atom                 Charge (a.u.)
  ----------------------------------------
      1 C                    -0.068817
      2 C                     0.424541
      3 C                    -0.547205
      4 C                    -0.146327
      5 O                     0.041467
      6 O                    -0.155768
      7 O                     0.074498
      8 O                    -0.075231
      9 C                    -0.179869
     10 C                    -0.300774
     11 C                    -0.549212
     12 C                    -0.294682
     13 C                    -0.298045
     14 C                    -0.448890
     15 O                     0.023927
     16 H                     0.192232
     17 H                     0.158057
     18 H                     0.197784
     19 H                     0.191812
     20 H                     0.206012
     21 H                     0.124785
     22 H                     0.198898
     23 H                     0.082344
     24 H                     0.176629
     25 H                     0.174897
     26 H                     0.131116
     27 H                     0.189888
     28 C                    -0.331221
     29 H                     0.187997
     30 H                     0.168654
     31 H                     0.190323
     32 H                     0.283029
     33 GH                    0.013700
     34 GH                    0.013433
     35 GH                   -0.009298
     36 GH                    0.022826
     37 GH                    0.001772
     38 GH                   -0.007719
     39 GH                    0.010968
     40 GH                    0.001122
     41 GH                   -0.055837
     42 GH                    0.000227
     43 GH                   -0.037646
     44 GH                    0.007819
     45 GH                   -0.015801
     46 GH                   -0.076738
     47 GH                    0.013309
     48 GH                   -0.000239
     49 GH                    0.000648
     50 GH                   -0.004221
     51 GH                    0.000427
     52 GH                    0.003364
     53 GH                   -0.000113
     54 GH                   -0.000945
     55 GH                    0.000207
     56 GH                    0.037463
     57 GH                    0.006446
     58 GH                   -0.000244
     59 GH                   -0.002607
     60 GH                    0.038566
     61 GH                    0.016171
     62 GH                   -0.001149
     63 GH                   -0.001492
     64 GH                    0.002732
  ----------------------------------------
  Sum of atomic charges =     0.000000

                    Cartesian Multipole Moments
 -----------------------------------------------------------------
    Charge (ESU x 10^10)
                 0.0000
    Dipole Moment (Debye)
         X       0.0549      Y       0.4817      Z       1.1177
       Tot       1.2183
    Quadrupole Moments (Debye-Ang)
        XX     -81.7652     XY       2.5777     YY     -96.1955
        XZ       3.0712     YZ      10.8442     ZZ    -102.2256

 Total job time:  8659.44s(wall), 8623.05s(cpu)
        *  Thank you very much for using Q-Chem.  Have a nice day.  *
