 Q-Chem 5.0, Q-Chem, Inc., Pleasanton, CA (2017)
 Q-Chem 5.0.1 for Intel X86 EM64T Linux

User input:
--------------------------------------------------------------
$molecule
0  1
--
0  1
C        +0.22270000        +1.04488000        +0.58595000
C        +0.62626000        -0.41353000        +0.99871000
C        -1.18200000        +1.23223000        +0.04377000
C        -0.37457000        -1.51643000        +0.72333000
O        -2.09172000        +0.78832000        +0.93966000
O        -1.47336000        +1.75939000        -0.99882000
O        -0.91364000        -1.42792000        -0.50620000
O        -0.62208000        -2.40877000        +1.49911000
C        -1.86134000        -2.44741000        -0.86560000
C        -3.47068000        +0.87492000        +0.53920000
C        +1.33008000        +1.39974000        -0.43491000
C        +2.63070000        +1.71700000        +0.32855000
C        +3.04336000        +0.29351000        +0.80300000
C        +1.94423000        -0.59299000        +0.15262000
O        +1.62840000        +0.13663000        -1.04376000
H        +0.27811000        +1.68786000        +1.46900000
H        +0.83923000        -0.48042000        +2.06408000
H        -2.68749000        -2.46677000        -0.15296000
H        -3.76076000        +1.91522000        +0.38406000
H        +3.37234000        +2.13782000        -0.35195000
H        +2.48236000        +2.42488000        +1.14651000
H        +4.02182000        +0.00994000        +0.41161000
H        +3.07359000        +0.18738000        +1.88928000
H        -2.21148000        -2.17765000        -1.85937000
H        -1.38062000        -3.42697000        -0.88096000
H        -4.03855000        +0.43623000        +1.35671000
H        -3.63120000        +0.31700000        -0.38495000
C        +0.90028000        +2.39077000        -1.49430000
C        +2.35450000        -2.01267000        -0.16812000
H        +3.26311000        -2.00678000        -0.77366000
H        +2.54990000        -2.57059000        +0.75079000
H        +1.57335000        -2.52896000        -0.72872000
H        +1.71845000        +2.58186000        -2.15686000
H        +0.59919000        +3.30478000        -1.02650000
H        +0.07925000        +1.98653000        -2.04874000
--
0  1
C        +0.24878000        +2.52233000        +5.36261000
C        +0.65234000        +1.06392000        +5.77537000
C        -1.15592000        +2.70968000        +4.82043000
C        -0.34849000        -0.03898000        +5.49999000
O        -2.06564000        +2.26577000        +5.71632000
O        -1.44728000        +3.23684000        +3.77784000
O        -0.88756000        +0.04953000        +4.27046000
O        -0.59600000        -0.93132000        +6.27577000
C        -1.83526000        -0.96996000        +3.91106000
C        -3.44460000        +2.35237000        +5.31586000
C        +1.35616000        +2.87719000        +4.34175000
C        +2.65678000        +3.19445000        +5.10521000
C        +3.06944000        +1.77096000        +5.57966000
C        +1.97031000        +0.88446000        +4.92928000
O        +1.65448000        +1.61408000        +3.73290000
H        +0.30419000        +3.16531000        +6.24566000
H        +0.86531000        +0.99703000        +6.84074000
H        -2.66141000        -0.98932000        +4.62370000
H        -3.73468000        +3.39267000        +5.16072000
H        +3.39842000        +3.61527000        +4.42471000
H        +2.50844000        +3.90233000        +5.92317000
H        +4.04790000        +1.48739000        +5.18827000
H        +3.09967000        +1.66483000        +6.66594000
H        -2.18540000        -0.70020000        +2.91729000
H        -1.35454000        -1.94952000        +3.89570000
H        -4.01247000        +1.91368000        +6.13337000
H        -3.60512000        +1.79445000        +4.39171000
C        +0.92636000        +3.86822000        +3.28236000
C        +2.38058000        -0.53522000        +4.60854000
H        +3.28919000        -0.52933000        +4.00300000
H        +2.57598000        -1.09314000        +5.52745000
H        +1.59943000        -1.05151000        +4.04794000
H        +1.74453000        +4.05931000        +2.61980000
H        +0.62527000        +4.78223000        +3.75016000
H        +0.10533000        +3.46398000        +2.72792000
$end

$rem
JOBTYPE                   SP
METHOD                    B3LYP
DFT_D                     d3_op
BASIS                     6-311++G(d,p)
SYMMETRY                  False
THRESH                    12
SCF_CONVERGENCE           8
MAX_SUB_FILE_NUM          128
MEM_STATIC                400
MEM_TOTAL                 4000
$end
--------------------------------------------------------------

             Standard Nuclear Orientation (Angstroms)
    I     Atom           X                Y                Z
 ----------------------------------------------------------------
    1      C      -1.6355906600     0.2573393361     0.8637285771
    2      C      -1.7458576405     0.4056214295    -0.6938480127
    3      C      -2.0960835517    -1.0625434434     1.4537260432
    4      C      -2.3957083548    -0.7302202990    -1.4563707076
    5      O      -1.4183904282    -2.0877758895     0.8907909491
    6      O      -2.8965481440    -1.1990433796     2.3427740888
    7      O      -3.5255868513    -1.1649768603    -0.8693989694
    8      O      -1.9776569348    -1.1624955085    -2.5041004617
    9      C      -4.2249715985    -2.2300563926    -1.5350791293
   10      C      -1.7802552394    -3.4071975131     1.3352894202
   11      C      -2.4590105650     1.4724110438     1.3535771544
   12      C      -1.6181704110     2.7513643623     1.1735668541
   13      C      -1.6583945349     2.9097456226    -0.3740158592
   14      C      -2.5868549467     1.7352855658    -0.7930242003
   15      O      -3.4622293008     1.6158543511     0.3396165030
   16      H      -0.5845316501     0.3498497664     1.1518043122
   17      H      -0.7663637368     0.5332393050    -1.1511762324
   18      H      -3.5721082845    -3.0959332885    -1.6566566597
   19      H      -1.5708731713    -3.5245954402     2.3996276147
   20      H      -2.1035451298     3.5927512478     1.6702348551
   21      H      -0.6081885696     2.6572428168     1.5775906485
   22      H      -2.1122929872     3.8579888775    -0.6669202345
   23      H      -0.6748777584     2.8497903065    -0.8444218313
   24      H      -5.0689415785    -2.4669493817    -0.8912284675
   25      H      -4.5713056664    -1.9038877298    -2.5171851106
   26      H      -1.1704328200    -4.0892410206     0.7469178337
   27      H      -2.8417990239    -3.5876374548     1.1573544870
   28      C      -3.1170476035     1.2710465720     2.7010248448
   29      C      -3.3722658583     1.9457904728    -2.0679768689
   30      H      -3.9282875828     2.8836703437    -2.0087594271
   31      H      -2.6995965986     1.9913768140    -2.9277962843
   32      H      -4.0852905454     1.1350604123    -2.2271485089
   33      H      -3.6638374655     2.1517622705     2.9660984114
   34      H      -2.3665175027     1.0813713029     3.4396953860
   35      H      -3.7861497784     0.4376061879     2.6501981014
   36      C       3.3576324002     0.1838395271     0.6140474314
   37      C       3.2473654196     0.3321216206    -0.9435291584
   38      C       2.8971395084    -1.1360432523     1.2040448976
   39      C       2.5975147053    -0.8037201080    -1.7060518532
   40      O       3.5748326319    -2.1612756985     0.6411098035
   41      O       2.0966749161    -1.2725431885     2.0930929431
   42      O       1.4676362088    -1.2384766692    -1.1190801151
   43      O       3.0155661253    -1.2359953175    -2.7537816073
   44      C       0.7682514616    -2.3035562015    -1.7847602750
   45      C       3.2129678207    -3.4806973221     1.0856082746
   46      C       2.5342124952     1.3989112348     1.1038960087
   47      C       3.3750526492     2.6778645533     0.9238857085
   48      C       3.3348285252     2.8362458137    -0.6236970048
   49      C       2.4063681134     1.6617857569    -1.0427053460
   50      O       1.5309937593     1.5423545421     0.0899353573
   51      H       4.4086914100     0.2763499575     0.9021231666
   52      H       4.2268593233     0.4597394960    -1.4008573780
   53      H       1.4211147757    -3.1694330975    -1.9063378053
   54      H       3.4223498888    -3.5980952492     2.1499464691
   55      H       2.8896779303     3.5192514388     1.4205537095
   56      H       4.3850344905     2.5837430079     1.3279095028
   57      H       2.8809300729     3.7844890686    -0.9166013802
   58      H       4.3183453017     2.7762904976    -1.0941029769
   59      H      -0.0757185184    -2.5404491907    -1.1409096131
   60      H       0.4219173937    -1.9773875388    -2.7668662563
   61      H       3.8227902401    -4.1627408295     0.4972366881
   62      H       2.1514240362    -3.6611372638     0.9076733414
   63      C       1.8761754567     1.1975467630     2.4513436992
   64      C       1.6209572019     1.8722906639    -2.3176580145
   65      H       1.0649354773     2.8101705347    -2.2584405727
   66      H       2.2936264616     1.9178770051    -3.1774774299
   67      H       0.9079325147     1.0615606033    -2.4768296545
   68      H       1.3293855946     2.0782624616     2.7164172657
   69      H       2.6267055574     1.0078714940     3.1900142404
   70      H       1.2070732817     0.3641063789     2.4005169558
 ----------------------------------------------------------------

   15   -1689.0502992437      5.27E-09 Convergence criterion met
 Total energy in the final basis set = -1689.05029924

                    Orbital Energies (a.u.)
 --------------------------------------------------------------

 Alpha MOs
 -- Occupied --
-19.179 -19.171 -19.171 -19.170 -19.136 -19.122 -19.115 -19.114
-19.114 -19.110 -10.316 -10.305 -10.303 -10.303 -10.250 -10.240
-10.235 -10.234 -10.231 -10.229 -10.220 -10.215 -10.210 -10.207
-10.193 -10.190 -10.184 -10.182 -10.175 -10.166 -10.163 -10.162
-10.148 -10.128  -1.124  -1.117  -1.112  -1.110  -1.072  -1.051
 -1.038  -1.028  -1.027  -1.025  -0.838  -0.822  -0.812  -0.795
 -0.790  -0.773  -0.749  -0.744  -0.732  -0.725  -0.724  -0.713
 -0.679  -0.667  -0.651  -0.635  -0.607  -0.596  -0.586  -0.573
 -0.570  -0.565  -0.564  -0.554  -0.529  -0.518  -0.517  -0.512
 -0.510  -0.500  -0.498  -0.492  -0.487  -0.484  -0.483  -0.478
 -0.475  -0.472  -0.471  -0.465  -0.463  -0.451  -0.447  -0.439
 -0.438  -0.434  -0.428  -0.428  -0.420  -0.413  -0.410  -0.407
 -0.405  -0.404  -0.397  -0.395  -0.393  -0.387  -0.378  -0.374
 -0.372  -0.369  -0.367  -0.364  -0.360  -0.357  -0.355  -0.353
 -0.349  -0.344  -0.340  -0.338  -0.335  -0.334  -0.324  -0.323
 -0.319  -0.317  -0.311  -0.309  -0.286  -0.282  -0.281  -0.275
 -0.263  -0.262

          Ground-State Mulliken Net Atomic Charges

     Atom                 Charge (a.u.)
  ----------------------------------------
      1 C                     0.269777
      2 C                     0.670742
      3 C                    -0.492674
      4 C                    -0.377694
      5 O                     0.063234
      6 O                    -0.101601
      7 O                     0.073854
      8 O                    -0.072957
      9 C                    -0.151408
     10 C                    -0.272539
     11 C                    -1.126367
     12 C                    -0.091141
     13 C                     0.075803
     14 C                    -1.080886
     15 O                     0.195075
     16 H                     0.178970
     17 H                     0.045877
     18 H                     0.191587
     19 H                     0.196886
     20 H                     0.196546
     21 H                     0.129902
     22 H                     0.199989
     23 H                     0.075219
     24 H                     0.177467
     25 H                     0.177586
     26 H                     0.125517
     27 H                     0.194515
     28 C                    -0.345303
     29 C                    -0.159281
     30 H                     0.177906
     31 H                     0.165158
     32 H                     0.186263
     33 H                     0.139720
     34 H                     0.143075
     35 H                     0.207381
     36 C                    -0.086709
     37 C                     0.453895
     38 C                    -0.761635
     39 C                    -0.771899
     40 O                     0.067706
     41 O                    -0.063807
     42 O                     0.051714
     43 O                    -0.085266
     44 C                    -0.371790
     45 C                    -0.166416
     46 C                     0.001969
     47 C                    -0.279533
     48 C                    -0.411756
     49 C                    -0.231069
     50 O                     0.307481
     51 H                     0.259639
     52 H                     0.285543
     53 H                     0.219042
     54 H                     0.167903
     55 H                     0.175723
     56 H                     0.155465
     57 H                     0.169143
     58 H                     0.151213
     59 H                     0.137902
     60 H                     0.241747
     61 H                     0.167722
     62 H                     0.176450
     63 C                    -0.680312
     64 C                    -0.416990
     65 H                     0.213741
     66 H                     0.197829
     67 H                     0.226799
     68 H                     0.141875
     69 H                     0.169798
     70 H                     0.200684
  ----------------------------------------
  Sum of atomic charges =    -0.000000

                    Cartesian Multipole Moments
 -----------------------------------------------------------------
    Charge (ESU x 10^10)
                -0.0000
    Dipole Moment (Debye)
         X       2.7857      Y      -0.5213      Z       0.4679
       Tot       2.8725
    Quadrupole Moments (Debye-Ang)
        XX    -202.5282     XY      11.9453     YY    -180.7820
        XZ      17.7697     YZ      -6.5835     ZZ    -220.8178

 Total job time:  3955.60s(wall), 7876.12s(cpu)
        *  Thank you very much for using Q-Chem.  Have a nice day.  *
