 Q-Chem 5.0, Q-Chem, Inc., Pleasanton, CA (2017)
 Q-Chem 5.0.1 for Intel X86 EM64T Linux

User input:
--------------------------------------------------------------
$molecule
0  1
--
0  1
C        -0.54444000        -0.68370000        -0.06689000
C        -0.55709000        +0.71878000        +0.05493000
C        +0.74969000        -1.43776000        -0.09374000
C        +0.72843000        +1.48436000        +0.06598000
O        +1.53645000        -1.09176000        +0.94813000
O        +1.04702000        -2.28405000        -0.90088000
O        +1.53784000        +1.08301000        -0.93877000
O        +1.01035000        +2.37097000        +0.83478000
C        +2.83449000        +1.70121000        -0.99358000
C        +2.82316000        -1.73208000        +1.00475000
C        -1.74320000        -1.41616000        -0.12552000
C        -2.93952000        -0.70056000        -0.05285000
C        -2.95313000        +0.68255000        +0.06934000
C        -1.77161000        +1.42404000        +0.12810000
H        +2.73835000        +2.77989000        -1.12464000
H        +2.70778000        -2.81319000        +1.09555000
H        -3.90354000        +1.20325000        +0.11710000
H        +3.38998000        +1.50093000        -0.07544000
H        +3.33184000        +1.25269000        -1.85067000
H        +3.31095000        -1.32281000        +1.88650000
H        +3.39889000        -1.50934000        +0.10459000
H        -3.87892000        -1.24211000        -0.08988000
C        -1.83960000        +2.92746000        +0.24839000
H        -1.24214000        +3.42352000        -0.52065000
H        -1.45503000        +3.26427000        +1.21284000
H        -2.87211000        +3.26623000        +0.14638000
H        -1.73878000        -2.44393000        -0.21875000
--
0  1
C        -0.51003000        -1.11966000        +4.91395000
C        -0.52268000        +0.28282000        +5.03577000
C        +0.78410000        -1.87372000        +4.88710000
C        +0.76284000        +1.04840000        +5.04682000
O        +1.57086000        -1.52772000        +5.92897000
O        +1.08143000        -2.72001000        +4.07996000
O        +1.57225000        +0.64705000        +4.04207000
O        +1.04476000        +1.93501000        +5.81562000
C        +2.86890000        +1.26525000        +3.98726000
C        +2.85757000        -2.16804000        +5.98559000
C        -1.70879000        -1.85212000        +4.85532000
C        -2.90511000        -1.13652000        +4.92799000
C        -2.91872000        +0.24659000        +5.05018000
C        -1.73720000        +0.98808000        +5.10894000
H        +2.77276000        +2.34393000        +3.85620000
H        +2.74219000        -3.24915000        +6.07639000
H        -3.86913000        +0.76729000        +5.09794000
H        +3.42439000        +1.06497000        +4.90540000
H        +3.36625000        +0.81673000        +3.13017000
H        +3.34536000        -1.75877000        +6.86734000
H        +3.43330000        -1.94530000        +5.08543000
H        -3.84451000        -1.67807000        +4.89096000
C        -1.80519000        +2.49150000        +5.22923000
H        -1.20773000        +2.98756000        +4.46019000
H        -1.42062000        +2.82831000        +6.19368000
H        -2.83770000        +2.83027000        +5.12722000
H        -1.70437000        -2.87989000        +4.76209000
$end

$rem
JOBTYPE                   SP
METHOD                    B3LYP
DFT_D                     d3_op
BASIS                     6-311++G(d,p)
SYMMETRY                  False
THRESH                    12
SCF_CONVERGENCE           8
MAX_SUB_FILE_NUM          128
MEM_STATIC                400
MEM_TOTAL                 4000
$end
--------------------------------------------------------------

             Standard Nuclear Orientation (Angstroms)
    I     Atom           X                Y                Z
 ----------------------------------------------------------------
    1      C      -2.4518242849     0.2130044349     1.2328813698
    2      C      -2.5440124787     0.7119254724    -0.0803320251
    3      C      -2.3345424268    -1.2588706408     1.4857224078
    4      C      -2.6194905059    -0.2310858188    -1.2395685331
    5      O      -1.3392814596    -1.8012259555     0.7512112001
    6      O      -2.9972531011    -1.8856937144     2.2756554867
    7      O      -3.5330848435    -1.2007804032    -1.0142094145
    8      O      -1.9874863803    -0.1362270191    -2.2633762357
    9      C      -3.6510835568    -2.2093302964    -2.0317456621
   10      C      -1.1568995959    -3.2212036973     0.8899131084
   11      C      -2.4263887681     1.0824748202     2.3375690857
   12      C      -2.4903261982     2.4529616565     2.0802294894
   13      C      -2.5792388889     2.9462072228     0.7852730249
   14      C      -2.6063081159     2.0959817646    -0.3218103484
   15      H      -3.9460746304    -1.7612373186    -2.9815683379
   16      H      -0.9061771064    -3.4748663130     1.9210045337
   17      H      -2.6326525840     4.0179506999     0.6265229947
   18      H      -2.7007120038    -2.7302981581    -2.1623162423
   19      H      -4.4187754528    -2.8917204136    -1.6738024240
   20      H      -0.3363043862    -3.4736405842     0.2222131762
   21      H      -2.0669594644    -3.7514281176     0.6035230492
   22      H      -2.4664936846     3.1460321699     2.9146186421
   23      C      -2.7165559082     2.6810610896    -1.7092149859
   24      H      -3.5379132722     2.2333339915    -2.2743424255
   25      H      -1.8056350832     2.5067792369    -2.2848432947
   26      H      -2.8923197520     3.7566582017    -1.6505125421
   27      H      -2.3628531653     0.7211067899     3.3021409680
   28      C       2.5370801011     0.4005315350     0.9577834066
   29      C       2.4448919073     0.8994525725    -0.3554299883
   30      C       2.6543619592    -1.0713435406     1.2106244445
   31      C       2.3694138801    -0.0435587186    -1.5146664963
   32      O       3.6496229264    -1.6136988554     0.4761132369
   33      O       1.9916512849    -1.6981666143     2.0005575234
   34      O       1.4558195425    -1.0132533031    -1.2893073778
   35      O       3.0014180057     0.0513000811    -2.5384741989
   36      C       1.3378208292    -2.0218031963    -2.3068436254
   37      C       3.8320047901    -3.0336765972     0.6148151452
   38      C       2.5625156179     1.2700019203     2.0624711225
   39      C       2.4985781878     2.6404887566     1.8051315262
   40      C       2.4096654971     3.1337343229     0.5101750616
   41      C       2.3825962701     2.2835088647    -0.5969083116
   42      H       1.0428297556    -1.5737102185    -3.2566663011
   43      H       4.0827272796    -3.2873392129     1.6459065704
   44      H       2.3562518020     4.2054778000     0.3514250314
   45      H       2.2881923822    -2.5427710580    -2.4374142055
   46      H       0.5701289332    -2.7041933134    -1.9489003873
   47      H       4.6525999998    -3.2861134841    -0.0528847870
   48      H       2.9219449216    -3.5639010175     0.3284250860
   49      H       2.5224107014     3.3335592700     2.6395206788
   50      C       2.2723484778     2.8685881898    -1.9843129491
   51      H       1.4509911138     2.4208610916    -2.5494403887
   52      H       3.1832693028     2.6943063370    -2.5599412579
   53      H       2.0965846340     3.9441853018    -1.9256105054
   54      H       2.6260512207     0.9086338900     3.0270430048
 ----------------------------------------------------------------

   15   -1455.0940852686      6.81E-09 Convergence criterion met
 Total energy in the final basis set = -1455.09408527

                    Orbital Energies (a.u.)
 --------------------------------------------------------------

 Alpha MOs
 -- Occupied --
-19.177 -19.176 -19.171 -19.168 -19.120 -19.119 -19.116 -19.113
-10.312 -10.311 -10.308 -10.305 -10.233 -10.233 -10.228 -10.225
-10.208 -10.207 -10.205 -10.205 -10.204 -10.204 -10.191 -10.190
-10.188 -10.187 -10.187 -10.187 -10.173 -10.170  -1.120  -1.119
 -1.111  -1.109  -1.032  -1.030  -1.027  -1.023  -0.883  -0.883
 -0.798  -0.798  -0.792  -0.792  -0.744  -0.744  -0.729  -0.727
 -0.702  -0.701  -0.652  -0.651  -0.624  -0.623  -0.579  -0.577
 -0.574  -0.569  -0.547  -0.546  -0.519  -0.517  -0.511  -0.510
 -0.490  -0.490  -0.485  -0.485  -0.481  -0.477  -0.476  -0.473
 -0.469  -0.468  -0.445  -0.443  -0.434  -0.431  -0.430  -0.429
 -0.427  -0.423  -0.411  -0.409  -0.404  -0.402  -0.393  -0.393
 -0.382  -0.380  -0.376  -0.373  -0.368  -0.366  -0.363  -0.362
 -0.360  -0.357  -0.320  -0.319  -0.310  -0.308  -0.295  -0.294
 -0.291  -0.289  -0.267  -0.265  -0.262  -0.259

          Ground-State Mulliken Net Atomic Charges

     Atom                 Charge (a.u.)
  ----------------------------------------
      1 C                     0.375739
      2 C                     1.122417
      3 C                    -0.479118
      4 C                    -1.050182
      5 O                     0.116525
      6 O                    -0.172694
      7 O                     0.103588
      8 O                    -0.096240
      9 C                    -0.179909
     10 C                    -0.348601
     11 C                    -0.494136
     12 C                    -0.222621
     13 C                    -0.390541
     14 C                     0.192353
     15 H                     0.165991
     16 H                     0.209935
     17 H                     0.151090
     18 H                     0.180707
     19 H                     0.172751
     20 H                     0.090678
     21 H                     0.186965
     22 H                     0.182608
     23 C                    -0.529701
     24 H                     0.174262
     25 H                     0.190457
     26 H                     0.147056
     27 H                     0.196247
     28 C                     0.565839
     29 C                     0.834581
     30 C                    -0.898562
     31 C                    -0.756659
     32 O                     0.090983
     33 O                    -0.103008
     34 O                     0.103557
     35 O                    -0.145353
     36 C                    -0.326725
     37 C                    -0.164493
     38 C                    -0.526267
     39 C                    -0.215045
     40 C                    -0.480104
     41 C                     0.424904
     42 H                     0.200978
     43 H                     0.169490
     44 H                     0.151118
     45 H                     0.196181
     46 H                     0.098992
     47 H                     0.173014
     48 H                     0.174735
     49 H                     0.184972
     50 C                    -0.484068
     51 H                     0.203666
     52 H                     0.214679
     53 H                     0.134018
     54 H                     0.182950
  ----------------------------------------
  Sum of atomic charges =     0.000000

                    Cartesian Multipole Moments
 -----------------------------------------------------------------
    Charge (ESU x 10^10)
                 0.0000
    Dipole Moment (Debye)
         X       0.2445      Y       0.3779      Z      -0.7917
       Tot       0.9107
    Quadrupole Moments (Debye-Ang)
        XX    -182.2983     XY      -7.4584     YY    -144.9104
        XZ      16.8635     YZ      14.2917     ZZ    -180.6098

 Total job time:  1737.16s(wall), 3458.15s(cpu)
        *  Thank you very much for using Q-Chem.  Have a nice day.  *
