 Q-Chem 5.0, Q-Chem, Inc., Pleasanton, CA (2017)
 Q-Chem 5.0.1 for Intel X86 EM64T Linux

User input:
--------------------------------------------------------------
$molecule
0  1
C        -0.51003000        -1.11966000        +4.91395000
C        -0.52268000        +0.28282000        +5.03577000
C        +0.78410000        -1.87372000        +4.88710000
C        +0.76284000        +1.04840000        +5.04682000
O        +1.57086000        -1.52772000        +5.92897000
O        +1.08143000        -2.72001000        +4.07996000
O        +1.57225000        +0.64705000        +4.04207000
O        +1.04476000        +1.93501000        +5.81562000
C        +2.86890000        +1.26525000        +3.98726000
C        +2.85757000        -2.16804000        +5.98559000
C        -1.70879000        -1.85212000        +4.85532000
C        -2.90511000        -1.13652000        +4.92799000
C        -2.91872000        +0.24659000        +5.05018000
C        -1.73720000        +0.98808000        +5.10894000
H        +2.77276000        +2.34393000        +3.85620000
H        +2.74219000        -3.24915000        +6.07639000
H        -3.86913000        +0.76729000        +5.09794000
H        +3.42439000        +1.06497000        +4.90540000
H        +3.36625000        +0.81673000        +3.13017000
H        +3.34536000        -1.75877000        +6.86734000
H        +3.43330000        -1.94530000        +5.08543000
H        -3.84451000        -1.67807000        +4.89096000
C        -1.80519000        +2.49150000        +5.22923000
H        -1.20773000        +2.98756000        +4.46019000
H        -1.42062000        +2.82831000        +6.19368000
H        -2.83770000        +2.83027000        +5.12722000
H        -1.70437000        -2.87989000        +4.76209000
@C        -0.54444000        -0.68370000        -0.06689000
@C        -0.55709000        +0.71878000        +0.05493000
@C        +0.74969000        -1.43776000        -0.09374000
@C        +0.72843000        +1.48436000        +0.06598000
@O        +1.53645000        -1.09176000        +0.94813000
@O        +1.04702000        -2.28405000        -0.90088000
@O        +1.53784000        +1.08301000        -0.93877000
@O        +1.01035000        +2.37097000        +0.83478000
@C        +2.83449000        +1.70121000        -0.99358000
@C        +2.82316000        -1.73208000        +1.00475000
@C        -1.74320000        -1.41616000        -0.12552000
@C        -2.93952000        -0.70056000        -0.05285000
@C        -2.95313000        +0.68255000        +0.06934000
@C        -1.77161000        +1.42404000        +0.12810000
@H        +2.73835000        +2.77989000        -1.12464000
@H        +2.70778000        -2.81319000        +1.09555000
@H        -3.90354000        +1.20325000        +0.11710000
@H        +3.38998000        +1.50093000        -0.07544000
@H        +3.33184000        +1.25269000        -1.85067000
@H        +3.31095000        -1.32281000        +1.88650000
@H        +3.39889000        -1.50934000        +0.10459000
@H        -3.87892000        -1.24211000        -0.08988000
@C        -1.83960000        +2.92746000        +0.24839000
@H        -1.24214000        +3.42352000        -0.52065000
@H        -1.45503000        +3.26427000        +1.21284000
@H        -2.87211000        +3.26623000        +0.14638000
@H        -1.73878000        -2.44393000        -0.21875000
$end

$rem
JOBTYPE                   SP
METHOD                    B3LYP
DFT_D                     d3_op
BASIS                     6-311++G(d,p)
SYMMETRY                  False
THRESH                    12
SCF_CONVERGENCE           8
MAX_SUB_FILE_NUM          128
MEM_STATIC                400
MEM_TOTAL                 4000
$end
--------------------------------------------------------------

             Standard Nuclear Orientation (Angstroms)
    I     Atom           X                Y                Z
 ----------------------------------------------------------------
    1      C      -0.5100300000    -1.1196600000     4.9139500000
    2      C      -0.5226800000     0.2828200000     5.0357700000
    3      C       0.7841000000    -1.8737200000     4.8871000000
    4      C       0.7628400000     1.0484000000     5.0468200000
    5      O       1.5708600000    -1.5277200000     5.9289700000
    6      O       1.0814300000    -2.7200100000     4.0799600000
    7      O       1.5722500000     0.6470500000     4.0420700000
    8      O       1.0447600000     1.9350100000     5.8156200000
    9      C       2.8689000000     1.2652500000     3.9872600000
   10      C       2.8575700000    -2.1680400000     5.9855900000
   11      C      -1.7087900000    -1.8521200000     4.8553200000
   12      C      -2.9051100000    -1.1365200000     4.9279900000
   13      C      -2.9187200000     0.2465900000     5.0501800000
   14      C      -1.7372000000     0.9880800000     5.1089400000
   15      H       2.7727600000     2.3439300000     3.8562000000
   16      H       2.7421900000    -3.2491500000     6.0763900000
   17      H      -3.8691300000     0.7672900000     5.0979400000
   18      H       3.4243900000     1.0649700000     4.9054000000
   19      H       3.3662500000     0.8167300000     3.1301700000
   20      H       3.3453600000    -1.7587700000     6.8673400000
   21      H       3.4333000000    -1.9453000000     5.0854300000
   22      H      -3.8445100000    -1.6780700000     4.8909600000
   23      C      -1.8051900000     2.4915000000     5.2292300000
   24      H      -1.2077300000     2.9875600000     4.4601900000
   25      H      -1.4206200000     2.8283100000     6.1936800000
   26      H      -2.8377000000     2.8302700000     5.1272200000
   27      H      -1.7043700000    -2.8798900000     4.7620900000
   28      GH     -0.5444400000    -0.6837000000    -0.0668900000
   29      GH     -0.5570900000     0.7187800000     0.0549300000
   30      GH      0.7496900000    -1.4377600000    -0.0937400000
   31      GH      0.7284300000     1.4843600000     0.0659800000
   32      GH      1.5364500000    -1.0917600000     0.9481300000
   33      GH      1.0470200000    -2.2840500000    -0.9008800000
   34      GH      1.5378400000     1.0830100000    -0.9387700000
   35      GH      1.0103500000     2.3709700000     0.8347800000
   36      GH      2.8344900000     1.7012100000    -0.9935800000
   37      GH      2.8231600000    -1.7320800000     1.0047500000
   38      GH     -1.7432000000    -1.4161600000    -0.1255200000
   39      GH     -2.9395200000    -0.7005600000    -0.0528500000
   40      GH     -2.9531300000     0.6825500000     0.0693400000
   41      GH     -1.7716100000     1.4240400000     0.1281000000
   42      GH      2.7383500000     2.7798900000    -1.1246400000
   43      GH      2.7077800000    -2.8131900000     1.0955500000
   44      GH     -3.9035400000     1.2032500000     0.1171000000
   45      GH      3.3899800000     1.5009300000    -0.0754400000
   46      GH      3.3318400000     1.2526900000    -1.8506700000
   47      GH      3.3109500000    -1.3228100000     1.8865000000
   48      GH      3.3988900000    -1.5093400000     0.1045900000
   49      GH     -3.8789200000    -1.2421100000    -0.0898800000
   50      GH     -1.8396000000     2.9274600000     0.2483900000
   51      GH     -1.2421400000     3.4235200000    -0.5206500000
   52      GH     -1.4550300000     3.2642700000     1.2128400000
   53      GH     -2.8721100000     3.2662300000     0.1463800000
   54      GH     -1.7387800000    -2.4439300000    -0.2187500000
 ----------------------------------------------------------------

   14    -727.5445548335      5.56E-09 Convergence criterion met
 Total energy in the final basis set = -727.54455483

                    Orbital Energies (a.u.)
 --------------------------------------------------------------

 Alpha MOs
 -- Occupied --
-19.178 -19.177 -19.121 -19.119 -10.313 -10.312 -10.233 -10.232
-10.211 -10.208 -10.207 -10.193 -10.191 -10.190 -10.174  -1.122
 -1.115  -1.033  -1.030  -0.886  -0.801  -0.795  -0.747  -0.731
 -0.704  -0.655  -0.627  -0.581  -0.575  -0.550  -0.521  -0.514
 -0.492  -0.490  -0.482  -0.478  -0.472  -0.447  -0.435  -0.432
 -0.429  -0.412  -0.406  -0.396  -0.384  -0.378  -0.371  -0.365
 -0.364  -0.322  -0.314  -0.296  -0.294  -0.269  -0.264

          Ground-State Mulliken Net Atomic Charges

     Atom                 Charge (a.u.)
  ----------------------------------------
      1 C                     0.637033
      2 C                     0.701761
      3 C                    -0.991890
      4 C                    -0.695867
      5 O                     0.086994
      6 O                    -0.089125
      7 O                     0.103097
      8 O                    -0.139211
      9 C                    -0.352291
     10 C                    -0.165204
     11 C                    -0.491563
     12 C                    -0.201238
     13 C                    -0.480123
     14 C                     0.459400
     15 H                     0.195208
     16 H                     0.169013
     17 H                     0.153901
     18 H                     0.198456
     19 H                     0.116864
     20 H                     0.172433
     21 H                     0.177784
     22 H                     0.189502
     23 C                    -0.471378
     24 H                     0.204817
     25 H                     0.215539
     26 H                     0.136583
     27 H                     0.184586
     28 GH                    0.026708
     29 GH                   -0.090097
     30 GH                   -0.039300
     31 GH                    0.066536
     32 GH                   -0.014936
     33 GH                    0.000221
     34 GH                    0.000485
     35 GH                   -0.007509
     36 GH                   -0.005458
     37 GH                   -0.001531
     38 GH                    0.005257
     39 GH                    0.008440
     40 GH                    0.001276
     41 GH                    0.024373
     42 GH                    0.000637
     43 GH                   -0.000781
     44 GH                   -0.000960
     45 GH                    0.002249
     46 GH                   -0.000439
     47 GH                    0.006586
     48 GH                    0.001144
     49 GH                   -0.000311
     50 GH                    0.001683
     51 GH                    0.000042
     52 GH                   -0.009054
     53 GH                    0.000533
     54 GH                   -0.000875
  ----------------------------------------
  Sum of atomic charges =     0.000000

                    Cartesian Multipole Moments
 -----------------------------------------------------------------
    Charge (ESU x 10^10)
                 0.0000
    Dipole Moment (Debye)
         X       0.0021      Y       0.4766      Z       0.1802
       Tot       0.5095
    Quadrupole Moments (Debye-Ang)
        XX     -68.7899     XY      -0.6937     YY     -90.1105
        XZ       0.0044     YZ      -7.0114     ZZ     -91.4656

 Total job time:  1588.73s(wall), 3162.40s(cpu)
        *  Thank you very much for using Q-Chem.  Have a nice day.  *
