 Q-Chem 5.0, Q-Chem, Inc., Pleasanton, CA (2017)
 Q-Chem 5.0.1 for Intel X86 EM64T Linux

User input:
--------------------------------------------------------------
$molecule
0  1
--
0  1
C        -0.54444000        -0.68370000        -0.06689000
C        -0.55709000        +0.71878000        +0.05493000
C        +0.74969000        -1.43776000        -0.09374000
C        +0.72843000        +1.48436000        +0.06598000
O        +1.53645000        -1.09176000        +0.94813000
O        +1.04702000        -2.28405000        -0.90088000
O        +1.53784000        +1.08301000        -0.93877000
O        +1.01035000        +2.37097000        +0.83478000
C        +2.83449000        +1.70121000        -0.99358000
C        +2.82316000        -1.73208000        +1.00475000
C        -1.74320000        -1.41616000        -0.12552000
C        -2.93952000        -0.70056000        -0.05285000
C        -2.95313000        +0.68255000        +0.06934000
C        -1.77161000        +1.42404000        +0.12810000
H        +2.73835000        +2.77989000        -1.12464000
H        +2.70778000        -2.81319000        +1.09555000
H        -3.90354000        +1.20325000        +0.11710000
H        +3.38998000        +1.50093000        -0.07544000
H        +3.33184000        +1.25269000        -1.85067000
H        +3.31095000        -1.32281000        +1.88650000
H        +3.39889000        -1.50934000        +0.10459000
H        -3.87892000        -1.24211000        -0.08988000
C        -1.83960000        +2.92746000        +0.24839000
C        -1.78103000        -2.92226000        -0.24590000
H        -1.39752000        -3.25223000        -1.21323000
H        -2.80572000        -3.28175000        -0.13627000
H        -1.16958000        -3.40777000        +0.51926000
H        -1.24214000        +3.42352000        -0.52065000
H        -1.45503000        +3.26427000        +1.21284000
H        -2.87211000        +3.26623000        +0.14638000
--
0  1
C        -0.51003000        -1.11966000        +4.91395000
C        -0.52268000        +0.28282000        +5.03577000
C        +0.78410000        -1.87372000        +4.88710000
C        +0.76284000        +1.04840000        +5.04682000
O        +1.57086000        -1.52772000        +5.92897000
O        +1.08143000        -2.72001000        +4.07996000
O        +1.57225000        +0.64705000        +4.04207000
O        +1.04476000        +1.93501000        +5.81562000
C        +2.86890000        +1.26525000        +3.98726000
C        +2.85757000        -2.16804000        +5.98559000
C        -1.70879000        -1.85212000        +4.85532000
C        -2.90511000        -1.13652000        +4.92799000
C        -2.91872000        +0.24659000        +5.05018000
C        -1.73720000        +0.98808000        +5.10894000
H        +2.77276000        +2.34393000        +3.85620000
H        +2.74219000        -3.24915000        +6.07639000
H        -3.86913000        +0.76729000        +5.09794000
H        +3.42439000        +1.06497000        +4.90540000
H        +3.36625000        +0.81673000        +3.13017000
H        +3.34536000        -1.75877000        +6.86734000
H        +3.43330000        -1.94530000        +5.08543000
H        -3.84451000        -1.67807000        +4.89096000
C        -1.80519000        +2.49150000        +5.22923000
C        -1.74662000        -3.35822000        +4.73494000
H        -1.36311000        -3.68819000        +3.76761000
H        -2.77131000        -3.71771000        +4.84457000
H        -1.13517000        -3.84373000        +5.50010000
H        -1.20773000        +2.98756000        +4.46019000
H        -1.42062000        +2.82831000        +6.19368000
H        -2.83770000        +2.83027000        +5.12722000
$end

$rem
JOBTYPE                   SP
METHOD                    B3LYP
DFT_D                     d3_op
BASIS                     6-311++G(d,p)
SYMMETRY                  False
THRESH                    12
SCF_CONVERGENCE           8
MAX_SUB_FILE_NUM          128
MEM_STATIC                400
MEM_TOTAL                 4000
$end
--------------------------------------------------------------

             Standard Nuclear Orientation (Angstroms)
    I     Atom           X                Y                Z
 ----------------------------------------------------------------
    1      C      -2.4563809749     0.4911713524     0.8818343505
    2      C      -2.5535961898     0.5564638437    -0.5211041293
    3      C      -2.3498748030    -0.8295095438     1.5808037837
    4      C      -2.6453146214    -0.7002810380    -1.3279353018
    5      O      -1.3644975609    -1.5841634283     1.0481410386
    6      O      -3.0123047285    -1.1717661382     2.5295576454
    7      O      -3.5655314925    -1.5418110449    -0.8075728409
    8      O      -2.0197820238    -0.9360535735    -2.3327884748
    9      C      -3.6993247993    -2.8161787835    -1.4591576907
   10      C      -1.1932600027    -2.8918164577     1.6222136857
   11      C      -2.4157152334     1.6615488539     1.6599882347
   12      C      -2.4697770454     2.8839531299     0.9881616665
   13      C      -2.5636362355     2.9495151191    -0.3956739373
   14      C      -2.6057883489     1.7966906542    -1.1821016965
   15      H      -3.9971935957    -2.6837246606    -2.5001669371
   16      H      -0.9374234717    -2.8137451951     2.6799511597
   17      H      -2.6090262403     3.9187466469    -0.8806674102
   18      H      -2.7543797319    -3.3616525040    -1.4245236330
   19      H      -4.4702592708    -3.3449023603    -0.9030624642
   20      H      -0.3795918226    -3.3483924662     1.0632803080
   21      H      -2.1098132772    -3.4755065926     1.5192472470
   22      H      -2.4341311026     3.8024405030     1.5645558855
   23      C      -2.7208518105     1.9208796378    -2.6823355172
   24      C      -2.3016453637     1.6429957799     3.1669399631
   25      H      -3.2012750449     1.2302691935     3.6273861072
   26      H      -2.1504083410     2.6559281073     3.5442155337
   27      H      -1.4629082236     1.0285582060     3.5046489587
   28      H      -3.5499758907     1.3276991383    -3.0762221145
   29      H      -1.8155455241     1.5663444018    -3.1785453092
   30      H      -2.8870134071     2.9628679250    -2.9614390575
   31      C       2.5318709566     0.5320667397     0.5417130337
   32      C       2.4346557418     0.5973592309    -0.8612254460
   33      C       2.6383771285    -0.7886141565     1.2406824670
   34      C       2.3429373102    -0.6593856508    -1.6680566185
   35      O       3.6237543706    -1.5432680410     0.7080197218
   36      O       1.9759472031    -1.1308707509     2.1894363286
   37      O       1.4227204390    -1.5009156576    -1.1476941577
   38      O       2.9684699078    -0.8951581863    -2.6729097915
   39      C       1.2889271322    -2.7752833962    -1.7992790075
   40      C       3.7949919289    -2.8509210704     1.2820923689
   41      C       2.5725366981     1.7024442412     1.3198669179
   42      C       2.5184748862     2.9248485172     0.6480403497
   43      C       2.4246156960     2.9904105064    -0.7357952541
   44      C       2.3824635826     1.8375860415    -1.5222230133
   45      H       0.9910583359    -2.6428292733    -2.8402882539
   46      H       4.0508284598    -2.7728498078     2.3398298429
   47      H       2.3792256912     3.9596420342    -1.2207887270
   48      H       2.2338721996    -3.3207571167    -1.7646449498
   49      H       0.5179926607    -3.3040069730    -1.2431837810
   50      H       4.6086601090    -3.3074970790     0.7231589913
   51      H       2.8784386543    -3.4346112053     1.1791259302
   52      H       2.5541208289     3.8433358902     1.2244345688
   53      C       2.2674001210     1.9617750251    -3.0224568340
   54      C       2.6866065678     1.6838911672     2.8268186463
   55      H       1.7869768867     1.2711645807     3.2872647904
   56      H       2.8378435905     2.6968234945     3.2040942170
   57      H       3.5253437079     1.0694535933     3.1645276419
   58      H       1.4382760408     1.3685945256    -3.4163434312
   59      H       3.1727064075     1.6072397891    -3.5186666260
   60      H       2.1012385245     3.0037633123    -3.3015603742
 ----------------------------------------------------------------

   14   -1533.7601487232      9.42E-09 Convergence criterion met
 Total energy in the final basis set = -1533.76014872

                    Orbital Energies (a.u.)
 --------------------------------------------------------------

 Alpha MOs
 -- Occupied --
-19.176 -19.175 -19.169 -19.168 -19.119 -19.118 -19.114 -19.113
-10.310 -10.310 -10.305 -10.305 -10.233 -10.232 -10.226 -10.225
-10.202 -10.202 -10.201 -10.201 -10.198 -10.198 -10.198 -10.197
-10.184 -10.184 -10.183 -10.183 -10.170 -10.169 -10.166 -10.166
 -1.119  -1.118  -1.110  -1.109  -1.030  -1.030  -1.025  -1.024
 -0.882  -0.882  -0.804  -0.804  -0.792  -0.792  -0.744  -0.743
 -0.731  -0.731  -0.722  -0.721  -0.672  -0.672  -0.646  -0.646
 -0.618  -0.617  -0.575  -0.574  -0.562  -0.561  -0.534  -0.533
 -0.515  -0.514  -0.511  -0.511  -0.489  -0.489  -0.485  -0.483
 -0.479  -0.475  -0.474  -0.472  -0.467  -0.466  -0.442  -0.438
 -0.433  -0.430  -0.428  -0.425  -0.419  -0.416  -0.413  -0.413
 -0.409  -0.408  -0.403  -0.402  -0.393  -0.392  -0.385  -0.384
 -0.378  -0.377  -0.370  -0.368  -0.359  -0.358  -0.356  -0.355
 -0.354  -0.353  -0.319  -0.318  -0.309  -0.307  -0.292  -0.292
 -0.288  -0.287  -0.264  -0.262  -0.251  -0.249

          Ground-State Mulliken Net Atomic Charges

     Atom                 Charge (a.u.)
  ----------------------------------------
      1 C                     0.291121
      2 C                     0.378275
      3 C                    -0.546406
      4 C                    -0.830805
      5 O                     0.135558
      6 O                    -0.147973
      7 O                     0.092973
      8 O                    -0.097273
      9 C                    -0.162206
     10 C                    -0.315719
     11 C                     0.481713
     12 C                    -0.370735
     13 C                    -0.351922
     14 C                     0.360952
     15 H                     0.165590
     16 H                     0.197609
     17 H                     0.162019
     18 H                     0.176819
     19 H                     0.171942
     20 H                     0.093452
     21 H                     0.190919
     22 H                     0.158774
     23 C                    -0.639181
     24 C                    -0.641253
     25 H                     0.214242
     26 H                     0.129315
     27 H                     0.201682
     28 H                     0.173959
     29 H                     0.189963
     30 H                     0.138885
     31 C                     0.351900
     32 C                     0.311785
     33 C                    -0.865886
     34 C                    -0.533922
     35 O                     0.108042
     36 O                    -0.085293
     37 O                     0.108570
     38 O                    -0.148074
     39 C                    -0.320111
     40 C                    -0.154663
     41 C                     0.363927
     42 C                    -0.345176
     43 C                    -0.363885
     44 C                     0.486706
     45 H                     0.200712
     46 H                     0.164486
     47 H                     0.158695
     48 H                     0.194883
     49 H                     0.092095
     50 H                     0.171146
     51 H                     0.175963
     52 H                     0.162796
     53 C                    -0.636428
     54 C                    -0.647699
     55 H                     0.190675
     56 H                     0.139728
     57 H                     0.174177
     58 H                     0.201198
     59 H                     0.213289
     60 H                     0.128079
  ----------------------------------------
  Sum of atomic charges =     0.000000

                    Cartesian Multipole Moments
 -----------------------------------------------------------------
    Charge (ESU x 10^10)
                 0.0000
    Dipole Moment (Debye)
         X       0.1954      Y      -0.0763      Z       0.1805
       Tot       0.2768
    Quadrupole Moments (Debye-Ang)
        XX    -194.9252     XY      -1.4383     YY    -154.7574
        XZ      17.7873     YZ       1.7404     ZZ    -196.7452

 Total job time:  2328.83s(wall), 4636.63s(cpu)
        *  Thank you very much for using Q-Chem.  Have a nice day.  *
