 Q-Chem 5.0, Q-Chem, Inc., Pleasanton, CA (2017)
 Q-Chem 5.0.1 for Intel X86 EM64T Linux

User input:
--------------------------------------------------------------
$molecule
0  1
C        -0.54444000        -0.68370000        -0.06689000
C        -0.55709000        +0.71878000        +0.05493000
C        +0.74969000        -1.43776000        -0.09374000
C        +0.72843000        +1.48436000        +0.06598000
O        +1.53645000        -1.09176000        +0.94813000
O        +1.04702000        -2.28405000        -0.90088000
O        +1.53784000        +1.08301000        -0.93877000
O        +1.01035000        +2.37097000        +0.83478000
C        +2.83449000        +1.70121000        -0.99358000
C        +2.82316000        -1.73208000        +1.00475000
C        -1.74320000        -1.41616000        -0.12552000
C        -2.93952000        -0.70056000        -0.05285000
C        -2.95313000        +0.68255000        +0.06934000
C        -1.77161000        +1.42404000        +0.12810000
H        +2.73835000        +2.77989000        -1.12464000
H        +2.70778000        -2.81319000        +1.09555000
H        -3.90354000        +1.20325000        +0.11710000
H        +3.38998000        +1.50093000        -0.07544000
H        +3.33184000        +1.25269000        -1.85067000
H        +3.31095000        -1.32281000        +1.88650000
H        +3.39889000        -1.50934000        +0.10459000
H        -3.87892000        -1.24211000        -0.08988000
C        -1.83960000        +2.92746000        +0.24839000
C        -1.78103000        -2.92226000        -0.24590000
H        -1.39752000        -3.25223000        -1.21323000
H        -2.80572000        -3.28175000        -0.13627000
H        -1.16958000        -3.40777000        +0.51926000
H        -1.24214000        +3.42352000        -0.52065000
H        -1.45503000        +3.26427000        +1.21284000
H        -2.87211000        +3.26623000        +0.14638000
@C        -0.51003000        -1.11966000        +4.91395000
@C        -0.52268000        +0.28282000        +5.03577000
@C        +0.78410000        -1.87372000        +4.88710000
@C        +0.76284000        +1.04840000        +5.04682000
@O        +1.57086000        -1.52772000        +5.92897000
@O        +1.08143000        -2.72001000        +4.07996000
@O        +1.57225000        +0.64705000        +4.04207000
@O        +1.04476000        +1.93501000        +5.81562000
@C        +2.86890000        +1.26525000        +3.98726000
@C        +2.85757000        -2.16804000        +5.98559000
@C        -1.70879000        -1.85212000        +4.85532000
@C        -2.90511000        -1.13652000        +4.92799000
@C        -2.91872000        +0.24659000        +5.05018000
@C        -1.73720000        +0.98808000        +5.10894000
@H        +2.77276000        +2.34393000        +3.85620000
@H        +2.74219000        -3.24915000        +6.07639000
@H        -3.86913000        +0.76729000        +5.09794000
@H        +3.42439000        +1.06497000        +4.90540000
@H        +3.36625000        +0.81673000        +3.13017000
@H        +3.34536000        -1.75877000        +6.86734000
@H        +3.43330000        -1.94530000        +5.08543000
@H        -3.84451000        -1.67807000        +4.89096000
@C        -1.80519000        +2.49150000        +5.22923000
@C        -1.74662000        -3.35822000        +4.73494000
@H        -1.36311000        -3.68819000        +3.76761000
@H        -2.77131000        -3.71771000        +4.84457000
@H        -1.13517000        -3.84373000        +5.50010000
@H        -1.20773000        +2.98756000        +4.46019000
@H        -1.42062000        +2.82831000        +6.19368000
@H        -2.83770000        +2.83027000        +5.12722000
$end

$rem
JOBTYPE                   SP
METHOD                    B3LYP
DFT_D                     d3_op
BASIS                     6-311++G(d,p)
SYMMETRY                  False
THRESH                    12
SCF_CONVERGENCE           8
MAX_SUB_FILE_NUM          128
MEM_STATIC                400
MEM_TOTAL                 4000
$end
--------------------------------------------------------------

             Standard Nuclear Orientation (Angstroms)
    I     Atom           X                Y                Z
 ----------------------------------------------------------------
    1      C      -0.5444400000    -0.6837000000    -0.0668900000
    2      C      -0.5570900000     0.7187800000     0.0549300000
    3      C       0.7496900000    -1.4377600000    -0.0937400000
    4      C       0.7284300000     1.4843600000     0.0659800000
    5      O       1.5364500000    -1.0917600000     0.9481300000
    6      O       1.0470200000    -2.2840500000    -0.9008800000
    7      O       1.5378400000     1.0830100000    -0.9387700000
    8      O       1.0103500000     2.3709700000     0.8347800000
    9      C       2.8344900000     1.7012100000    -0.9935800000
   10      C       2.8231600000    -1.7320800000     1.0047500000
   11      C      -1.7432000000    -1.4161600000    -0.1255200000
   12      C      -2.9395200000    -0.7005600000    -0.0528500000
   13      C      -2.9531300000     0.6825500000     0.0693400000
   14      C      -1.7716100000     1.4240400000     0.1281000000
   15      H       2.7383500000     2.7798900000    -1.1246400000
   16      H       2.7077800000    -2.8131900000     1.0955500000
   17      H      -3.9035400000     1.2032500000     0.1171000000
   18      H       3.3899800000     1.5009300000    -0.0754400000
   19      H       3.3318400000     1.2526900000    -1.8506700000
   20      H       3.3109500000    -1.3228100000     1.8865000000
   21      H       3.3988900000    -1.5093400000     0.1045900000
   22      H      -3.8789200000    -1.2421100000    -0.0898800000
   23      C      -1.8396000000     2.9274600000     0.2483900000
   24      C      -1.7810300000    -2.9222600000    -0.2459000000
   25      H      -1.3975200000    -3.2522300000    -1.2132300000
   26      H      -2.8057200000    -3.2817500000    -0.1362700000
   27      H      -1.1695800000    -3.4077700000     0.5192600000
   28      H      -1.2421400000     3.4235200000    -0.5206500000
   29      H      -1.4550300000     3.2642700000     1.2128400000
   30      H      -2.8721100000     3.2662300000     0.1463800000
   31      GH     -0.5100300000    -1.1196600000     4.9139500000
   32      GH     -0.5226800000     0.2828200000     5.0357700000
   33      GH      0.7841000000    -1.8737200000     4.8871000000
   34      GH      0.7628400000     1.0484000000     5.0468200000
   35      GH      1.5708600000    -1.5277200000     5.9289700000
   36      GH      1.0814300000    -2.7200100000     4.0799600000
   37      GH      1.5722500000     0.6470500000     4.0420700000
   38      GH      1.0447600000     1.9350100000     5.8156200000
   39      GH      2.8689000000     1.2652500000     3.9872600000
   40      GH      2.8575700000    -2.1680400000     5.9855900000
   41      GH     -1.7087900000    -1.8521200000     4.8553200000
   42      GH     -2.9051100000    -1.1365200000     4.9279900000
   43      GH     -2.9187200000     0.2465900000     5.0501800000
   44      GH     -1.7372000000     0.9880800000     5.1089400000
   45      GH      2.7727600000     2.3439300000     3.8562000000
   46      GH      2.7421900000    -3.2491500000     6.0763900000
   47      GH     -3.8691300000     0.7672900000     5.0979400000
   48      GH      3.4243900000     1.0649700000     4.9054000000
   49      GH      3.3662500000     0.8167300000     3.1301700000
   50      GH      3.3453600000    -1.7587700000     6.8673400000
   51      GH      3.4333000000    -1.9453000000     5.0854300000
   52      GH     -3.8445100000    -1.6780700000     4.8909600000
   53      GH     -1.8051900000     2.4915000000     5.2292300000
   54      GH     -1.7466200000    -3.3582200000     4.7349400000
   55      GH     -1.3631100000    -3.6881900000     3.7676100000
   56      GH     -2.7713100000    -3.7177100000     4.8445700000
   57      GH     -1.1351700000    -3.8437300000     5.5001000000
   58      GH     -1.2077300000     2.9875600000     4.4601900000
   59      GH     -1.4206200000     2.8283100000     6.1936800000
   60      GH     -2.8377000000     2.8302700000     5.1272200000
 ----------------------------------------------------------------

   14    -766.8772408774      6.08E-09 Convergence criterion met
 Total energy in the final basis set = -766.87724088

                    Orbital Energies (a.u.)
 --------------------------------------------------------------

 Alpha MOs
 -- Occupied --
-19.176 -19.176 -19.119 -19.119 -10.311 -10.311 -10.232 -10.232
-10.205 -10.205 -10.201 -10.201 -10.187 -10.186 -10.171 -10.170
 -1.121  -1.114  -1.031  -1.030  -0.885  -0.807  -0.795  -0.747
 -0.734  -0.725  -0.675  -0.649  -0.620  -0.577  -0.565  -0.537
 -0.517  -0.515  -0.491  -0.489  -0.480  -0.477  -0.469  -0.442
 -0.434  -0.429  -0.420  -0.416  -0.411  -0.406  -0.396  -0.387
 -0.380  -0.373  -0.362  -0.359  -0.357  -0.321  -0.313  -0.293
 -0.292  -0.266  -0.253

          Ground-State Mulliken Net Atomic Charges

     Atom                 Charge (a.u.)
  ----------------------------------------
      1 C                     0.197439
      2 C                     0.459748
      3 C                    -0.490034
      4 C                    -0.869347
      5 O                     0.133784
      6 O                    -0.140891
      7 O                     0.088980
      8 O                    -0.080991
      9 C                    -0.162772
     10 C                    -0.339248
     11 C                     0.486527
     12 C                    -0.343219
     13 C                    -0.376814
     14 C                     0.337543
     15 H                     0.165334
     16 H                     0.193094
     17 H                     0.165076
     18 H                     0.180083
     19 H                     0.171341
     20 H                     0.101943
     21 H                     0.194890
     22 H                     0.163422
     23 C                    -0.646396
     24 C                    -0.631195
     25 H                     0.215222
     26 H                     0.131707
     27 H                     0.202262
     28 H                     0.174103
     29 H                     0.204026
     30 H                     0.139505
     31 GH                   -0.109576
     32 GH                    0.097023
     33 GH                    0.053029
     34 GH                   -0.076255
     35 GH                    0.000318
     36 GH                   -0.007613
     37 GH                   -0.019548
     38 GH                    0.000426
     39 GH                    0.009848
     40 GH                   -0.004730
     41 GH                    0.026952
     42 GH                    0.029320
     43 GH                   -0.024392
     44 GH                   -0.004975
     45 GH                   -0.001467
     46 GH                    0.000420
     47 GH                   -0.001596
     48 GH                    0.001717
     49 GH                    0.011351
     50 GH                   -0.000421
     51 GH                    0.003656
     52 GH                   -0.000019
     53 GH                   -0.002515
     54 GH                    0.005519
     55 GH                   -0.008740
     56 GH                    0.000086
     57 GH                    0.000122
     58 GH                   -0.004398
     59 GH                   -0.000226
     60 GH                    0.001561
  ----------------------------------------
  Sum of atomic charges =     0.000000

                    Cartesian Multipole Moments
 -----------------------------------------------------------------
    Charge (ESU x 10^10)
                 0.0000
    Dipole Moment (Debye)
         X       0.0674      Y      -0.1073      Z       0.0829
       Tot       0.1514
    Quadrupole Moments (Debye-Ang)
        XX     -76.1862     XY      -0.0568     YY     -95.4412
        XZ       0.0671     YZ      -8.9385     ZZ     -99.4908

 Total job time:  2296.13s(wall), 4568.30s(cpu)
        *  Thank you very much for using Q-Chem.  Have a nice day.  *
