 Q-Chem 5.0, Q-Chem, Inc., Pleasanton, CA (2017)
 Q-Chem 5.0.1 for Intel X86 EM64T Linux

User input:
--------------------------------------------------------------
$molecule
0  1
--
0  1
C        +0.22270000        +1.04488000        +0.58595000
C        +0.62626000        -0.41353000        +0.99871000
C        -1.18200000        +1.23223000        +0.04377000
C        -0.37457000        -1.51643000        +0.72333000
O        -2.09172000        +0.78832000        +0.93966000
O        -1.47336000        +1.75939000        -0.99882000
O        -0.91364000        -1.42792000        -0.50620000
O        -0.62208000        -2.40877000        +1.49911000
C        -1.86134000        -2.44741000        -0.86560000
C        -3.47068000        +0.87492000        +0.53920000
C        +1.33008000        +1.39974000        -0.43491000
C        +2.63070000        +1.71700000        +0.32855000
C        +3.04336000        +0.29351000        +0.80300000
C        +1.94423000        -0.59299000        +0.15262000
O        +1.62840000        +0.13663000        -1.04376000
H        +0.27811000        +1.68786000        +1.46900000
H        +0.83923000        -0.48042000        +2.06408000
H        -2.68749000        -2.46677000        -0.15296000
H        -3.76076000        +1.91522000        +0.38406000
H        +3.37234000        +2.13782000        -0.35195000
H        +2.48236000        +2.42488000        +1.14651000
H        +4.02182000        +0.00994000        +0.41161000
H        +3.07359000        +0.18738000        +1.88928000
H        -2.21148000        -2.17765000        -1.85937000
H        -1.38062000        -3.42697000        -0.88096000
H        -4.03855000        +0.43623000        +1.35671000
H        -3.63120000        +0.31700000        -0.38495000
H        +1.03270000        +2.19943000        -1.08064000
H        +2.24339000        -1.61496000        +0.04786000
--
0  1
C        +0.25400000        +2.81782000        +6.31794000
C        +0.65756000        +1.35941000        +6.73070000
C        -1.15070000        +3.00517000        +5.77576000
C        -0.34327000        +0.25651000        +6.45532000
O        -2.06042000        +2.56126000        +6.67165000
O        -1.44206000        +3.53233000        +4.73317000
O        -0.88234000        +0.34502000        +5.22579000
O        -0.59078000        -0.63583000        +7.23110000
C        -1.83004000        -0.67447000        +4.86639000
C        -3.43938000        +2.64786000        +6.27119000
C        +1.36138000        +3.17268000        +5.29708000
C        +2.66200000        +3.48994000        +6.06054000
C        +3.07466000        +2.06645000        +6.53499000
C        +1.97553000        +1.17995000        +5.88461000
O        +1.65970000        +1.90957000        +4.68823000
H        +0.30941000        +3.46080000        +7.20099000
H        +0.87053000        +1.29252000        +7.79607000
H        -2.65619000        -0.69383000        +5.57903000
H        -3.72946000        +3.68816000        +6.11605000
H        +3.40364000        +3.91076000        +5.38004000
H        +2.51366000        +4.19782000        +6.87850000
H        +4.05312000        +1.78288000        +6.14360000
H        +3.10489000        +1.96032000        +7.62127000
H        -2.18018000        -0.40471000        +3.87262000
H        -1.34932000        -1.65403000        +4.85103000
H        -4.00725000        +2.20917000        +7.08870000
H        -3.59990000        +2.08994000        +5.34704000
H        +1.06400000        +3.97237000        +4.65135000
H        +2.27469000        +0.15798000        +5.77985000
$end

$rem
JOBTYPE                   SP
METHOD                    B3LYP
DFT_D                     d3_op
BASIS                     6-311++G(d,p)
SYMMETRY                  False
THRESH                    12
SCF_CONVERGENCE           8
MAX_SUB_FILE_NUM          128
MEM_STATIC                400
MEM_TOTAL                 4000
$end
--------------------------------------------------------------

             Standard Nuclear Orientation (Angstroms)
    I     Atom           X                Y                Z
 ----------------------------------------------------------------
    1      C      -2.2511535655     0.5976776917     0.8570337678
    2      C      -2.3342121262     0.6778336242    -0.7072128628
    3      C      -2.7623070578    -0.6786276620     1.4989122736
    4      C      -3.0092599782    -0.4707256173    -1.4276330940
    5      O      -2.1099424536    -1.7494100222     0.9938271135
    6      O      -3.5794345962    -0.7489716763     2.3804657485
    7      O      -4.1608566029    -0.8423324698    -0.8394935977
    8      O      -2.5903324152    -0.9635050374    -2.4479441369
    9      C      -4.8845213502    -1.9142416683    -1.4671746581
   10      C      -2.5204247825    -3.0350277641     1.4919131828
   11      C      -3.0419958441     1.8592459656     1.2782049970
   12      C      -2.1579362157     3.1014933116     1.0537109695
   13      C      -2.1708139534     3.1899849503    -0.4999036069
   14      C      -3.1304743788     2.0273810733    -0.8798605050
   15      O      -4.0254140984     1.9876000021     0.2430461708
   16      H      -1.2019074073     0.6701452725     1.1572033867
   17      H      -1.3446521861     0.7534531012    -1.1543107822
   18      H      -4.2581813883    -2.8049097197    -1.5390292057
   19      H      -2.3302354869    -3.1100691405     2.5636574339
   20      H      -2.6230663370     3.9796216571     1.5039822111
   21      H      -1.1574126331     2.9942240160     1.4775072299
   22      H      -2.5897097449     4.1376343606    -0.8426410568
   23      H      -1.1830819175     3.0775954602    -0.9514960072
   24      H      -5.7448366346    -2.0946885092    -0.8266718563
   25      H      -5.2060402952    -1.6226717039    -2.4684128743
   26      H      -1.9244796509    -3.7621801972     0.9447874274
   27      H      -3.5845604897    -3.1899119304     1.3055782400
   28      H      -3.3945001416     1.7882586782     2.2859786416
   29      H      -3.5586141641     2.1439478327    -1.8535147346
   30      C       3.7384554752     0.3071959553     0.6565114657
   31      C       3.6553969145     0.3873518877    -0.9077351649
   32      C       3.2273019829    -0.9691093985     1.2983899715
   33      C       2.9803490625    -0.7612073537    -1.6281553962
   34      O       3.8796665871    -2.0398917586     0.7933048113
   35      O       2.4101744446    -1.0394534128     2.1799434464
   36      O       1.8287524379    -1.1328142062    -1.0400158998
   37      O       3.3992766255    -1.2539867739    -2.6484664391
   38      C       1.1050876905    -2.2047234048    -1.6676969603
   39      C       3.4691842582    -3.3255095005     1.2913908807
   40      C       2.9476131966     1.5687642291     1.0776826949
   41      C       3.8316728250     2.8110115752     0.8531886673
   42      C       3.8187950874     2.8995032138    -0.7004259091
   43      C       2.8591346620     1.7368993368    -1.0803828071
   44      O       1.9641949424     1.6971182656     0.0425238686
   45      H       4.7877016335     0.3796635361     0.9566810846
   46      H       4.6449568546     0.4629713648    -1.3548330843
   47      H       1.7314276525    -3.0953914562    -1.7395515079
   48      H       3.6593735539    -3.4005508769     2.3631351317
   49      H       3.3665427037     3.6891399207     1.3034599090
   50      H       4.8321964077     2.7037422796     1.2769849278
   51      H       3.3998992958     3.8471526241    -1.0431633590
   52      H       4.8065271233     2.7871137238    -1.1520183093
   53      H       0.2447724061    -2.3851702457    -1.0271941584
   54      H       0.7835687456    -1.9131534403    -2.6689351764
   55      H       4.0651293898    -4.0526619336     0.7442651252
   56      H       2.4050485510    -3.4803936668     1.1050559378
   57      H       2.5951088991     1.4977769417     2.0854563394
   58      H       2.4309948766     1.8534660962    -2.0540370367
 ----------------------------------------------------------------

   15   -1531.7244727161      5.37E-09 Convergence criterion met
 Total energy in the final basis set = -1531.72447272

                    Orbital Energies (a.u.)
 --------------------------------------------------------------

 Alpha MOs
 -- Occupied --
-19.179 -19.173 -19.171 -19.171 -19.144 -19.129 -19.123 -19.116
-19.114 -19.114 -10.313 -10.307 -10.304 -10.303 -10.247 -10.237
-10.236 -10.234 -10.229 -10.228 -10.224 -10.224 -10.211 -10.209
-10.199 -10.197 -10.187 -10.185 -10.174 -10.171  -1.122  -1.116
 -1.114  -1.109  -1.072  -1.058  -1.035  -1.027  -1.026  -1.025
 -0.837  -0.826  -0.789  -0.782  -0.778  -0.771  -0.742  -0.735
 -0.728  -0.725  -0.661  -0.652  -0.614  -0.604  -0.601  -0.588
 -0.582  -0.575  -0.569  -0.563  -0.554  -0.546  -0.523  -0.513
 -0.509  -0.501  -0.499  -0.491  -0.490  -0.486  -0.483  -0.480
 -0.476  -0.474  -0.472  -0.468  -0.465  -0.455  -0.443  -0.433
 -0.429  -0.426  -0.423  -0.420  -0.419  -0.413  -0.400  -0.396
 -0.389  -0.377  -0.377  -0.375  -0.373  -0.371  -0.366  -0.364
 -0.361  -0.360  -0.356  -0.348  -0.341  -0.340  -0.330  -0.327
 -0.322  -0.316  -0.312  -0.310  -0.293  -0.286  -0.285  -0.280
 -0.278  -0.270

          Ground-State Mulliken Net Atomic Charges

     Atom                 Charge (a.u.)
  ----------------------------------------
      1 C                    -0.113660
      2 C                     0.744588
      3 C                    -0.620354
      4 C                    -0.729323
      5 O                     0.042416
      6 O                    -0.192775
      7 O                     0.002494
      8 O                    -0.141219
      9 C                    -0.200027
     10 C                    -0.229099
     11 C                    -0.336118
     12 C                    -0.277329
     13 C                    -0.440689
     14 C                    -0.135356
     15 O                    -0.092521
     16 H                     0.211598
     17 H                     0.340712
     18 H                     0.186060
     19 H                     0.183957
     20 H                     0.197887
     21 H                     0.116349
     22 H                     0.190586
     23 H                     0.089005
     24 H                     0.172296
     25 H                     0.175339
     26 H                     0.134717
     27 H                     0.183336
     28 H                     0.284818
     29 H                     0.264902
     30 C                    -0.015126
     31 C                     0.279109
     32 C                    -0.441039
     33 C                    -0.560175
     34 O                     0.006978
     35 O                    -0.138537
     36 O                    -0.018368
     37 O                    -0.154646
     38 C                    -0.291436
     39 C                    -0.171170
     40 C                    -0.210039
     41 C                    -0.602082
     42 C                    -0.442230
     43 C                    -0.088578
     44 O                     0.095598
     45 H                     0.246685
     46 H                     0.285419
     47 H                     0.204636
     48 H                     0.170504
     49 H                     0.184976
     50 H                     0.133629
     51 H                     0.180902
     52 H                     0.130625
     53 H                     0.130349
     54 H                     0.197932
     55 H                     0.166800
     56 H                     0.182542
     57 H                     0.268472
     58 H                     0.255678
  ----------------------------------------
  Sum of atomic charges =     0.000000

                    Cartesian Multipole Moments
 -----------------------------------------------------------------
    Charge (ESU x 10^10)
                 0.0000
    Dipole Moment (Debye)
         X       3.1368      Y      -0.0082      Z       0.5958
       Tot       3.1929
    Quadrupole Moments (Debye-Ang)
        XX    -177.6963     XY      14.0169     YY    -153.0174
        XZ      17.6462     YZ      -6.5765     ZZ    -193.2183

 Total job time:  6777.83s(wall), 6761.75s(cpu)
        *  Thank you very much for using Q-Chem.  Have a nice day.  *
