 Q-Chem 5.0, Q-Chem, Inc., Pleasanton, CA (2017)
 Q-Chem 5.0.1 for Intel X86 EM64T Linux

User input:
--------------------------------------------------------------
$molecule
0  1
--
0  1
C        -0.54444000        -0.68370000        -0.06689000
C        -0.55709000        +0.71878000        +0.05493000
C        +0.74969000        -1.43776000        -0.09374000
C        +0.72843000        +1.48436000        +0.06598000
O        +1.53645000        -1.09176000        +0.94813000
O        +1.04702000        -2.28405000        -0.90088000
O        +1.53784000        +1.08301000        -0.93877000
O        +1.01035000        +2.37097000        +0.83478000
C        +2.83449000        +1.70121000        -0.99358000
C        +2.82316000        -1.73208000        +1.00475000
C        -1.74320000        -1.41616000        -0.12552000
C        -2.93952000        -0.70056000        -0.05285000
C        -2.95313000        +0.68255000        +0.06934000
C        -1.77161000        +1.42404000        +0.12810000
H        +2.73835000        +2.77989000        -1.12464000
H        +2.70778000        -2.81319000        +1.09555000
H        -3.90354000        +1.20325000        +0.11710000
H        +3.38998000        +1.50093000        -0.07544000
H        +3.33184000        +1.25269000        -1.85067000
H        +3.31095000        -1.32281000        +1.88650000
H        +3.39889000        -1.50934000        +0.10459000
H        -3.87892000        -1.24211000        -0.08988000
H        -1.78886000        +2.45164000        +0.22176000
H        -1.73878000        -2.44393000        -0.21875000
--
0  1
C        -0.50315000        -1.20685000        +5.91012000
C        -0.51580000        +0.19563000        +6.03194000
C        +0.79098000        -1.96091000        +5.88327000
C        +0.76972000        +0.96121000        +6.04299000
O        +1.57774000        -1.61491000        +6.92514000
O        +1.08831000        -2.80720000        +5.07613000
O        +1.57913000        +0.55986000        +5.03824000
O        +1.05164000        +1.84782000        +6.81179000
C        +2.87578000        +1.17806000        +4.98343000
C        +2.86445000        -2.25523000        +6.98176000
C        -1.70191000        -1.93931000        +5.85149000
C        -2.89823000        -1.22371000        +5.92416000
C        -2.91184000        +0.15940000        +6.04635000
C        -1.73032000        +0.90089000        +6.10511000
H        +2.77964000        +2.25674000        +4.85237000
H        +2.74907000        -3.33634000        +7.07256000
H        -3.86225000        +0.68010000        +6.09411000
H        +3.43127000        +0.97778000        +5.90157000
H        +3.37313000        +0.72954000        +4.12634000
H        +3.35224000        -1.84596000        +7.86351000
H        +3.44018000        -2.03249000        +6.08160000
H        -3.83763000        -1.76526000        +5.88713000
H        -1.74757000        +1.92849000        +6.19877000
H        -1.69749000        -2.96708000        +5.75826000
$end

$rem
JOBTYPE                   SP
METHOD                    B3LYP
DFT_D                     d3_op
BASIS                     6-311++G(d,p)
SYMMETRY                  False
THRESH                    12
SCF_CONVERGENCE           8
MAX_SUB_FILE_NUM          128
MEM_STATIC                400
MEM_TOTAL                 4000
$end
--------------------------------------------------------------

             Standard Nuclear Orientation (Angstroms)
    I     Atom           X                Y                Z
 ----------------------------------------------------------------
    1      C      -2.9826411223     0.8096197413     0.8078702240
    2      C      -3.0349202568     0.8311933414    -0.5988108902
    3      C      -2.9039405260    -0.4888244540     1.5508027585
    4      C      -3.1061909078    -0.4499371063    -1.3685002949
    5      O      -1.9052881119    -1.2629458883     1.0736971566
    6      O      -3.5976311933    -0.7990483724     2.4881614151
    7      O      -4.0460014133    -1.2717996532    -0.8517342929
    8      O      -2.4500122683    -0.7190968431    -2.3450207748
    9      C      -4.1643357817    -2.5655416835    -1.4671245227
   10      C      -1.7578632671    -2.5524916059     1.6935164113
   11      C      -2.9618462012     2.0036890035     1.5499799425
   12      C      -2.9894035983     3.2045895850     0.8389073622
   13      C      -3.0389347728     3.2270209257    -0.5485912497
   14      C      -3.0608787785     2.0502412433    -1.2995624260
   15      H      -4.4283935876    -2.4648506956    -2.5207397113
   16      H      -1.5354675254    -2.4421033593     2.7559243299
   17      H      -3.0648249565     4.1807060207    -1.0648306455
   18      H      -3.2232596880    -3.1126677368    -1.3853250982
   19      H      -4.9547686602    -3.0741081045    -0.9196699210
   20      H      -0.9287494564    -3.0289602619     1.1753735853
   21      H      -2.6731119871    -3.1362016290     1.5796368451
   22      H      -2.9682635406     4.1405827045     1.3871682140
   23      H      -3.0948913068     2.0740742211    -2.3307300435
   24      H      -2.9275080033     1.9926886405     2.5813491404
   25      C       3.0133673852     0.8268082180     0.5896367217
   26      C       2.9610882506     0.8483818181    -0.8170443925
   27      C       3.0920679815    -0.4716359773     1.3325692562
   28      C       2.8898175997    -0.4327486296    -1.5867337972
   29      O       4.0907203956    -1.2457574116     0.8554636544
   30      O       2.3983773141    -0.7818598957     2.2699279128
   31      O       1.9500070942    -1.2546111765    -1.0699677952
   32      O       3.5459962392    -0.7019083664    -2.5632542771
   33      C       1.8316727257    -2.5483532068    -1.6853580250
   34      C       4.2381452404    -2.5353031291     1.4752829090
   35      C       3.0341623062     2.0208774803     1.3317464402
   36      C       3.0066049092     3.2217780618     0.6206738599
   37      C       2.9570737347     3.2442094025    -0.7668247520
   38      C       2.9351297290     2.0674297200    -1.5177959283
   39      H       1.5676149198    -2.4476622189    -2.7389732136
   40      H       4.4605409821    -2.4249148826     2.5376908277
   41      H       2.9311835510     4.1978944974    -1.2830641478
   42      H       2.7727488194    -3.0954792600    -1.6035586004
   43      H       1.0412398472    -3.0569196278    -1.1379034233
   44      H       5.0672590511    -3.0117717851     0.9571400830
   45      H       3.3228965204    -3.1190131523     1.3614033428
   46      H       3.0277449669     4.1577711813     1.1689347117
   47      H       2.9011172007     2.0912626979    -2.5489635457
   48      H       3.0685005041     2.0098771173     2.3631156381
 ----------------------------------------------------------------

   14   -1376.4230543319      9.74E-09 Convergence criterion met
 Total energy in the final basis set = -1376.42305433

                    Orbital Energies (a.u.)
 --------------------------------------------------------------

 Alpha MOs
 -- Occupied --
-19.178 -19.177 -19.174 -19.173 -19.121 -19.121 -19.118 -19.117
-10.313 -10.313 -10.310 -10.310 -10.233 -10.233 -10.230 -10.229
-10.212 -10.212 -10.211 -10.211 -10.196 -10.196 -10.195 -10.195
-10.195 -10.195 -10.195 -10.194  -1.121  -1.121  -1.114  -1.113
 -1.032  -1.031  -1.029  -1.028  -0.885  -0.884  -0.797  -0.797
 -0.785  -0.784  -0.742  -0.741  -0.731  -0.730  -0.654  -0.654
 -0.643  -0.643  -0.594  -0.593  -0.577  -0.576  -0.553  -0.552
 -0.522  -0.521  -0.513  -0.513  -0.491  -0.491  -0.489  -0.488
 -0.483  -0.482  -0.477  -0.476  -0.469  -0.469  -0.466  -0.465
 -0.439  -0.438  -0.430  -0.428  -0.414  -0.413  -0.406  -0.405
 -0.387  -0.386  -0.385  -0.384  -0.381  -0.381  -0.367  -0.366
 -0.363  -0.363  -0.321  -0.321  -0.312  -0.312  -0.299  -0.299
 -0.294  -0.294  -0.273  -0.273  -0.270  -0.269

          Ground-State Mulliken Net Atomic Charges

     Atom                 Charge (a.u.)
  ----------------------------------------
      1 C                     0.858428
      2 C                     0.955923
      3 C                    -0.706789
      4 C                    -0.851183
      5 O                     0.083718
      6 O                    -0.186012
      7 O                     0.046715
      8 O                    -0.136154
      9 C                    -0.200766
     10 C                    -0.304983
     11 C                    -0.436221
     12 C                    -0.203385
     13 C                    -0.196157
     14 C                    -0.469078
     15 H                     0.171669
     16 H                     0.190854
     17 H                     0.178794
     18 H                     0.173125
     19 H                     0.171544
     20 H                     0.123550
     21 H                     0.183593
     22 H                     0.178658
     23 H                     0.184165
     24 H                     0.190733
     25 C                     0.934058
     26 C                     0.902398
     27 C                    -0.906588
     28 C                    -0.657211
     29 O                     0.055585
     30 O                    -0.126208
     31 O                     0.070429
     32 O                    -0.190301
     33 C                    -0.307596
     34 C                    -0.203430
     35 C                    -0.459950
     36 C                    -0.194082
     37 C                    -0.209255
     38 C                    -0.454678
     39 H                     0.193103
     40 H                     0.171288
     41 H                     0.178276
     42 H                     0.186383
     43 H                     0.120092
     44 H                     0.169544
     45 H                     0.172840
     46 H                     0.179344
     47 H                     0.192048
     48 H                     0.183170
  ----------------------------------------
  Sum of atomic charges =    -0.000000

                    Cartesian Multipole Moments
 -----------------------------------------------------------------
    Charge (ESU x 10^10)
                -0.0000
    Dipole Moment (Debye)
         X       0.1817      Y       0.1398      Z       0.2080
       Tot       0.3095
    Quadrupole Moments (Debye-Ang)
        XX    -170.5165     XY      -0.7311     YY    -123.9224
        XZ      18.9460     YZ       0.4963     ZZ    -173.3717

 Total job time:  1111.19s(wall), 2207.30s(cpu)
        *  Thank you very much for using Q-Chem.  Have a nice day.  *
