 Q-Chem 5.0, Q-Chem, Inc., Pleasanton, CA (2017)
 Q-Chem 5.0.1 for Intel X86 EM64T Linux

User input:
--------------------------------------------------------------
$molecule
0  1
C        +0.25400000        +2.81782000        +6.31794000
C        +0.65756000        +1.35941000        +6.73070000
C        -1.15070000        +3.00517000        +5.77576000
C        -0.34327000        +0.25651000        +6.45532000
O        -2.06042000        +2.56126000        +6.67165000
O        -1.44206000        +3.53233000        +4.73317000
O        -0.88234000        +0.34502000        +5.22579000
O        -0.59078000        -0.63583000        +7.23110000
C        -1.83004000        -0.67447000        +4.86639000
C        -3.43938000        +2.64786000        +6.27119000
C        +1.36138000        +3.17268000        +5.29708000
C        +2.66200000        +3.48994000        +6.06054000
C        +3.07466000        +2.06645000        +6.53499000
C        +1.97553000        +1.17995000        +5.88461000
O        +1.65970000        +1.90957000        +4.68823000
H        +0.30941000        +3.46080000        +7.20099000
H        +0.87053000        +1.29252000        +7.79607000
H        -2.65619000        -0.69383000        +5.57903000
H        -3.72946000        +3.68816000        +6.11605000
H        +3.40364000        +3.91076000        +5.38004000
H        +2.51366000        +4.19782000        +6.87850000
H        +4.05312000        +1.78288000        +6.14360000
H        +3.10489000        +1.96032000        +7.62127000
H        -2.18018000        -0.40471000        +3.87262000
H        -1.34932000        -1.65403000        +4.85103000
H        -4.00725000        +2.20917000        +7.08870000
H        -3.59990000        +2.08994000        +5.34704000
C        +2.38580000        -0.23973000        +5.56387000
H        +3.29441000        -0.23384000        +4.95833000
H        +2.58120000        -0.79765000        +6.48278000
H        +1.60465000        -0.75602000        +5.00327000
H        +1.06400000        +3.97237000        +4.65135000
@C        +0.22270000        +1.04488000        +0.58595000
@C        +0.62626000        -0.41353000        +0.99871000
@C        -1.18200000        +1.23223000        +0.04377000
@C        -0.37457000        -1.51643000        +0.72333000
@O        -2.09172000        +0.78832000        +0.93966000
@O        -1.47336000        +1.75939000        -0.99882000
@O        -0.91364000        -1.42792000        -0.50620000
@O        -0.62208000        -2.40877000        +1.49911000
@C        -1.86134000        -2.44741000        -0.86560000
@C        -3.47068000        +0.87492000        +0.53920000
@C        +1.33008000        +1.39974000        -0.43491000
@C        +2.63070000        +1.71700000        +0.32855000
@C        +3.04336000        +0.29351000        +0.80300000
@C        +1.94423000        -0.59299000        +0.15262000
@O        +1.62840000        +0.13663000        -1.04376000
@H        +0.27811000        +1.68786000        +1.46900000
@H        +0.83923000        -0.48042000        +2.06408000
@H        -2.68749000        -2.46677000        -0.15296000
@H        -3.76076000        +1.91522000        +0.38406000
@H        +3.37234000        +2.13782000        -0.35195000
@H        +2.48236000        +2.42488000        +1.14651000
@H        +4.02182000        +0.00994000        +0.41161000
@H        +3.07359000        +0.18738000        +1.88928000
@H        -2.21148000        -2.17765000        -1.85937000
@H        -1.38062000        -3.42697000        -0.88096000
@H        -4.03855000        +0.43623000        +1.35671000
@H        -3.63120000        +0.31700000        -0.38495000
@C        +2.35450000        -2.01267000        -0.16812000
@H        +3.26311000        -2.00678000        -0.77366000
@H        +2.54990000        -2.57059000        +0.75079000
@H        +1.57335000        -2.52896000        -0.72872000
@H        +1.03270000        +2.19943000        -1.08064000
$end

$rem
JOBTYPE                   SP
METHOD                    B3LYP
DFT_D                     d3_op
BASIS                     6-311++G(d,p)
SYMMETRY                  False
THRESH                    12
SCF_CONVERGENCE           8
MAX_SUB_FILE_NUM          128
MEM_STATIC                400
MEM_TOTAL                 4000
$end
--------------------------------------------------------------

             Standard Nuclear Orientation (Angstroms)
    I     Atom           X                Y                Z
 ----------------------------------------------------------------
    1      C       0.2540000000     2.8178200000     6.3179400000
    2      C       0.6575600000     1.3594100000     6.7307000000
    3      C      -1.1507000000     3.0051700000     5.7757600000
    4      C      -0.3432700000     0.2565100000     6.4553200000
    5      O      -2.0604200000     2.5612600000     6.6716500000
    6      O      -1.4420600000     3.5323300000     4.7331700000
    7      O      -0.8823400000     0.3450200000     5.2257900000
    8      O      -0.5907800000    -0.6358300000     7.2311000000
    9      C      -1.8300400000    -0.6744700000     4.8663900000
   10      C      -3.4393800000     2.6478600000     6.2711900000
   11      C       1.3613800000     3.1726800000     5.2970800000
   12      C       2.6620000000     3.4899400000     6.0605400000
   13      C       3.0746600000     2.0664500000     6.5349900000
   14      C       1.9755300000     1.1799500000     5.8846100000
   15      O       1.6597000000     1.9095700000     4.6882300000
   16      H       0.3094100000     3.4608000000     7.2009900000
   17      H       0.8705300000     1.2925200000     7.7960700000
   18      H      -2.6561900000    -0.6938300000     5.5790300000
   19      H      -3.7294600000     3.6881600000     6.1160500000
   20      H       3.4036400000     3.9107600000     5.3800400000
   21      H       2.5136600000     4.1978200000     6.8785000000
   22      H       4.0531200000     1.7828800000     6.1436000000
   23      H       3.1048900000     1.9603200000     7.6212700000
   24      H      -2.1801800000    -0.4047100000     3.8726200000
   25      H      -1.3493200000    -1.6540300000     4.8510300000
   26      H      -4.0072500000     2.2091700000     7.0887000000
   27      H      -3.5999000000     2.0899400000     5.3470400000
   28      C       2.3858000000    -0.2397300000     5.5638700000
   29      H       3.2944100000    -0.2338400000     4.9583300000
   30      H       2.5812000000    -0.7976500000     6.4827800000
   31      H       1.6046500000    -0.7560200000     5.0032700000
   32      H       1.0640000000     3.9723700000     4.6513500000
   33      GH      0.2227000000     1.0448800000     0.5859500000
   34      GH      0.6262600000    -0.4135300000     0.9987100000
   35      GH     -1.1820000000     1.2322300000     0.0437700000
   36      GH     -0.3745700000    -1.5164300000     0.7233300000
   37      GH     -2.0917200000     0.7883200000     0.9396600000
   38      GH     -1.4733600000     1.7593900000    -0.9988200000
   39      GH     -0.9136400000    -1.4279200000    -0.5062000000
   40      GH     -0.6220800000    -2.4087700000     1.4991100000
   41      GH     -1.8613400000    -2.4474100000    -0.8656000000
   42      GH     -3.4706800000     0.8749200000     0.5392000000
   43      GH      1.3300800000     1.3997400000    -0.4349100000
   44      GH      2.6307000000     1.7170000000     0.3285500000
   45      GH      3.0433600000     0.2935100000     0.8030000000
   46      GH      1.9442300000    -0.5929900000     0.1526200000
   47      GH      1.6284000000     0.1366300000    -1.0437600000
   48      GH      0.2781100000     1.6878600000     1.4690000000
   49      GH      0.8392300000    -0.4804200000     2.0640800000
   50      GH     -2.6874900000    -2.4667700000    -0.1529600000
   51      GH     -3.7607600000     1.9152200000     0.3840600000
   52      GH      3.3723400000     2.1378200000    -0.3519500000
   53      GH      2.4823600000     2.4248800000     1.1465100000
   54      GH      4.0218200000     0.0099400000     0.4116100000
   55      GH      3.0735900000     0.1873800000     1.8892800000
   56      GH     -2.2114800000    -2.1776500000    -1.8593700000
   57      GH     -1.3806200000    -3.4269700000    -0.8809600000
   58      GH     -4.0385500000     0.4362300000     1.3567100000
   59      GH     -3.6312000000     0.3170000000    -0.3849500000
   60      GH      2.3545000000    -2.0126700000    -0.1681200000
   61      GH      3.2631100000    -2.0067800000    -0.7736600000
   62      GH      2.5499000000    -2.5705900000     0.7507900000
   63      GH      1.5733500000    -2.5289600000    -0.7287200000
   64      GH      1.0327000000     2.1994300000    -1.0806400000
 ----------------------------------------------------------------

   14    -805.1966906652      6.71E-09 Convergence criterion met
 Total energy in the final basis set = -805.19669067

                    Orbital Energies (a.u.)
 --------------------------------------------------------------

 Alpha MOs
 -- Occupied --
-19.175 -19.173 -19.131 -19.119 -19.116 -10.309 -10.306 -10.246
-10.232 -10.230 -10.228 -10.205 -10.204 -10.179 -10.178 -10.171
 -1.120  -1.113  -1.063  -1.030  -1.027  -0.832  -0.796  -0.784
 -0.746  -0.729  -0.697  -0.655  -0.606  -0.590  -0.569  -0.562
 -0.534  -0.518  -0.510  -0.492  -0.491  -0.483  -0.476  -0.472
 -0.461  -0.443  -0.434  -0.425  -0.416  -0.405  -0.397  -0.389
 -0.381  -0.374  -0.369  -0.361  -0.355  -0.351  -0.333  -0.332
 -0.320  -0.313  -0.289  -0.281  -0.274

          Ground-State Mulliken Net Atomic Charges

     Atom                 Charge (a.u.)
  ----------------------------------------
      1 C                    -0.011602
      2 C                     0.487243
      3 C                    -0.574170
      4 C                    -0.867006
      5 O                     0.002312
      6 O                    -0.116916
      7 O                     0.042176
      8 O                    -0.108634
      9 C                    -0.277019
     10 C                    -0.161942
     11 C                    -0.198173
     12 C                    -0.626933
     13 C                    -0.327314
     14 C                    -0.234678
     15 O                     0.183437
     16 H                     0.246243
     17 H                     0.283920
     18 H                     0.211833
     19 H                     0.171523
     20 H                     0.180203
     21 H                     0.133149
     22 H                     0.168611
     23 H                     0.145024
     24 H                     0.136878
     25 H                     0.192881
     26 H                     0.164803
     27 H                     0.179817
     28 C                    -0.230245
     29 H                     0.189784
     30 H                     0.183500
     31 H                     0.184028
     32 H                     0.271986
     33 GH                   -0.078222
     34 GH                    0.027904
     35 GH                   -0.028055
     36 GH                   -0.003113
     37 GH                    0.001836
     38 GH                    0.000071
     39 GH                    0.000291
     40 GH                   -0.002482
     41 GH                    0.000423
     42 GH                    0.006670
     43 GH                    0.006080
     44 GH                    0.015914
     45 GH                   -0.028066
     46 GH                    0.042593
     47 GH                    0.000003
     48 GH                    0.021029
     49 GH                   -0.004534
     50 GH                    0.000317
     51 GH                   -0.000713
     52 GH                    0.000079
     53 GH                    0.000540
     54 GH                   -0.000888
     55 GH                   -0.013462
     56 GH                    0.000037
     57 GH                   -0.000071
     58 GH                    0.003965
     59 GH                    0.000089
     60 GH                    0.005436
     61 GH                    0.000030
     62 GH                    0.001039
     63 GH                   -0.000049
     64 GH                    0.000595
  ----------------------------------------
  Sum of atomic charges =     0.000000

                    Cartesian Multipole Moments
 -----------------------------------------------------------------
    Charge (ESU x 10^10)
                 0.0000
    Dipole Moment (Debye)
         X       0.0477      Y       0.4882      Z       1.1080
       Tot       1.2117
    Quadrupole Moments (Debye-Ang)
        XX     -81.7058     XY       2.6630     YY     -94.4921
        XZ       3.3836     YZ      15.6212     ZZ     -89.5588

 Total job time:  7188.48s(wall), 7171.60s(cpu)
        *  Thank you very much for using Q-Chem.  Have a nice day.  *
