 Q-Chem 5.0, Q-Chem, Inc., Pleasanton, CA (2017)
 Q-Chem 5.0.1 for Intel X86 EM64T Linux

User input:
--------------------------------------------------------------
$molecule
0  1
--
0  1
C        +0.22270000        +1.04488000        +0.58595000
C        +0.62626000        -0.41353000        +0.99871000
C        -1.18200000        +1.23223000        +0.04377000
C        -0.37457000        -1.51643000        +0.72333000
O        -2.09172000        +0.78832000        +0.93966000
O        -1.47336000        +1.75939000        -0.99882000
O        -0.91364000        -1.42792000        -0.50620000
O        -0.62208000        -2.40877000        +1.49911000
C        -1.86134000        -2.44741000        -0.86560000
C        -3.47068000        +0.87492000        +0.53920000
C        +1.33008000        +1.39974000        -0.43491000
C        +2.63070000        +1.71700000        +0.32855000
C        +3.04336000        +0.29351000        +0.80300000
C        +1.94423000        -0.59299000        +0.15262000
O        +1.62840000        +0.13663000        -1.04376000
H        +0.27811000        +1.68786000        +1.46900000
H        +0.83923000        -0.48042000        +2.06408000
H        -2.68749000        -2.46677000        -0.15296000
H        -3.76076000        +1.91522000        +0.38406000
H        +3.37234000        +2.13782000        -0.35195000
H        +2.48236000        +2.42488000        +1.14651000
H        +4.02182000        +0.00994000        +0.41161000
H        +3.07359000        +0.18738000        +1.88928000
H        -2.21148000        -2.17765000        -1.85937000
H        -1.38062000        -3.42697000        -0.88096000
H        -4.03855000        +0.43623000        +1.35671000
H        -3.63120000        +0.31700000        -0.38495000
C        +2.35450000        -2.01267000        -0.16812000
H        +3.26311000        -2.00678000        -0.77366000
H        +2.54990000        -2.57059000        +0.75079000
H        +1.57335000        -2.52896000        -0.72872000
H        +1.03270000        +2.19943000        -1.08064000
--
0  1
C        +0.25400000        +2.81782000        +6.31794000
C        +0.65756000        +1.35941000        +6.73070000
C        -1.15070000        +3.00517000        +5.77576000
C        -0.34327000        +0.25651000        +6.45532000
O        -2.06042000        +2.56126000        +6.67165000
O        -1.44206000        +3.53233000        +4.73317000
O        -0.88234000        +0.34502000        +5.22579000
O        -0.59078000        -0.63583000        +7.23110000
C        -1.83004000        -0.67447000        +4.86639000
C        -3.43938000        +2.64786000        +6.27119000
C        +1.36138000        +3.17268000        +5.29708000
C        +2.66200000        +3.48994000        +6.06054000
C        +3.07466000        +2.06645000        +6.53499000
C        +1.97553000        +1.17995000        +5.88461000
O        +1.65970000        +1.90957000        +4.68823000
H        +0.30941000        +3.46080000        +7.20099000
H        +0.87053000        +1.29252000        +7.79607000
H        -2.65619000        -0.69383000        +5.57903000
H        -3.72946000        +3.68816000        +6.11605000
H        +3.40364000        +3.91076000        +5.38004000
H        +2.51366000        +4.19782000        +6.87850000
H        +4.05312000        +1.78288000        +6.14360000
H        +3.10489000        +1.96032000        +7.62127000
H        -2.18018000        -0.40471000        +3.87262000
H        -1.34932000        -1.65403000        +4.85103000
H        -4.00725000        +2.20917000        +7.08870000
H        -3.59990000        +2.08994000        +5.34704000
C        +2.38580000        -0.23973000        +5.56387000
H        +3.29441000        -0.23384000        +4.95833000
H        +2.58120000        -0.79765000        +6.48278000
H        +1.60465000        -0.75602000        +5.00327000
H        +1.06400000        +3.97237000        +4.65135000
$end

$rem
JOBTYPE                   SP
METHOD                    B3LYP
DFT_D                     d3_op
BASIS                     6-311++G(d,p)
SYMMETRY                  False
THRESH                    12
SCF_CONVERGENCE           8
MAX_SUB_FILE_NUM          128
MEM_STATIC                400
MEM_TOTAL                 4000
$end
--------------------------------------------------------------

             Standard Nuclear Orientation (Angstroms)
    I     Atom           X                Y                Z
 ----------------------------------------------------------------
    1      C      -2.1785123971     0.2058267927     1.1101594119
    2      C      -2.2910136672     0.5632096847    -0.4129335439
    3      C      -2.6438105696    -1.1796107239     1.5179605437
    4      C      -2.9473612207    -0.4567277494    -1.3200271239
    5      O      -1.9717631709    -2.1224142264     0.8202934968
    6      O      -3.4432218860    -1.4313757997     2.3824477427
    7      O      -4.0780801474    -0.9619187822    -0.7942598415
    8      O      -2.5332003131    -0.7455457456    -2.4174884634
    9      C      -4.7834640844    -1.9245898402    -1.5957343860
   10      C      -2.3387032041    -3.4881912059     1.0837450246
   11      C      -2.9955710249     1.3471981261     1.7613566950
   12      C      -2.1493501064     2.6352134646     1.7533499075
   13      C      -2.1917455268     3.0009627076     0.2413495841
   14      C      -3.1262329412     1.8976128293    -0.3298907065
   15      O      -4.0000232764     1.6302325147     0.7784491579
   16      H      -1.1265153291     0.2542542981     1.4055029351
   17      H      -1.3118112614     0.7472196069    -0.8512789863
   18      H      -4.1347111986    -2.7688946028    -1.8345304555
   19      H      -2.1278679095    -3.7488879524     2.1220246599
   20      H      -2.6300277740     3.4039809037     2.3600996223
   21      H      -1.1390494181     2.4832542514     2.1385230222
   22      H      -2.6419387021     3.9819293899     0.0800656060
   23      H      -1.2093843847     3.0008599751    -0.2352511336
   24      H      -5.6272861609    -2.2425905900    -0.9876331474
   25      H      -5.1301620496    -1.4675437937    -2.5240526902
   26      H      -1.7330366417    -4.0872287176     0.4073058715
   27      H      -3.4013735473    -3.6385500870     0.8857082408
   28      C      -3.9130655375     2.2813716859    -1.5628994366
   29      H      -4.4647717058     3.2050235739    -1.3764242117
   30      H      -3.2418006529     2.4396482072    -2.4103682986
   31      H      -4.6300076933     1.5024945836    -1.8281680766
   32      H      -3.3283762952     1.0858953261     2.7441423747
   33      C       3.8123304349     0.1337556011     0.7867197743
   34      C       3.6998291648     0.4911384931    -0.7363731815
   35      C       3.3470322624    -1.2516819155     1.1945209061
   36      C       3.0434816113    -0.5287989410    -1.6434667615
   37      O       4.0190796611    -2.1944854180     0.4968538593
   38      O       2.5476209461    -1.5034469913     2.0590081051
   39      O       1.9127626847    -1.0339899737    -1.1176994791
   40      O       3.4576425189    -0.8176169372    -2.7409281010
   41      C       1.2073787476    -1.9966610318    -1.9191740235
   42      C       3.6521396280    -3.5602623975     0.7603053871
   43      C       2.9952718071     1.2751269345     1.4379170574
   44      C       3.8414927256     2.5631422730     1.4299102699
   45      C       3.7990973053     2.9288915160    -0.0820900534
   46      C       2.8646098908     1.8255416377    -0.6533303441
   47      O       1.9908195557     1.5581613231     0.4550095204
   48      H       4.8643275029     0.1821831065     1.0820632976
   49      H       4.6790315706     0.6751484153    -1.1747186239
   50      H       1.8561316334    -2.8409657944    -2.1579700931
   51      H       3.8629749225    -3.8209591440     1.7985850223
   52      H       3.3608150581     3.3319097121     2.0366599848
   53      H       4.8517934139     2.4111830598     1.8150833847
   54      H       3.3489041299     3.9098581983    -0.2433740315
   55      H       4.7814584473     2.9287887835    -0.5586907712
   56      H       0.3635566711    -2.3146617816    -1.3110727849
   57      H       0.8606807824    -1.5396149853    -2.8474923277
   58      H       4.2578061903    -4.1592999092     0.0838662339
   59      H       2.5894692847    -3.7106212786     0.5622686032
   60      C       2.0777772946     2.2093004943    -1.8863390741
   61      H       1.5260711263     3.1329523823    -1.6998638493
   62      H       2.7490421791     2.3675770156    -2.7338079361
   63      H       1.3608351387     1.4304233921    -2.1516077142
   64      H       2.6624665368     1.0138241345     2.4207027371
 ----------------------------------------------------------------

   15   -1610.4015188589      5.43E-09 Convergence criterion met
 Total energy in the final basis set = -1610.40151886

                    Orbital Energies (a.u.)
 --------------------------------------------------------------

 Alpha MOs
 -- Occupied --
-19.177 -19.172 -19.171 -19.170 -19.138 -19.124 -19.122 -19.116
-19.114 -19.113 -10.312 -10.306 -10.303 -10.303 -10.250 -10.240
-10.234 -10.234 -10.229 -10.229 -10.224 -10.221 -10.209 -10.207
-10.198 -10.196 -10.184 -10.183 -10.175 -10.172 -10.170 -10.167
 -1.121  -1.116  -1.113  -1.109  -1.069  -1.057  -1.033  -1.027
 -1.026  -1.025  -0.836  -0.826  -0.800  -0.790  -0.788  -0.777
 -0.747  -0.742  -0.729  -0.725  -0.700  -0.692  -0.658  -0.649
 -0.609  -0.601  -0.594  -0.584  -0.569  -0.566  -0.565  -0.557
 -0.537  -0.528  -0.520  -0.513  -0.512  -0.505  -0.495  -0.492
 -0.486  -0.486  -0.485  -0.479  -0.476  -0.473  -0.473  -0.468
 -0.464  -0.455  -0.446  -0.438  -0.435  -0.430  -0.426  -0.420
 -0.418  -0.412  -0.408  -0.400  -0.397  -0.395  -0.393  -0.385
 -0.384  -0.375  -0.374  -0.372  -0.370  -0.365  -0.364  -0.358
 -0.355  -0.354  -0.348  -0.344  -0.337  -0.336  -0.327  -0.325
 -0.321  -0.316  -0.312  -0.310  -0.292  -0.285  -0.284  -0.278
 -0.277  -0.268

          Ground-State Mulliken Net Atomic Charges

     Atom                 Charge (a.u.)
  ----------------------------------------
      1 C                    -0.046543
      2 C                     0.690772
      3 C                    -0.754972
      4 C                    -0.812775
      5 O                     0.041665
      6 O                    -0.184467
      7 O                     0.034339
      8 O                    -0.100410
      9 C                    -0.178798
     10 C                    -0.227900
     11 C                    -0.187246
     12 C                    -0.410100
     13 C                    -0.328070
     14 C                    -0.284906
     15 O                    -0.011261
     16 H                     0.238303
     17 H                     0.308746
     18 H                     0.193768
     19 H                     0.184589
     20 H                     0.196024
     21 H                     0.121417
     22 H                     0.183155
     23 H                     0.076776
     24 H                     0.178089
     25 H                     0.175801
     26 H                     0.134101
     27 H                     0.182506
     28 C                    -0.235639
     29 H                     0.182534
     30 H                     0.159934
     31 H                     0.180508
     32 H                     0.291128
     33 C                    -0.005134
     34 C                     0.504326
     35 C                    -0.563266
     36 C                    -0.861412
     37 O                     0.003308
     38 O                    -0.121876
     39 O                     0.032167
     40 O                    -0.106334
     41 C                    -0.274929
     42 C                    -0.165063
     43 C                    -0.198506
     44 C                    -0.625754
     45 C                    -0.325182
     46 C                    -0.290519
     47 O                     0.170495
     48 H                     0.248574
     49 H                     0.285072
     50 H                     0.205490
     51 H                     0.171511
     52 H                     0.179481
     53 H                     0.135834
     54 H                     0.168111
     55 H                     0.147317
     56 H                     0.132837
     57 H                     0.203031
     58 H                     0.165763
     59 H                     0.179919
     60 C                    -0.220443
     61 H                     0.190632
     62 H                     0.186597
     63 H                     0.184645
     64 H                     0.272236
  ----------------------------------------
  Sum of atomic charges =     0.000000

                    Cartesian Multipole Moments
 -----------------------------------------------------------------
    Charge (ESU x 10^10)
                 0.0000
    Dipole Moment (Debye)
         X       2.7964      Y       0.0609      Z       0.1843
       Tot       2.8032
    Quadrupole Moments (Debye-Ang)
        XX    -189.9690     XY       8.6647     YY    -164.5671
        XZ      20.0155     YZ       0.8744     ZZ    -207.8407

 Total job time:  7106.36s(wall), 7089.89s(cpu)
        *  Thank you very much for using Q-Chem.  Have a nice day.  *
