 Q-Chem 5.0, Q-Chem, Inc., Pleasanton, CA (2017)
 Q-Chem 5.0.1 for Intel X86 EM64T Linux

User input:
--------------------------------------------------------------
$molecule
0  1
--
0  1
C        +0.22270000        +1.04488000        +0.58595000
C        +0.62626000        -0.41353000        +0.99871000
C        -1.18200000        +1.23223000        +0.04377000
C        -0.37457000        -1.51643000        +0.72333000
O        -2.09172000        +0.78832000        +0.93966000
O        -1.47336000        +1.75939000        -0.99882000
O        -0.91364000        -1.42792000        -0.50620000
O        -0.62208000        -2.40877000        +1.49911000
C        -1.86134000        -2.44741000        -0.86560000
C        -3.47068000        +0.87492000        +0.53920000
C        +1.33008000        +1.39974000        -0.43491000
C        +2.63070000        +1.71700000        +0.32855000
C        +3.04336000        +0.29351000        +0.80300000
C        +1.94423000        -0.59299000        +0.15262000
O        +1.62840000        +0.13663000        -1.04376000
H        +0.27811000        +1.68786000        +1.46900000
H        +0.83923000        -0.48042000        +2.06408000
H        -2.68749000        -2.46677000        -0.15296000
H        -3.76076000        +1.91522000        +0.38406000
H        +3.37234000        +2.13782000        -0.35195000
H        +2.48236000        +2.42488000        +1.14651000
H        +4.02182000        +0.00994000        +0.41161000
H        +3.07359000        +0.18738000        +1.88928000
H        -2.21148000        -2.17765000        -1.85937000
H        -1.38062000        -3.42697000        -0.88096000
H        -4.03855000        +0.43623000        +1.35671000
H        -3.63120000        +0.31700000        -0.38495000
C        +0.90028000        +2.39077000        -1.49430000
C        +2.35450000        -2.01267000        -0.16812000
H        +3.26311000        -2.00678000        -0.77366000
H        +2.54990000        -2.57059000        +0.75079000
H        +1.57335000        -2.52896000        -0.72872000
H        +1.71845000        +2.58186000        -2.15686000
H        +0.59919000        +3.30478000        -1.02650000
H        +0.07925000        +1.98653000        -2.04874000
--
0  1
C        +0.25400000        +2.81782000        +6.31794000
C        +0.65756000        +1.35941000        +6.73070000
C        -1.15070000        +3.00517000        +5.77576000
C        -0.34327000        +0.25651000        +6.45532000
O        -2.06042000        +2.56126000        +6.67165000
O        -1.44206000        +3.53233000        +4.73317000
O        -0.88234000        +0.34502000        +5.22579000
O        -0.59078000        -0.63583000        +7.23110000
C        -1.83004000        -0.67447000        +4.86639000
C        -3.43938000        +2.64786000        +6.27119000
C        +1.36138000        +3.17268000        +5.29708000
C        +2.66200000        +3.48994000        +6.06054000
C        +3.07466000        +2.06645000        +6.53499000
C        +1.97553000        +1.17995000        +5.88461000
O        +1.65970000        +1.90957000        +4.68823000
H        +0.30941000        +3.46080000        +7.20099000
H        +0.87053000        +1.29252000        +7.79607000
H        -2.65619000        -0.69383000        +5.57903000
H        -3.72946000        +3.68816000        +6.11605000
H        +3.40364000        +3.91076000        +5.38004000
H        +2.51366000        +4.19782000        +6.87850000
H        +4.05312000        +1.78288000        +6.14360000
H        +3.10489000        +1.96032000        +7.62127000
H        -2.18018000        -0.40471000        +3.87262000
H        -1.34932000        -1.65403000        +4.85103000
H        -4.00725000        +2.20917000        +7.08870000
H        -3.59990000        +2.08994000        +5.34704000
C        +0.93158000        +4.16371000        +4.23769000
C        +2.38580000        -0.23973000        +5.56387000
H        +3.29441000        -0.23384000        +4.95833000
H        +2.58120000        -0.79765000        +6.48278000
H        +1.60465000        -0.75602000        +5.00327000
H        +1.74975000        +4.35480000        +3.57513000
H        +0.63049000        +5.07772000        +4.70549000
H        +0.11055000        +3.75947000        +3.68325000
$end

$rem
JOBTYPE                   SP
METHOD                    B3LYP
DFT_D                     d3_op
BASIS                     6-311++G(d,p)
SYMMETRY                  False
THRESH                    12
SCF_CONVERGENCE           8
MAX_SUB_FILE_NUM          128
MEM_STATIC                400
MEM_TOTAL                 4000
$end
--------------------------------------------------------------

             Standard Nuclear Orientation (Angstroms)
    I     Atom           X                Y                Z
 ----------------------------------------------------------------
    1      C      -2.1529694389     0.2513604970     0.8480749444
    2      C      -2.2348696779     0.3974381510    -0.7114586042
    3      C      -2.6157499667    -1.0709900644     1.4307107147
    4      C      -2.8627227465    -0.7434076595    -1.4848631582
    5      O      -1.9208128068    -2.0922360245     0.8817257502
    6      O      -3.4318910793    -1.2119569475     2.3046811063
    7      O      -4.0005523070    -1.1850943074    -0.9187966407
    8      O      -2.4221695271    -1.1738891882    -2.5240768025
    9      C      -4.6802208359    -2.2554166517    -1.5963837423
   10      C      -2.2822485463    -3.4136086042     1.3207441610
   11      C      -2.9934838000     1.4614059833     1.3210408560
   12      C      -2.1578801402     2.7457374701     1.1555216151
   13      C      -2.1700064205     2.9023880425    -0.3927123497
   14      C      -3.0826258611     1.7214010905    -0.8278660321
   15      O      -3.9783609668     1.5972355822     0.2882256240
   16      H      -1.1081553072     0.3511116628     1.1557825752
   17      H      -1.2478044121     0.5311179408    -1.1504068980
   18      H      -4.0194721267    -3.1170588363    -1.7047271353
   19      H      -2.0921707092    -3.5286108580     2.3889594078
   20      H      -2.6580736978     3.5843549826     1.6420672808
   21      H      -1.1550837504     2.6586978233     1.5785829726
   22      H      -2.6245709082     3.8473232190    -0.6951204969
   23      H      -1.1774323649     2.8485131902    -0.8444599700
   24      H      -5.5345782555    -2.4972942542    -0.9682787232
   25      H      -5.0101523203    -1.9324790609    -2.5851819875
   26      H      -1.6569593110    -4.0921474703     0.7446831986
   27      H      -3.3390375395    -3.6012529139     1.1230543635
   28      C      -3.6754273115     1.2569532092     2.6560793510
   29      C      -3.8452682260     1.9254890769    -2.1175991983
   30      H      -4.4084967227     2.8597160610    -2.0698590849
   31      H      -3.1568460560     1.9747244051    -2.9646542571
   32      H      -4.5497924329     1.1098979918    -2.2892962294
   33      H      -4.2329235120     2.1342727857     2.9098738303
   34      H      -2.9376996598     1.0729569974     3.4089469450
   35      H      -4.3379274346     0.4190458570     2.5935588883
   36      C       3.8439276049     0.2026241019     0.6613775856
   37      C       3.7620273659     0.3487017559    -0.8981559630
   38      C       3.3811470771    -1.1197264595     1.2440133559
   39      C       3.1341742973    -0.7921440546    -1.6715605170
   40      O       4.0760842370    -2.1409724196     0.6950283913
   41      O       2.5650059644    -1.2606933426     2.1179837475
   42      O       1.9963447368    -1.2338307026    -1.1054939995
   43      O       3.5747275167    -1.2226255833    -2.7107741613
   44      C       1.3166762079    -2.3041530469    -1.7830811011
   45      C       3.7146484975    -3.4623449993     1.1340468022
   46      C       3.0034132438     1.4126695881     1.1343434971
   47      C       3.8390169036     2.6970010750     0.9688242563
   48      C       3.8268906232     2.8536516474    -0.5794097085
   49      C       2.9142711827     1.6726646954    -1.0145633909
   50      O       2.0185360770     1.5484991870     0.1015282651
   51      H       4.8887417366     0.3023752677     0.9690852164
   52      H       4.7490926317     0.4823815457    -1.3371042569
   53      H       1.9774249171    -3.1657952314    -1.8914244941
   54      H       3.9047263346    -3.5773472531     2.2022620490
   55      H       3.3388233460     3.5356185874     1.4553699220
   56      H       4.8418132933     2.6099614282     1.3918856138
   57      H       3.3723261356     3.7985868238    -0.8818178557
   58      H       4.8194646789     2.7997767950    -1.0311573288
   59      H       0.4623187883    -2.5460306493    -1.1549760820
   60      H       0.9867447235    -1.9812154561    -2.7718793463
   61      H       4.3399377328    -4.1408838655     0.5579858398
   62      H       2.6578595042    -3.6499893091     0.9363570047
   63      C       2.3214697323     1.2082168140     2.4693819922
   64      C       2.1516288177     1.8767526817    -2.3042965571
   65      H       1.5884003211     2.8109796659    -2.2565564437
   66      H       2.8400509878     1.9259880099    -3.1513516160
   67      H       1.4471046109     1.0611615966    -2.4759935883
   68      H       1.7639735318     2.0855363906     2.7231764715
   69      H       3.0591973840     1.0242206022     3.2222495862
   70      H       1.6589696092     0.3703094619     2.4068615295
 ----------------------------------------------------------------

   15   -1689.0430843495      5.34E-09 Convergence criterion met
 Total energy in the final basis set = -1689.04308435

                    Orbital Energies (a.u.)
 --------------------------------------------------------------

 Alpha MOs
 -- Occupied --
-19.178 -19.173 -19.172 -19.172 -19.131 -19.120 -19.119 -19.116
-19.115 -19.112 -10.314 -10.306 -10.306 -10.304 -10.247 -10.237
-10.236 -10.234 -10.231 -10.230 -10.224 -10.224 -10.207 -10.206
-10.197 -10.196 -10.181 -10.179 -10.172 -10.170 -10.167 -10.165
-10.143 -10.131  -1.123  -1.118  -1.114  -1.111  -1.067  -1.055
 -1.037  -1.030  -1.027  -1.026  -0.835  -0.826  -0.808  -0.798
 -0.787  -0.777  -0.748  -0.745  -0.731  -0.727  -0.724  -0.716
 -0.677  -0.669  -0.648  -0.638  -0.605  -0.599  -0.583  -0.575
 -0.570  -0.566  -0.563  -0.557  -0.527  -0.519  -0.516  -0.511
 -0.511  -0.502  -0.496  -0.491  -0.489  -0.485  -0.482  -0.476
 -0.475  -0.473  -0.473  -0.467  -0.462  -0.453  -0.445  -0.439
 -0.437  -0.434  -0.430  -0.430  -0.418  -0.412  -0.409  -0.407
 -0.406  -0.402  -0.398  -0.396  -0.395  -0.391  -0.376  -0.373
 -0.371  -0.369  -0.368  -0.362  -0.359  -0.358  -0.354  -0.352
 -0.350  -0.348  -0.343  -0.339  -0.337  -0.333  -0.328  -0.323
 -0.322  -0.318  -0.312  -0.311  -0.285  -0.282  -0.278  -0.273
 -0.266  -0.265

          Ground-State Mulliken Net Atomic Charges

     Atom                 Charge (a.u.)
  ----------------------------------------
      1 C                     0.130485
      2 C                     0.488189
      3 C                    -0.585553
      4 C                    -0.707971
      5 O                     0.073477
      6 O                    -0.139551
      7 O                     0.021733
      8 O                    -0.101733
      9 C                    -0.166668
     10 C                    -0.221110
     11 C                    -0.572457
     12 C                    -0.223931
     13 C                    -0.113912
     14 C                    -0.492594
     15 O                     0.126606
     16 H                     0.216828
     17 H                     0.237738
     18 H                     0.192960
     19 H                     0.182364
     20 H                     0.191948
     21 H                     0.145285
     22 H                     0.189670
     23 H                     0.110616
     24 H                     0.173373
     25 H                     0.177407
     26 H                     0.135251
     27 H                     0.186918
     28 C                    -0.431954
     29 C                    -0.254412
     30 H                     0.174130
     31 H                     0.167013
     32 H                     0.174927
     33 H                     0.140988
     34 H                     0.152725
     35 H                     0.200242
     36 C                    -0.133041
     37 C                     0.516081
     38 C                    -0.495158
     39 C                    -0.770637
     40 O                     0.025949
     41 O                    -0.099895
     42 O                     0.029246
     43 O                    -0.106680
     44 C                    -0.254618
     45 C                    -0.165868
     46 C                    -0.009998
     47 C                    -0.461054
     48 C                    -0.408303
     49 C                    -0.321748
     50 O                     0.275512
     51 H                     0.269481
     52 H                     0.286354
     53 H                     0.205163
     54 H                     0.168976
     55 H                     0.174482
     56 H                     0.147755
     57 H                     0.168725
     58 H                     0.146591
     59 H                     0.144517
     60 H                     0.202588
     61 H                     0.165395
     62 H                     0.177724
     63 C                    -0.593399
     64 C                    -0.320435
     65 H                     0.191912
     66 H                     0.188972
     67 H                     0.191570
     68 H                     0.127599
     69 H                     0.176281
     70 H                     0.180932
  ----------------------------------------
  Sum of atomic charges =     0.000000

                    Cartesian Multipole Moments
 -----------------------------------------------------------------
    Charge (ESU x 10^10)
                 0.0000
    Dipole Moment (Debye)
         X       2.4519      Y      -0.5703      Z       0.4881
       Tot       2.5642
    Quadrupole Moments (Debye-Ang)
        XX    -203.1376     XY      11.2193     YY    -179.7607
        XZ      17.9614     YZ      -6.1939     ZZ    -220.3236

 Total job time:  3513.32s(wall), 6994.82s(cpu)
        *  Thank you very much for using Q-Chem.  Have a nice day.  *
