 Q-Chem 5.0, Q-Chem, Inc., Pleasanton, CA (2017)
 Q-Chem 5.0.1 for Intel X86 EM64T Linux

User input:
--------------------------------------------------------------
$molecule
0  1
C        -0.54444000        -0.68370000        -0.06689000
C        -0.55709000        +0.71878000        +0.05493000
C        +0.74969000        -1.43776000        -0.09374000
C        +0.72843000        +1.48436000        +0.06598000
O        +1.53645000        -1.09176000        +0.94813000
O        +1.04702000        -2.28405000        -0.90088000
O        +1.53784000        +1.08301000        -0.93877000
O        +1.01035000        +2.37097000        +0.83478000
C        +2.83449000        +1.70121000        -0.99358000
C        +2.82316000        -1.73208000        +1.00475000
C        -1.74320000        -1.41616000        -0.12552000
C        -2.93952000        -0.70056000        -0.05285000
C        -2.95313000        +0.68255000        +0.06934000
C        -1.77161000        +1.42404000        +0.12810000
H        +2.73835000        +2.77989000        -1.12464000
H        +2.70778000        -2.81319000        +1.09555000
H        -3.90354000        +1.20325000        +0.11710000
H        +3.38998000        +1.50093000        -0.07544000
H        +3.33184000        +1.25269000        -1.85067000
H        +3.31095000        -1.32281000        +1.88650000
H        +3.39889000        -1.50934000        +0.10459000
H        -3.87892000        -1.24211000        -0.08988000
C        -1.83960000        +2.92746000        +0.24839000
H        -1.24214000        +3.42352000        -0.52065000
H        -1.45503000        +3.26427000        +1.21284000
H        -2.87211000        +3.26623000        +0.14638000
H        -1.73878000        -2.44393000        -0.21875000
@C        -0.50315000        -1.20685000        +5.91012000
@C        -0.51580000        +0.19563000        +6.03194000
@C        +0.79098000        -1.96091000        +5.88327000
@C        +0.76972000        +0.96121000        +6.04299000
@O        +1.57774000        -1.61491000        +6.92514000
@O        +1.08831000        -2.80720000        +5.07613000
@O        +1.57913000        +0.55986000        +5.03824000
@O        +1.05164000        +1.84782000        +6.81179000
@C        +2.87578000        +1.17806000        +4.98343000
@C        +2.86445000        -2.25523000        +6.98176000
@C        -1.70191000        -1.93931000        +5.85149000
@C        -2.89823000        -1.22371000        +5.92416000
@C        -2.91184000        +0.15940000        +6.04635000
@C        -1.73032000        +0.90089000        +6.10511000
@H        +2.77964000        +2.25674000        +4.85237000
@H        +2.74907000        -3.33634000        +7.07256000
@H        -3.86225000        +0.68010000        +6.09411000
@H        +3.43127000        +0.97778000        +5.90157000
@H        +3.37313000        +0.72954000        +4.12634000
@H        +3.35224000        -1.84596000        +7.86351000
@H        +3.44018000        -2.03249000        +6.08160000
@H        -3.83763000        -1.76526000        +5.88713000
@C        -1.79831000        +2.40431000        +6.22540000
@H        -1.20085000        +2.90037000        +5.45636000
@H        -1.41374000        +2.74112000        +7.18985000
@H        -2.83082000        +2.74308000        +6.12339000
@H        -1.69749000        -2.96708000        +5.75826000
$end

$rem
JOBTYPE                   SP
METHOD                    B3LYP
DFT_D                     d3_op
BASIS                     6-311++G(d,p)
SYMMETRY                  False
THRESH                    12
SCF_CONVERGENCE           8
MAX_SUB_FILE_NUM          128
MEM_STATIC                400
MEM_TOTAL                 4000
$end
--------------------------------------------------------------

             Standard Nuclear Orientation (Angstroms)
    I     Atom           X                Y                Z
 ----------------------------------------------------------------
    1      C      -0.5444400000    -0.6837000000    -0.0668900000
    2      C      -0.5570900000     0.7187800000     0.0549300000
    3      C       0.7496900000    -1.4377600000    -0.0937400000
    4      C       0.7284300000     1.4843600000     0.0659800000
    5      O       1.5364500000    -1.0917600000     0.9481300000
    6      O       1.0470200000    -2.2840500000    -0.9008800000
    7      O       1.5378400000     1.0830100000    -0.9387700000
    8      O       1.0103500000     2.3709700000     0.8347800000
    9      C       2.8344900000     1.7012100000    -0.9935800000
   10      C       2.8231600000    -1.7320800000     1.0047500000
   11      C      -1.7432000000    -1.4161600000    -0.1255200000
   12      C      -2.9395200000    -0.7005600000    -0.0528500000
   13      C      -2.9531300000     0.6825500000     0.0693400000
   14      C      -1.7716100000     1.4240400000     0.1281000000
   15      H       2.7383500000     2.7798900000    -1.1246400000
   16      H       2.7077800000    -2.8131900000     1.0955500000
   17      H      -3.9035400000     1.2032500000     0.1171000000
   18      H       3.3899800000     1.5009300000    -0.0754400000
   19      H       3.3318400000     1.2526900000    -1.8506700000
   20      H       3.3109500000    -1.3228100000     1.8865000000
   21      H       3.3988900000    -1.5093400000     0.1045900000
   22      H      -3.8789200000    -1.2421100000    -0.0898800000
   23      C      -1.8396000000     2.9274600000     0.2483900000
   24      H      -1.2421400000     3.4235200000    -0.5206500000
   25      H      -1.4550300000     3.2642700000     1.2128400000
   26      H      -2.8721100000     3.2662300000     0.1463800000
   27      H      -1.7387800000    -2.4439300000    -0.2187500000
   28      GH     -0.5031500000    -1.2068500000     5.9101200000
   29      GH     -0.5158000000     0.1956300000     6.0319400000
   30      GH      0.7909800000    -1.9609100000     5.8832700000
   31      GH      0.7697200000     0.9612100000     6.0429900000
   32      GH      1.5777400000    -1.6149100000     6.9251400000
   33      GH      1.0883100000    -2.8072000000     5.0761300000
   34      GH      1.5791300000     0.5598600000     5.0382400000
   35      GH      1.0516400000     1.8478200000     6.8117900000
   36      GH      2.8757800000     1.1780600000     4.9834300000
   37      GH      2.8644500000    -2.2552300000     6.9817600000
   38      GH     -1.7019100000    -1.9393100000     5.8514900000
   39      GH     -2.8982300000    -1.2237100000     5.9241600000
   40      GH     -2.9118400000     0.1594000000     6.0463500000
   41      GH     -1.7303200000     0.9008900000     6.1051100000
   42      GH      2.7796400000     2.2567400000     4.8523700000
   43      GH      2.7490700000    -3.3363400000     7.0725600000
   44      GH     -3.8622500000     0.6801000000     6.0941100000
   45      GH      3.4312700000     0.9777800000     5.9015700000
   46      GH      3.3731300000     0.7295400000     4.1263400000
   47      GH      3.3522400000    -1.8459600000     7.8635100000
   48      GH      3.4401800000    -2.0324900000     6.0816000000
   49      GH     -3.8376300000    -1.7652600000     5.8871300000
   50      GH     -1.7983100000     2.4043100000     6.2254000000
   51      GH     -1.2008500000     2.9003700000     5.4563600000
   52      GH     -1.4137400000     2.7411200000     7.1898500000
   53      GH     -2.8308200000     2.7430800000     6.1233900000
   54      GH     -1.6974900000    -2.9670800000     5.7582600000
 ----------------------------------------------------------------

   14    -727.5440042635      5.52E-09 Convergence criterion met
 Total energy in the final basis set = -727.54400426

                    Orbital Energies (a.u.)
 --------------------------------------------------------------

 Alpha MOs
 -- Occupied --
-19.178 -19.177 -19.121 -19.119 -10.313 -10.312 -10.233 -10.232
-10.211 -10.208 -10.207 -10.193 -10.191 -10.190 -10.174  -1.122
 -1.115  -1.033  -1.030  -0.886  -0.801  -0.795  -0.747  -0.731
 -0.704  -0.655  -0.627  -0.581  -0.575  -0.550  -0.521  -0.514
 -0.492  -0.490  -0.483  -0.478  -0.472  -0.447  -0.435  -0.432
 -0.429  -0.412  -0.407  -0.396  -0.384  -0.378  -0.371  -0.365
 -0.364  -0.322  -0.314  -0.296  -0.294  -0.269  -0.264

          Ground-State Mulliken Net Atomic Charges

     Atom                 Charge (a.u.)
  ----------------------------------------
      1 C                     0.454676
      2 C                     1.613823
      3 C                    -0.598229
      4 C                    -1.328909
      5 O                     0.086435
      6 O                    -0.178652
      7 O                     0.064994
      8 O                    -0.083406
      9 C                    -0.204460
     10 C                    -0.309597
     11 C                    -0.555594
     12 C                    -0.134743
     13 C                    -0.484684
     14 C                     0.157324
     15 H                     0.168249
     16 H                     0.188591
     17 H                     0.140614
     18 H                     0.178223
     19 H                     0.171634
     20 H                     0.124005
     21 H                     0.185467
     22 H                     0.187513
     23 C                    -0.543392
     24 H                     0.172037
     25 H                     0.192118
     26 H                     0.148722
     27 H                     0.184215
     28 GH                    0.007906
     29 GH                    0.013545
     30 GH                   -0.007879
     31 GH                    0.001568
     32 GH                    0.000016
     33 GH                    0.001144
     34 GH                   -0.000021
     35 GH                   -0.000072
     36 GH                   -0.003675
     37 GH                   -0.001366
     38 GH                   -0.004105
     39 GH                   -0.000961
     40 GH                   -0.002421
     41 GH                   -0.006627
     42 GH                   -0.000765
     43 GH                    0.000060
     44 GH                   -0.000640
     45 GH                    0.000270
     46 GH                    0.010786
     47 GH                   -0.000063
     48 GH                    0.000905
     49 GH                   -0.000188
     50 GH                   -0.004204
     51 GH                    0.000083
     52 GH                    0.000026
     53 GH                    0.000202
     54 GH                   -0.000496
  ----------------------------------------
  Sum of atomic charges =    -0.000000

                    Cartesian Multipole Moments
 -----------------------------------------------------------------
    Charge (ESU x 10^10)
                -0.0000
    Dipole Moment (Debye)
         X       0.0047      Y       0.4769      Z       0.2048
       Tot       0.5190
    Quadrupole Moments (Debye-Ang)
        XX     -68.7513     XY      -0.6891     YY     -89.6903
        XZ      -0.0805     YZ      -9.3201     ZZ     -93.2765

 Total job time:  1432.50s(wall), 2830.69s(cpu)
        *  Thank you very much for using Q-Chem.  Have a nice day.  *
