 Q-Chem 5.0, Q-Chem, Inc., Pleasanton, CA (2017)
 Q-Chem 5.0.1 for Intel X86 EM64T Linux

User input:
--------------------------------------------------------------
$molecule
0  1
--
0  1
C        -0.54444000        -0.68370000        -0.06689000
C        -0.55709000        +0.71878000        +0.05493000
C        +0.74969000        -1.43776000        -0.09374000
C        +0.72843000        +1.48436000        +0.06598000
O        +1.53645000        -1.09176000        +0.94813000
O        +1.04702000        -2.28405000        -0.90088000
O        +1.53784000        +1.08301000        -0.93877000
O        +1.01035000        +2.37097000        +0.83478000
C        +2.83449000        +1.70121000        -0.99358000
C        +2.82316000        -1.73208000        +1.00475000
C        -1.74320000        -1.41616000        -0.12552000
C        -2.93952000        -0.70056000        -0.05285000
C        -2.95313000        +0.68255000        +0.06934000
C        -1.77161000        +1.42404000        +0.12810000
H        +2.73835000        +2.77989000        -1.12464000
H        +2.70778000        -2.81319000        +1.09555000
H        -3.90354000        +1.20325000        +0.11710000
H        +3.38998000        +1.50093000        -0.07544000
H        +3.33184000        +1.25269000        -1.85067000
H        +3.31095000        -1.32281000        +1.88650000
H        +3.39889000        -1.50934000        +0.10459000
H        -3.87892000        -1.24211000        -0.08988000
C        -1.83960000        +2.92746000        +0.24839000
H        -1.24214000        +3.42352000        -0.52065000
H        -1.45503000        +3.26427000        +1.21284000
H        -2.87211000        +3.26623000        +0.14638000
H        -1.73878000        -2.44393000        -0.21875000
--
0  1
C        -0.50315000        -1.20685000        +5.91012000
C        -0.51580000        +0.19563000        +6.03194000
C        +0.79098000        -1.96091000        +5.88327000
C        +0.76972000        +0.96121000        +6.04299000
O        +1.57774000        -1.61491000        +6.92514000
O        +1.08831000        -2.80720000        +5.07613000
O        +1.57913000        +0.55986000        +5.03824000
O        +1.05164000        +1.84782000        +6.81179000
C        +2.87578000        +1.17806000        +4.98343000
C        +2.86445000        -2.25523000        +6.98176000
C        -1.70191000        -1.93931000        +5.85149000
C        -2.89823000        -1.22371000        +5.92416000
C        -2.91184000        +0.15940000        +6.04635000
C        -1.73032000        +0.90089000        +6.10511000
H        +2.77964000        +2.25674000        +4.85237000
H        +2.74907000        -3.33634000        +7.07256000
H        -3.86225000        +0.68010000        +6.09411000
H        +3.43127000        +0.97778000        +5.90157000
H        +3.37313000        +0.72954000        +4.12634000
H        +3.35224000        -1.84596000        +7.86351000
H        +3.44018000        -2.03249000        +6.08160000
H        -3.83763000        -1.76526000        +5.88713000
C        -1.79831000        +2.40431000        +6.22540000
H        -1.20085000        +2.90037000        +5.45636000
H        -1.41374000        +2.74112000        +7.18985000
H        -2.83082000        +2.74308000        +6.12339000
H        -1.69749000        -2.96708000        +5.75826000
$end

$rem
JOBTYPE                   SP
METHOD                    B3LYP
DFT_D                     d3_op
BASIS                     6-311++G(d,p)
SYMMETRY                  False
THRESH                    12
SCF_CONVERGENCE           8
MAX_SUB_FILE_NUM          128
MEM_STATIC                400
MEM_TOTAL                 4000
$end
--------------------------------------------------------------

             Standard Nuclear Orientation (Angstroms)
    I     Atom           X                Y                Z
 ----------------------------------------------------------------
    1      C      -2.9736063743     0.2476275511     1.1955704947
    2      C      -3.0273432328     0.7508503499    -0.1181377872
    3      C      -2.8897901833    -1.2267129235     1.4473538823
    4      C      -3.0950453471    -0.1882239298    -1.2810446752
    5      O      -1.8889997677    -1.7863623688     0.7336232349
    6      O      -3.5815059734    -1.8424466098     2.2209740512
    7      O      -4.0315659572    -1.1408727208    -1.0782187375
    8      O      -2.4389234947    -0.1033045938    -2.2904516495
    9      C      -4.1461369692    -2.1449527655    -2.1005559351
   10      C      -1.7366110343    -3.2098195086     0.8728554004
   11      C      -2.9561128541     1.1142330320     2.3026610887
   12      C      -2.9884254105     2.4862012595     2.0473085623
   13      C      -3.0393983326     2.9836507458     0.7519110673
   14      C      -3.0581080388     2.1363224950    -0.3575637861
   15      H      -4.4115706728    -1.6894350624    -3.0555526560
   16      H      -1.5135432361    -3.4702664447     1.9085986926
   17      H      -3.0690170483     4.0565318522     0.5946293492
   18      H      -3.2031386502    -2.6835836278    -2.2114308312
   19      H      -4.9343085727    -2.8133828690    -1.7612666763
   20      H      -0.9064036767    -3.4764258184     0.2227777907
   21      H      -2.6499952021    -3.7221145442     0.5652040969
   22      H      -2.9699061909     3.1770136393     2.8837027743
   23      C      -3.1266303304     2.7261797565    -1.7456333546
   24      H      -3.9436387867     2.2952463901    -2.3297995234
   25      H      -2.2066889756     2.5358161391    -2.3014826692
   26      H      -3.2832727908     3.8047958769    -1.6882011569
   27      H      -2.9207221046     0.7497835950     3.2675168525
   28      C       3.0220921002     0.3597689119     0.9979257496
   29      C       2.9683552417     0.8629917108    -0.3157825323
   30      C       3.1059082912    -1.1145715626     1.2497091372
   31      C       2.9006531274    -0.0760825690    -1.4786894203
   32      O       4.1066987067    -1.6742210080     0.5359784898
   33      O       2.4141925011    -1.7303052490     2.0233293061
   34      O       1.9641325172    -1.0287313599    -1.2758634826
   35      O       3.5567749797     0.0088367670    -2.4880963946
   36      C       1.8495615052    -2.0328114047    -2.2982006802
   37      C       4.2590874402    -3.0976781478     0.6752106553
   38      C       3.0395856204     1.2263743928     2.1050163436
   39      C       3.0072730640     2.5983426203     1.8496638172
   40      C       2.9563001418     3.0957921067     0.5542663222
   41      C       2.9375904357     2.2484638558    -0.5552085312
   42      H       1.5841278016    -1.5772937016    -3.2531974011
   43      H       4.4821552383    -3.3581250838     1.7109539475
   44      H       2.9266814261     4.1686732131     0.3969846041
   45      H       2.7925598243    -2.5714422670    -2.4090755763
   46      H       1.0613899017    -2.7012415082    -1.9589114214
   47      H       5.0892947977    -3.3642844575     0.0251330456
   48      H       3.3457032723    -3.6099731833     0.3675593518
   49      H       3.0257922836     3.2891550002     2.6860580292
   50      C       2.8690681441     2.8383211173    -1.9432780997
   51      H       2.0520596877     2.4073877509    -2.5274442685
   52      H       3.7890094988     2.6479574999    -2.4991274143
   53      H       2.7124256837     3.9169372378    -1.8858459020
   54      H       3.0749763698     0.8619249559     3.0698721074
 ----------------------------------------------------------------

   14   -1455.0896374738      9.72E-09 Convergence criterion met
 Total energy in the final basis set = -1455.08963747

                    Orbital Energies (a.u.)
 --------------------------------------------------------------

 Alpha MOs
 -- Occupied --
-19.176 -19.176 -19.173 -19.171 -19.120 -19.118 -19.118 -19.115
-10.312 -10.310 -10.309 -10.307 -10.233 -10.232 -10.229 -10.227
-10.209 -10.208 -10.205 -10.205 -10.205 -10.204 -10.191 -10.191
-10.189 -10.188 -10.188 -10.187 -10.173 -10.171  -1.120  -1.120
 -1.113  -1.111  -1.032  -1.029  -1.029  -1.026  -0.884  -0.883
 -0.799  -0.798  -0.793  -0.792  -0.745  -0.745  -0.729  -0.728
 -0.703  -0.702  -0.653  -0.652  -0.624  -0.624  -0.580  -0.578
 -0.574  -0.571  -0.547  -0.547  -0.519  -0.518  -0.512  -0.511
 -0.490  -0.490  -0.487  -0.487  -0.481  -0.479  -0.476  -0.475
 -0.470  -0.469  -0.445  -0.444  -0.433  -0.432  -0.430  -0.429
 -0.427  -0.426  -0.411  -0.410  -0.405  -0.403  -0.394  -0.393
 -0.382  -0.381  -0.376  -0.375  -0.368  -0.368  -0.363  -0.362
 -0.361  -0.360  -0.320  -0.320  -0.312  -0.310  -0.295  -0.294
 -0.292  -0.291  -0.267  -0.266  -0.262  -0.261

          Ground-State Mulliken Net Atomic Charges

     Atom                 Charge (a.u.)
  ----------------------------------------
      1 C                     0.457756
      2 C                     1.642040
      3 C                    -0.608276
      4 C                    -1.339146
      5 O                     0.094911
      6 O                    -0.182573
      7 O                     0.066560
      8 O                    -0.091119
      9 C                    -0.204814
     10 C                    -0.305118
     11 C                    -0.557346
     12 C                    -0.132124
     13 C                    -0.485679
     14 C                     0.162110
     15 H                     0.168104
     16 H                     0.191567
     17 H                     0.138513
     18 H                     0.175266
     19 H                     0.172047
     20 H                     0.119421
     21 H                     0.182679
     22 H                     0.185495
     23 C                    -0.545148
     24 H                     0.171624
     25 H                     0.186535
     26 H                     0.148257
     27 H                     0.184341
     28 C                     0.582224
     29 C                     1.409479
     30 C                    -0.830508
     31 C                    -0.895470
     32 O                     0.061816
     33 O                    -0.111597
     34 O                     0.096811
     35 O                    -0.163653
     36 C                    -0.301628
     37 C                    -0.200243
     38 C                    -0.629572
     39 C                    -0.130028
     40 C                    -0.509725
     41 C                     0.166618
     42 H                     0.186869
     43 H                     0.171387
     44 H                     0.140771
     45 H                     0.190287
     46 H                     0.123968
     47 H                     0.170441
     48 H                     0.171705
     49 H                     0.185848
     50 C                    -0.590017
     51 H                     0.187418
     52 H                     0.210512
     53 H                     0.138718
     54 H                     0.171683
  ----------------------------------------
  Sum of atomic charges =    -0.000000

                    Cartesian Multipole Moments
 -----------------------------------------------------------------
    Charge (ESU x 10^10)
                -0.0000
    Dipole Moment (Debye)
         X       0.2716      Y       0.3465      Z      -0.8419
       Tot       0.9500
    Quadrupole Moments (Debye-Ang)
        XX    -183.1504     XY      -7.0694     YY    -143.7338
        XZ      17.0659     YZ      14.1329     ZZ    -179.7010

 Total job time:  1494.31s(wall), 2974.14s(cpu)
        *  Thank you very much for using Q-Chem.  Have a nice day.  *
