 Q-Chem 5.0, Q-Chem, Inc., Pleasanton, CA (2017)
 Q-Chem 5.0.1 for Intel X86 EM64T Linux

User input:
--------------------------------------------------------------
$molecule
0  1
--
0  1
C        -0.54444000        -0.68370000        -0.06689000
C        -0.55709000        +0.71878000        +0.05493000
C        +0.74969000        -1.43776000        -0.09374000
C        +0.72843000        +1.48436000        +0.06598000
O        +1.53645000        -1.09176000        +0.94813000
O        +1.04702000        -2.28405000        -0.90088000
O        +1.53784000        +1.08301000        -0.93877000
O        +1.01035000        +2.37097000        +0.83478000
C        +2.83449000        +1.70121000        -0.99358000
C        +2.82316000        -1.73208000        +1.00475000
C        -1.74320000        -1.41616000        -0.12552000
C        -2.93952000        -0.70056000        -0.05285000
C        -2.95313000        +0.68255000        +0.06934000
C        -1.77161000        +1.42404000        +0.12810000
H        +2.73835000        +2.77989000        -1.12464000
H        +2.70778000        -2.81319000        +1.09555000
H        -3.90354000        +1.20325000        +0.11710000
H        +3.38998000        +1.50093000        -0.07544000
H        +3.33184000        +1.25269000        -1.85067000
H        +3.31095000        -1.32281000        +1.88650000
H        +3.39889000        -1.50934000        +0.10459000
H        -3.87892000        -1.24211000        -0.08988000
C        -1.83960000        +2.92746000        +0.24839000
C        -1.78103000        -2.92226000        -0.24590000
H        -1.39752000        -3.25223000        -1.21323000
H        -2.80572000        -3.28175000        -0.13627000
H        -1.16958000        -3.40777000        +0.51926000
H        -1.24214000        +3.42352000        -0.52065000
H        -1.45503000        +3.26427000        +1.21284000
H        -2.87211000        +3.26623000        +0.14638000
--
0  1
C        -0.50315000        -1.20685000        +5.91012000
C        -0.51580000        +0.19563000        +6.03194000
C        +0.79098000        -1.96091000        +5.88327000
C        +0.76972000        +0.96121000        +6.04299000
O        +1.57774000        -1.61491000        +6.92514000
O        +1.08831000        -2.80720000        +5.07613000
O        +1.57913000        +0.55986000        +5.03824000
O        +1.05164000        +1.84782000        +6.81179000
C        +2.87578000        +1.17806000        +4.98343000
C        +2.86445000        -2.25523000        +6.98176000
C        -1.70191000        -1.93931000        +5.85149000
C        -2.89823000        -1.22371000        +5.92416000
C        -2.91184000        +0.15940000        +6.04635000
C        -1.73032000        +0.90089000        +6.10511000
H        +2.77964000        +2.25674000        +4.85237000
H        +2.74907000        -3.33634000        +7.07256000
H        -3.86225000        +0.68010000        +6.09411000
H        +3.43127000        +0.97778000        +5.90157000
H        +3.37313000        +0.72954000        +4.12634000
H        +3.35224000        -1.84596000        +7.86351000
H        +3.44018000        -2.03249000        +6.08160000
H        -3.83763000        -1.76526000        +5.88713000
C        -1.79831000        +2.40431000        +6.22540000
C        -1.73974000        -3.44541000        +5.73111000
H        -1.35623000        -3.77538000        +4.76378000
H        -2.76443000        -3.80490000        +5.84074000
H        -1.12829000        -3.93092000        +6.49627000
H        -1.20085000        +2.90037000        +5.45636000
H        -1.41374000        +2.74112000        +7.18985000
H        -2.83082000        +2.74308000        +6.12339000
$end

$rem
JOBTYPE                   SP
METHOD                    B3LYP
DFT_D                     d3_op
BASIS                     6-311++G(d,p)
SYMMETRY                  False
THRESH                    12
SCF_CONVERGENCE           8
MAX_SUB_FILE_NUM          128
MEM_STATIC                400
MEM_TOTAL                 4000
$end
--------------------------------------------------------------

             Standard Nuclear Orientation (Angstroms)
    I     Atom           X                Y                Z
 ----------------------------------------------------------------
    1      C      -2.9797627318     0.4976527955     0.8262133917
    2      C      -3.0339307749     0.5654768656    -0.5789257487
    3      C      -2.8998873586    -0.8245125795     1.5259265534
    4      C      -3.1060569208    -0.6896549000    -1.3902447855
    5      O      -1.9017689404    -1.5823396060     1.0222816232
    6      O      -3.5922779345    -1.1655283224     2.4534988827
    7      O      -4.0450605706    -1.5282420497    -0.8995384873
    8      O      -2.4511510733    -0.9264278827    -2.3759660971
    9      C      -4.1640417807    -2.8010626721    -1.5569939865
   10      C      -1.7533356685    -2.8915491186     1.5991491703
   11      C      -2.9581372601     1.6666685309     1.6071712751
   12      C      -2.9868133348     2.8903043661     0.9360238572
   13      C      -3.0382078198     2.9583552189    -0.4499186340
   14      C      -3.0609966364     1.8069109884    -1.2391629067
   15      H      -4.4295258282    -2.6658163330    -2.6063732381
   16      H      -1.5295309205    -2.8161272546     2.6643153515
   17      H      -3.0649214257     3.9285007769    -0.9344727127
   18      H      -3.2227815407    -3.3504123561    -1.4944930790
   19      H      -4.9536699293    -3.3275055778    -1.0255095231
   20      H      -0.9248517013    -3.3505653701     1.0645067885
   21      H      -2.6686558727    -3.4713635849     1.4673528329
   22      H      -2.9650670940     3.8077601889     1.5147482282
   23      C      -3.1298046753     1.9338516044    -2.7419987441
   24      C      -2.8901041393     1.6453566208     3.1168656019
   25      H      -3.8049884861     1.2355767926     3.5490167030
   26      H      -2.7463772699     2.6570917094     3.5002402107
   27      H      -2.0645107868     1.0270120702     3.4789519469
   28      H      -3.9489122021     1.3446360743    -3.1619325667
   29      H      -2.2112282453     1.5764083109    -3.2109875475
   30      H      -3.2832139477     2.9769287114    -3.0243173535
   31      C       3.0159453700     0.5231001244     0.6006560412
   32      C       2.9617773268     0.5909241945    -0.8044830992
   33      C       3.0958207432    -0.7990652506     1.3003692030
   34      C       2.8896511810    -0.6642075711    -1.6158021360
   35      O       4.0939391614    -1.5568922771     0.7967242728
   36      O       2.4034301673    -1.1400809936     2.2279415323
   37      O       1.9506475312    -1.5027947208    -1.1250958377
   38      O       3.5445570285    -0.9009805538    -2.6015234476
   39      C       1.8316663211    -2.7756153432    -1.7825513369
   40      C       4.2423724333    -2.8661017897     1.3735918198
   41      C       3.0375708416     1.6921158597     1.3816139246
   42      C       3.0088947670     2.9157516950     0.7104665067
   43      C       2.9575002820     2.9838025478    -0.6754759844
   44      C       2.9347114654     1.8323583173    -1.4647202571
   45      H       1.5661822736    -2.6403690042    -2.8319305886
   46      H       4.4661771813    -2.7906799257     2.4387580010
   47      H       2.9307866761     3.9539481058    -1.1600300632
   48      H       2.7729265611    -3.3249650272    -1.7200504295
   49      H       1.0420381725    -3.3020582489    -1.2510668736
   50      H       5.0708564005    -3.3251180412     0.8389494380
   51      H       3.3270522291    -3.4459162560     1.2417954825
   52      H       3.0306410078     3.8332075178     1.2891908777
   53      C       2.8659034265     1.9592989333    -2.9675560946
   54      C       3.1056039625     1.6708039497     2.8913082514
   55      H       2.1907196157     1.2610241214     3.3234593525
   56      H       3.2493308319     2.6825390383     3.2746828602
   57      H       3.9311973150     1.0524593991     3.2533945964
   58      H       2.0467958996     1.3700834032    -3.3874899172
   59      H       3.7844798565     1.6018556398    -3.4365448980
   60      H       2.7124941541     3.0023760403    -3.2498747040
 ----------------------------------------------------------------

   14   -1533.7554089139      9.44E-09 Convergence criterion met
 Total energy in the final basis set = -1533.75540891

                    Orbital Energies (a.u.)
 --------------------------------------------------------------

 Alpha MOs
 -- Occupied --
-19.175 -19.175 -19.172 -19.171 -19.118 -19.118 -19.116 -19.115
-10.310 -10.309 -10.307 -10.307 -10.232 -10.231 -10.228 -10.227
-10.203 -10.202 -10.202 -10.202 -10.199 -10.199 -10.198 -10.198
-10.184 -10.184 -10.184 -10.184 -10.170 -10.169 -10.167 -10.167
 -1.119  -1.118  -1.111  -1.111  -1.030  -1.030  -1.027  -1.026
 -0.883  -0.882  -0.805  -0.804  -0.793  -0.793  -0.744  -0.744
 -0.732  -0.732  -0.722  -0.722  -0.673  -0.672  -0.647  -0.646
 -0.618  -0.618  -0.575  -0.575  -0.563  -0.562  -0.535  -0.534
 -0.515  -0.514  -0.512  -0.512  -0.489  -0.489  -0.486  -0.485
 -0.478  -0.477  -0.475  -0.474  -0.467  -0.467  -0.441  -0.440
 -0.432  -0.432  -0.428  -0.427  -0.418  -0.418  -0.414  -0.413
 -0.409  -0.409  -0.403  -0.403  -0.394  -0.393  -0.385  -0.385
 -0.378  -0.377  -0.371  -0.370  -0.360  -0.359  -0.356  -0.356
 -0.355  -0.354  -0.319  -0.318  -0.310  -0.310  -0.292  -0.292
 -0.289  -0.289  -0.264  -0.263  -0.251  -0.250

          Ground-State Mulliken Net Atomic Charges

     Atom                 Charge (a.u.)
  ----------------------------------------
      1 C                     0.548867
      2 C                     0.861430
      3 C                    -0.726898
      4 C                    -1.083775
      5 O                     0.117846
      6 O                    -0.157759
      7 O                     0.062416
      8 O                    -0.090722
      9 C                    -0.197168
     10 C                    -0.297763
     11 C                     0.534042
     12 C                    -0.481144
     13 C                    -0.489811
     14 C                     0.378187
     15 H                     0.167501
     16 H                     0.184539
     17 H                     0.151950
     18 H                     0.173141
     19 H                     0.171863
     20 H                     0.121113
     21 H                     0.186947
     22 H                     0.148464
     23 C                    -0.652904
     24 C                    -0.662470
     25 H                     0.210336
     26 H                     0.136363
     27 H                     0.187645
     28 H                     0.171155
     29 H                     0.187253
     30 H                     0.139759
     31 C                     0.849540
     32 C                     0.536935
     33 C                    -1.147728
     34 C                    -0.670799
     35 O                     0.077461
     36 O                    -0.079595
     37 O                     0.098333
     38 O                    -0.160767
     39 C                    -0.296892
     40 C                    -0.198744
     41 C                     0.387024
     42 C                    -0.475518
     43 C                    -0.483878
     44 C                     0.541716
     45 H                     0.186622
     46 H                     0.167017
     47 H                     0.148037
     48 H                     0.189419
     49 H                     0.120422
     50 H                     0.169622
     51 H                     0.172750
     52 H                     0.152839
     53 C                    -0.650370
     54 C                    -0.665359
     55 H                     0.187797
     56 H                     0.140840
     57 H                     0.170999
     58 H                     0.187137
     59 H                     0.209409
     60 H                     0.135331
  ----------------------------------------
  Sum of atomic charges =    -0.000000

                    Cartesian Multipole Moments
 -----------------------------------------------------------------
    Charge (ESU x 10^10)
                -0.0000
    Dipole Moment (Debye)
         X       0.1794      Y      -0.1181      Z       0.1862
       Tot       0.2842
    Quadrupole Moments (Debye-Ang)
        XX    -195.8586     XY      -1.3463     YY    -153.7255
        XZ      17.7862     YZ       1.7219     ZZ    -195.4917

 Total job time:  2114.89s(wall), 4208.26s(cpu)
        *  Thank you very much for using Q-Chem.  Have a nice day.  *
