 Q-Chem 5.0, Q-Chem, Inc., Pleasanton, CA (2017)
 Q-Chem 5.0.1 for Intel X86 EM64T Linux

User input:
--------------------------------------------------------------
$molecule
0  1
C        -0.50315000        -1.20685000        +5.91012000
C        -0.51580000        +0.19563000        +6.03194000
C        +0.79098000        -1.96091000        +5.88327000
C        +0.76972000        +0.96121000        +6.04299000
O        +1.57774000        -1.61491000        +6.92514000
O        +1.08831000        -2.80720000        +5.07613000
O        +1.57913000        +0.55986000        +5.03824000
O        +1.05164000        +1.84782000        +6.81179000
C        +2.87578000        +1.17806000        +4.98343000
C        +2.86445000        -2.25523000        +6.98176000
C        -1.70191000        -1.93931000        +5.85149000
C        -2.89823000        -1.22371000        +5.92416000
C        -2.91184000        +0.15940000        +6.04635000
C        -1.73032000        +0.90089000        +6.10511000
H        +2.77964000        +2.25674000        +4.85237000
H        +2.74907000        -3.33634000        +7.07256000
H        -3.86225000        +0.68010000        +6.09411000
H        +3.43127000        +0.97778000        +5.90157000
H        +3.37313000        +0.72954000        +4.12634000
H        +3.35224000        -1.84596000        +7.86351000
H        +3.44018000        -2.03249000        +6.08160000
H        -3.83763000        -1.76526000        +5.88713000
C        -1.79831000        +2.40431000        +6.22540000
C        -1.73974000        -3.44541000        +5.73111000
H        -1.35623000        -3.77538000        +4.76378000
H        -2.76443000        -3.80490000        +5.84074000
H        -1.12829000        -3.93092000        +6.49627000
H        -1.20085000        +2.90037000        +5.45636000
H        -1.41374000        +2.74112000        +7.18985000
H        -2.83082000        +2.74308000        +6.12339000
@C        -0.54444000        -0.68370000        -0.06689000
@C        -0.55709000        +0.71878000        +0.05493000
@C        +0.74969000        -1.43776000        -0.09374000
@C        +0.72843000        +1.48436000        +0.06598000
@O        +1.53645000        -1.09176000        +0.94813000
@O        +1.04702000        -2.28405000        -0.90088000
@O        +1.53784000        +1.08301000        -0.93877000
@O        +1.01035000        +2.37097000        +0.83478000
@C        +2.83449000        +1.70121000        -0.99358000
@C        +2.82316000        -1.73208000        +1.00475000
@C        -1.74320000        -1.41616000        -0.12552000
@C        -2.93952000        -0.70056000        -0.05285000
@C        -2.95313000        +0.68255000        +0.06934000
@C        -1.77161000        +1.42404000        +0.12810000
@H        +2.73835000        +2.77989000        -1.12464000
@H        +2.70778000        -2.81319000        +1.09555000
@H        -3.90354000        +1.20325000        +0.11710000
@H        +3.38998000        +1.50093000        -0.07544000
@H        +3.33184000        +1.25269000        -1.85067000
@H        +3.31095000        -1.32281000        +1.88650000
@H        +3.39889000        -1.50934000        +0.10459000
@H        -3.87892000        -1.24211000        -0.08988000
@C        -1.83960000        +2.92746000        +0.24839000
@C        -1.78103000        -2.92226000        -0.24590000
@H        -1.39752000        -3.25223000        -1.21323000
@H        -2.80572000        -3.28175000        -0.13627000
@H        -1.16958000        -3.40777000        +0.51926000
@H        -1.24214000        +3.42352000        -0.52065000
@H        -1.45503000        +3.26427000        +1.21284000
@H        -2.87211000        +3.26623000        +0.14638000
$end

$rem
JOBTYPE                   SP
METHOD                    B3LYP
DFT_D                     d3_op
BASIS                     6-311++G(d,p)
SYMMETRY                  False
THRESH                    12
SCF_CONVERGENCE           8
MAX_SUB_FILE_NUM          128
MEM_STATIC                400
MEM_TOTAL                 4000
$end
--------------------------------------------------------------

             Standard Nuclear Orientation (Angstroms)
    I     Atom           X                Y                Z
 ----------------------------------------------------------------
    1      C      -0.5031500000    -1.2068500000     5.9101200000
    2      C      -0.5158000000     0.1956300000     6.0319400000
    3      C       0.7909800000    -1.9609100000     5.8832700000
    4      C       0.7697200000     0.9612100000     6.0429900000
    5      O       1.5777400000    -1.6149100000     6.9251400000
    6      O       1.0883100000    -2.8072000000     5.0761300000
    7      O       1.5791300000     0.5598600000     5.0382400000
    8      O       1.0516400000     1.8478200000     6.8117900000
    9      C       2.8757800000     1.1780600000     4.9834300000
   10      C       2.8644500000    -2.2552300000     6.9817600000
   11      C      -1.7019100000    -1.9393100000     5.8514900000
   12      C      -2.8982300000    -1.2237100000     5.9241600000
   13      C      -2.9118400000     0.1594000000     6.0463500000
   14      C      -1.7303200000     0.9008900000     6.1051100000
   15      H       2.7796400000     2.2567400000     4.8523700000
   16      H       2.7490700000    -3.3363400000     7.0725600000
   17      H      -3.8622500000     0.6801000000     6.0941100000
   18      H       3.4312700000     0.9777800000     5.9015700000
   19      H       3.3731300000     0.7295400000     4.1263400000
   20      H       3.3522400000    -1.8459600000     7.8635100000
   21      H       3.4401800000    -2.0324900000     6.0816000000
   22      H      -3.8376300000    -1.7652600000     5.8871300000
   23      C      -1.7983100000     2.4043100000     6.2254000000
   24      C      -1.7397400000    -3.4454100000     5.7311100000
   25      H      -1.3562300000    -3.7753800000     4.7637800000
   26      H      -2.7644300000    -3.8049000000     5.8407400000
   27      H      -1.1282900000    -3.9309200000     6.4962700000
   28      H      -1.2008500000     2.9003700000     5.4563600000
   29      H      -1.4137400000     2.7411200000     7.1898500000
   30      H      -2.8308200000     2.7430800000     6.1233900000
   31      GH     -0.5444400000    -0.6837000000    -0.0668900000
   32      GH     -0.5570900000     0.7187800000     0.0549300000
   33      GH      0.7496900000    -1.4377600000    -0.0937400000
   34      GH      0.7284300000     1.4843600000     0.0659800000
   35      GH      1.5364500000    -1.0917600000     0.9481300000
   36      GH      1.0470200000    -2.2840500000    -0.9008800000
   37      GH      1.5378400000     1.0830100000    -0.9387700000
   38      GH      1.0103500000     2.3709700000     0.8347800000
   39      GH      2.8344900000     1.7012100000    -0.9935800000
   40      GH      2.8231600000    -1.7320800000     1.0047500000
   41      GH     -1.7432000000    -1.4161600000    -0.1255200000
   42      GH     -2.9395200000    -0.7005600000    -0.0528500000
   43      GH     -2.9531300000     0.6825500000     0.0693400000
   44      GH     -1.7716100000     1.4240400000     0.1281000000
   45      GH      2.7383500000     2.7798900000    -1.1246400000
   46      GH      2.7077800000    -2.8131900000     1.0955500000
   47      GH     -3.9035400000     1.2032500000     0.1171000000
   48      GH      3.3899800000     1.5009300000    -0.0754400000
   49      GH      3.3318400000     1.2526900000    -1.8506700000
   50      GH      3.3109500000    -1.3228100000     1.8865000000
   51      GH      3.3988900000    -1.5093400000     0.1045900000
   52      GH     -3.8789200000    -1.2421100000    -0.0898800000
   53      GH     -1.8396000000     2.9274600000     0.2483900000
   54      GH     -1.7810300000    -2.9222600000    -0.2459000000
   55      GH     -1.3975200000    -3.2522300000    -1.2132300000
   56      GH     -2.8057200000    -3.2817500000    -0.1362700000
   57      GH     -1.1695800000    -3.4077700000     0.5192600000
   58      GH     -1.2421400000     3.4235200000    -0.5206500000
   59      GH     -1.4550300000     3.2642700000     1.2128400000
   60      GH     -2.8721100000     3.2662300000     0.1463800000
 ----------------------------------------------------------------

   14    -766.8766928026      5.95E-09 Convergence criterion met
 Total energy in the final basis set = -766.87669280

                    Orbital Energies (a.u.)
 --------------------------------------------------------------

 Alpha MOs
 -- Occupied --
-19.176 -19.176 -19.119 -19.119 -10.311 -10.311 -10.232 -10.232
-10.205 -10.205 -10.201 -10.201 -10.187 -10.186 -10.171 -10.170
 -1.121  -1.114  -1.031  -1.030  -0.885  -0.807  -0.795  -0.747
 -0.734  -0.725  -0.675  -0.649  -0.620  -0.577  -0.565  -0.537
 -0.517  -0.515  -0.491  -0.489  -0.480  -0.477  -0.469  -0.442
 -0.434  -0.429  -0.420  -0.416  -0.411  -0.406  -0.396  -0.387
 -0.380  -0.373  -0.362  -0.359  -0.357  -0.321  -0.313  -0.293
 -0.292  -0.266  -0.253

          Ground-State Mulliken Net Atomic Charges

     Atom                 Charge (a.u.)
  ----------------------------------------
      1 C                     0.821560
      2 C                     0.521850
      3 C                    -1.135622
      4 C                    -0.673863
      5 O                     0.076294
      6 O                    -0.072585
      7 O                     0.092033
      8 O                    -0.157206
      9 C                    -0.304221
     10 C                    -0.199119
     11 C                     0.382783
     12 C                    -0.469071
     13 C                    -0.481614
     14 C                     0.545931
     15 H                     0.183539
     16 H                     0.167187
     17 H                     0.150269
     18 H                     0.191239
     19 H                     0.123695
     20 H                     0.169231
     21 H                     0.175534
     22 H                     0.154732
     23 C                    -0.643006
     24 C                    -0.657099
     25 H                     0.193444
     26 H                     0.141331
     27 H                     0.171303
     28 H                     0.182027
     29 H                     0.210232
     30 H                     0.137418
     31 GH                   -0.000796
     32 GH                    0.020605
     33 GH                    0.007804
     34 GH                   -0.015422
     35 GH                   -0.000423
     36 GH                   -0.000084
     37 GH                    0.000030
     38 GH                    0.001491
     39 GH                   -0.001497
     40 GH                   -0.007005
     41 GH                   -0.005360
     42 GH                    0.000579
     43 GH                   -0.002137
     44 GH                   -0.000843
     45 GH                    0.000030
     46 GH                   -0.000667
     47 GH                   -0.000291
     48 GH                    0.000872
     49 GH                   -0.000070
     50 GH                    0.014318
     51 GH                    0.000165
     52 GH                   -0.000727
     53 GH                   -0.003109
     54 GH                   -0.003726
     55 GH                    0.000024
     56 GH                    0.000190
     57 GH                    0.000019
     58 GH                   -0.000038
     59 GH                   -0.002149
     60 GH                   -0.000008
  ----------------------------------------
  Sum of atomic charges =    -0.000000

                    Cartesian Multipole Moments
 -----------------------------------------------------------------
    Charge (ESU x 10^10)
                -0.0000
    Dipole Moment (Debye)
         X       0.0694      Y      -0.1073      Z       0.0578
       Tot       0.1403
    Quadrupole Moments (Debye-Ang)
        XX     -76.1375     XY      -0.1197     YY     -95.3156
        XZ       0.5532     YZ      -9.6200     ZZ     -98.8175

 Total job time:  2012.32s(wall), 4003.10s(cpu)
        *  Thank you very much for using Q-Chem.  Have a nice day.  *
