 Q-Chem 5.0, Q-Chem, Inc., Pleasanton, CA (2017)
 Q-Chem 5.0.1 for Intel X86 EM64T Linux

User input:
--------------------------------------------------------------
$molecule
0 1
C -0.55564553 -0.93020643 0.46474262
C -0.62163588 0.60679546 0.78631068
C 0.77597809 -1.45844191 -0.03981196
C 0.60733030 1.44303817 0.49298740
O 1.75964129 -1.15962883 0.83565728
O 0.94355977 -2.11166720 -1.03736003
O 1.10774803 1.20593789 -0.73248944
O 1.05166109 2.27345475 1.24948289
C 2.26409863 1.97205248 -1.11068311
C 3.08551068 -1.57534265 0.46196117
C -1.70275096 -1.08457286 -0.56125363
C -3.05827931 -1.01300320 0.17532544
C -3.13950629 0.50972904 0.50404317
C -1.82394730 1.01687763 -0.12917840
O -1.66530932 0.16651367 -1.26625504
H -0.76226996 -1.49165464 1.38039465
H -0.84729322 0.78140022 1.83661098
H 2.03470724 3.03856676 -1.10534791
H 3.36305803 -1.12920562 -0.49439701
H -1.56655442 -1.90492724 -1.25941933
H -3.86545018 -1.31886326 -0.49129817
H -3.08966771 -1.64873338 1.06246837
H -3.99544426 0.97809904 0.01609812
H -3.20088834 0.72183335 1.57306552
H -1.82094946 2.05922176 -0.44149047
H 3.08833353 1.78075768 -0.42119883
H 2.51438917 1.63742910 -2.11475021
H 3.13757462 -2.66195512 0.37896133
H 3.73608018 -1.21857904 1.25712823
$end

$rem
sym_ignore      true
jobtype         opt
method          b3lyp
basis           6-311++G(d,p)
dft_d           d3_op
mem_total       62000
MEM_STATIC      4000
ao2mo_disk      350000
max_scf_cycles  200
geom_opt_max_cycles 1000
geom_opt_tol_displacement 1
GEOM_OPT_TOL_GRADIENT       1
GEOM_OPT_TOL_ENERGY         1
$end

--------------------------------------------------------------

   15    -765.8626255841      3.40E-09 Convergence criterion met
 Total energy in the final basis set = -765.86262558
   11    -765.8626278499      3.18E-09 Convergence criterion met
 Total energy in the final basis set = -765.86262785
   11    -765.8626293223      2.91E-09 Convergence criterion met
 Total energy in the final basis set = -765.86262932
   11    -765.8626235334      7.94E-09 Convergence criterion met
 Total energy in the final basis set = -765.86262353
   11    -765.8626388610      3.85E-09 Convergence criterion met
 Total energy in the final basis set = -765.86263886
    9    -765.8626392032      7.42E-09 Convergence criterion met
 Total energy in the final basis set = -765.86263920
   11    -765.8626390640      2.71E-09 Convergence criterion met
 Total energy in the final basis set = -765.86263906
    9    -765.8626402224      6.48E-09 Convergence criterion met
 Total energy in the final basis set = -765.86264022
    8    -765.8626402379      9.39E-09 Convergence criterion met
 Total energy in the final basis set = -765.86264024
    8    -765.8626401420      5.09E-09 Convergence criterion met
 Total energy in the final basis set = -765.86264014
    8    -765.8626401326      2.60E-09 Convergence criterion met
 Total energy in the final basis set = -765.86264013
    6    -765.8626401361      4.73E-09 Convergence criterion met
 Total energy in the final basis set = -765.86264014
    5    -765.8626401335      6.72E-09 Convergence criterion met
 Total energy in the final basis set = -765.86264013
 Final energy is   -765.862640133548
 **  OPTIMIZATION CONVERGED  **
 Total job time:  565.43s(wall), 9563.65s(cpu)
        *  Thank you very much for using Q-Chem.  Have a nice day.  *

User input: 2 of 2

r0112.ten.osc.edu 10.25.153
Q-Chem Developer Version! Running on 10.25.153.*
                  Welcome to Q-Chem
     A Quantum Leap Into The Future Of Chemistry

 Q-Chem 5.0, Q-Chem, Inc., Pleasanton, CA (2017)

 Yihan Shao,  Zhengting Gan,  E. Epifanovsky,  A. T. B. Gilbert,  M. Wormit,
 J. Kussmann,  A. W. Lange,  A. Behn,  Jia Deng,  Xintian Feng,  D. Ghosh,
 M. Goldey,  P. R. Horn,  L. D. Jacobson,  I. Kaliman,  T. Kus,  A. Landau,
 Jie Liu,  E. I. Proynov,  R. M. Richard,  R. P. Steele,  E. J. Sundstrom,
 H. L. Woodcock III,  P. M. Zimmerman,  D. Zuev,  B. Albrecht,  E. Alguire,
 S. A. Baeppler,  Z. Benda,  Y. A. Bernard,  E. J. Berquist,  K. B. Bravaya,
 D. Casanova,  Chun-Min Chang,  Yunqing Chen,  A. Chien,  K. D. Closser,
 M. P. Coons,  S. Dasgupta,  M. Diedenhofen,  Hainam Do,  R. G. Edgar,
 Po-Tung Fang,  S. Fatehi,  Qingguo Feng,  Qinghui Ge,  A. Ghysels,
 J. Gomes,  J. Gonthier,  A. Gunina,  M. W. D. Hanson-Heine,
 P. H. P. Harbach,  A. W. Hauser,  J. E. Herr,  E. G. Hohenstein,
 Z. C. Holden,  Kerwin Hui,  T.-C. Jagau,  Hyunjun Ji,  B. Kaduk,
 K. Khistyaev,  Jaehoon Kim,  P. Klunzinger,  K. Koh,  D. Kosenkov,
 T. Kowalczyk,  C. M. Krauter,  A. Kunitsa,  Ka Un Lao,  A. Laurent,
 K. V. Lawler,  Joonho Lee,  D. Lefrancois,  S. Lehtola,  D. S. Levine,
 Yi-Pei Li,  You-Sheng Lin,  Fenglai Liu,  E. Livshits,  A. Luenser,
 P. Manohar,  E. Mansoor,  S. F. Manzer,  Shan-Ping Mao,  Yuezhi Mao,
 N. Mardirossian,  A. V. Marenich,  L. A. Martinez-Martinez,  S. A. Maurer,
 N. J. Mayhall,  S. C. McKenzie,  J.-M. Mewes,  A. F. Morrison,  K. Nanda,
 T. S. Nguyen-Beck,  R. Olivares-Amaya,  J. A. Parkhill,  T. M. Perrine,
 F. Plasser,  S. Prager,  A. Prociuk,  D. R. Rehn,  F. Rob,  M. Schneider,
 N. Sergueev,  S. M. Sharada,  S. Sharma,  D. W. Small,  T. Stauch,
 T. Stein,  Yu-Chuan Su,  A. J. W. Thom,  T. Tsuchimochi,  L. Vogt,
 O. Vydrov,  M. A. Watson,  J. Wenzel,  M. de Wergifosse,  T. A. Wesolowski,
 A. White,  J. Witte,  A. Yamada,  Jun Yang,  K. Yao,  S. Yeganeh,
 S. R. Yost,  Zhi-Qiang You,  A. Zech,  Igor Ying Zhang,  Xing Zhang,
 Yan Zhao,  Ying Zhu,  B. R. Brooks,  G. K. L. Chan,  C. J. Cramer,
 M. S. Gordon,  W. J. Hehre,  A. Klamt,  M. W. Schmidt,  C. D. Sherrill,
 D. G. Truhlar,  A. Aspuru-Guzik,  R. Baer,  A. T. Bell,  N. A. Besley,
 Jeng-Da Chai,  A. Dreuw,  B. D. Dunietz,  T. R. Furlani,  Chao-Ping Hsu,
 Yousung Jung,  Jing Kong,  D. S. Lambrecht,  WanZhen Liang,  C. Ochsenfeld,
 V. A. Rassolov,  L. V. Slipchenko,  J. E. Subotnik,  T. Van Voorhis,
 J. M. Herbert,  A. I. Krylov,  P. M. W. Gill,  M. Head-Gordon

 Contributors to earlier versions of Q-Chem not listed above:
 R. D. Adamson,  B. Austin,  J. Baker,  G. J. O. Beran,  K. Brandhorst,
 S. T. Brown,  E. F. C. Byrd,  A. K. Chakraborty,  C.-L. Cheng,
 Siu Hung Chien,  D. M. Chipman,  D. L. Crittenden,  H. Dachsel,
 R. A. DiStasio Jr.,  R. J. Doerksen,  A. D. Dutoi,  L. Fusti-Molnar,
 W. A. Goddard III,  A. Golubeva-Zadorozhnaya,  S. R. Gwaltney,  G. Hawkins,
 A. Heyden,  S. Hirata,  G. Kedziora,  F. J. Keil,  C. Kelley,  Jihan Kim,
 R. A. King,  R. Z. Khaliullin,  P. P. Korambath,  W. Kurlancheek,
 A. M. Lee,  M. S. Lee,  S. V. Levchenko,  Ching Yeh Lin,  D. Liotard,
 R. C. Lochan,  I. Lotan,  P. E. Maslen,  N. Nair,  D. P. O'Neill,
 D. Neuhauser,  E. Neuscamman,  C. M. Oana,  R. Olson,  B. Peters,
 R. Peverati,  P. A. Pieniazek,  Y. M. Rhee,  J. Ritchie,  M. A. Rohrdanz,
 E. Rosta,  N. J. Russ,  H. F. Schaefer III,  N. E. Schultz,  N. Shenvi,
 A. C. Simmonett,  A. Sodt,  D. Stuck,  K. S. Thanthiriwatte,  V. Vanovschi,
 Tao Wang,  A. Warshel,  C. F. Williams,  Q. Wu,  X. Xu,  W. Zhang

 Please cite Q-Chem as follows:
 Y. Shao et al., Mol. Phys. 113, 184-215 (2015)
 DOI: 10.1080/00268976.2014.952696

 Q-Chem 5.0.1 for Intel X86 EM64T Linux

 Parts of Q-Chem use Armadillo 5.200.1 (Boston Tea Smuggler).
 http://arma.sourceforge.net/

 Q-Chem begins on Sat Oct 14 17:17:02 2017

Host: r0112.ten.osc.edu
0

     Scratch files written to /tmp/pbstmp.1310443/02//
Processing $rem in /users/PAS0291/osu6415/.qchemrc.
molden_format             true
The previous job contains 0 fragments, simply inherited here

Checking the input file for inconsistencies... 	...done.

--------------------------------------------------------------
User input:
--------------------------------------------------------------

$molecule
read
$end

$rem
sym_ignore      true
scf_guess       read
jobtype         freq
method          b3lyp
basis           6-311++G(d,p)
dft_d           d3_op
mem_total       62000
MEM_STATIC      4000
ao2mo_disk      350000
max_scf_cycles  200
$end
--------------------------------------------------------------

             Standard Nuclear Orientation (Angstroms)
    I     Atom           X                Y                Z
 ----------------------------------------------------------------
    1      C      -0.5559744263    -0.9328131268     0.4723475122
    2      C      -0.6276749326     0.6076098161     0.7812259283
    3      C       0.7743545686    -1.4555119764    -0.0420244760
    4      C       0.6088955913     1.4369112257     0.5015785241
    5      O       1.7619199276    -1.1598151892     0.8301012937
    6      O       0.9393215288    -2.0981484204    -1.0467777899
    7      O       1.0978045418     1.2240379972    -0.7332454137
    8      O       1.0727847943     2.2379511470     1.2775528334
    9      C       2.2671707972     1.9772761797    -1.0968105366
   10      C       3.0869322700    -1.5695431889     0.4465990077
   11      C      -1.7062909588    -1.0981765630    -0.5476182132
   12      C      -3.0604071225    -1.0120313668     0.1908472581
   13      C      -3.1431255315     0.5174552923     0.4864198367
   14      C      -1.8224855573     1.0096223504    -0.1472040061
   15      O      -1.6640216823     0.1419811300    -1.2711320162
   16      H      -0.7536161650    -1.4884405687     1.3933269406
   17      H      -0.8646191303     0.7867520714     1.8282773793
   18      H       2.0584700038     3.0475660129    -1.0645136271
   19      H       3.3572036314    -1.1186555155    -0.5095594401
   20      H      -1.5746477160    -1.9286928552    -1.2345430988
   21      H      -3.8700182139    -1.3348016114    -0.4647039624
   22      H      -3.0867324597    -1.6277173466     1.0922646592
   23      H      -3.9937177600     0.9753770735    -0.0204398695
   24      H      -3.2147471258     0.7531018954     1.5498809340
   25      H      -1.8135034235     2.0472715131    -0.4746187634
   26      H       3.0899402285     1.7532080032    -0.4154709506
   27      H       2.5078642597     1.6627948816    -2.1097225962
   28      H       3.1418955241    -2.6556386615     0.3588979262
   29      H       3.7411030486    -1.2140045791     1.2393690364
 ----------------------------------------------------------------

    2    -765.8626401352      3.47E-09 Convergence criterion met
 Total energy in the final basis set = -765.86264014

                    Orbital Energies (a.u.)
 --------------------------------------------------------------

 Alpha MOs
 -- Occupied --
-19.177 -19.174 -19.132 -19.120 -19.116 -10.310 -10.307 -10.239
-10.232 -10.231 -10.230 -10.208 -10.207 -10.183 -10.182  -1.121
 -1.114  -1.065  -1.032  -1.028  -0.833  -0.786  -0.777  -0.739
 -0.730  -0.659  -0.608  -0.598  -0.578  -0.567  -0.551  -0.520
 -0.506  -0.496  -0.490  -0.484  -0.476  -0.473  -0.463  -0.432
 -0.427  -0.425  -0.411  -0.399  -0.385  -0.376  -0.372  -0.368
 -0.363  -0.359  -0.339  -0.338  -0.320  -0.314  -0.291  -0.283
 -0.275

          Ground-State Mulliken Net Atomic Charges

     Atom                 Charge (a.u.)
  ----------------------------------------
      1 C                    -0.011490
      2 C                     0.625235
      3 C                    -0.551246
      4 C                    -0.723698
      5 O                    -0.025949
      6 O                    -0.208207
      7 O                    -0.029198
      8 O                    -0.177770
      9 C                    -0.224459
     10 C                    -0.208823
     11 C                    -0.082281
     12 C                    -0.429612
     13 C                    -0.532164
     14 C                    -0.017105
     15 O                    -0.134492
     16 H                     0.236087
     17 H                     0.285462
     18 H                     0.175795
     19 H                     0.182841
     20 H                     0.277250
     21 H                     0.187753
     22 H                     0.125971
     23 H                     0.184744
     24 H                     0.122337
     25 H                     0.257203
     26 H                     0.185934
     27 H                     0.170342
     28 H                     0.174755
     29 H                     0.164783
  ----------------------------------------
  Sum of atomic charges =     0.000000

                    Cartesian Multipole Moments
 -----------------------------------------------------------------
    Charge (ESU x 10^10)
                 0.0000
    Dipole Moment (Debye)
         X      -0.1606      Y      -0.5177      Z       1.1357
       Tot       1.2584
    Quadrupole Moments (Debye-Ang)
        XX     -74.3441     XY      -0.6492     YY     -91.1424
        XZ      -5.6648     YZ     -10.0561     ZZ     -95.5353

 Frequency:        39.53                  56.07                  76.04
 Force Cnst:      0.0048                 0.0075                 0.0114
 Red. Mass:       5.2290                 4.0718                 3.3546
 IR Intens:        2.292                  0.622                  0.014
 Frequency:        79.82                  94.23                 134.52
 Force Cnst:      0.0256                 0.0127                 0.0319
 Red. Mass:       6.8253                 2.4243                 2.9959
 IR Intens:        0.855                  4.032                  2.656
 Frequency:       139.84                 147.12                 176.82
 Force Cnst:      0.0153                 0.0147                 0.0690
 Red. Mass:       1.3259                 1.1523                 3.7460
 IR Intens:        0.493                  0.205                  0.749
 Frequency:       229.40                 248.45                 277.85
 Force Cnst:      0.1600                 0.1395                 0.2187
 Red. Mass:       5.1614                 3.8364                 4.8089
 IR Intens:        0.790                  8.313                  4.896
 Frequency:       293.05                 325.67                 339.50
 Force Cnst:      0.1459                 0.2188                 0.2512
 Red. Mass:       2.8838                 3.5008                 3.6986
 IR Intens:        4.856                  2.918                  2.727
 Frequency:       381.50                 460.63                 565.77
 Force Cnst:      0.6677                 0.7579                 0.7455
 Red. Mass:       7.7867                 6.0622                 3.9531
 IR Intens:       13.608                  9.764                 23.075
 Frequency:       627.66                 655.21                 709.49
 Force Cnst:      1.4266                 1.0809                 1.8525
 Red. Mass:       6.1462                 4.2734                 6.2462
 IR Intens:        9.958                  1.414                  2.628
 Frequency:       731.37                 800.25                 809.81
 Force Cnst:      1.7926                 1.8246                 0.9395
 Red. Mass:       5.6879                 4.8357                 2.4315
 IR Intens:        6.280                 19.718                  6.121
 Frequency:       825.61                 839.44                 861.29
 Force Cnst:      2.0632                 0.9513                 2.2696
 Red. Mass:       5.1375                 2.2913                 5.1928
 IR Intens:        8.424                  6.377                  1.116
 Frequency:       891.49                 902.94                 916.89
 Force Cnst:      1.5371                 1.3873                 1.5632
 Red. Mass:       3.2826                 2.8881                 3.1560
 IR Intens:        0.221                  3.661                  9.226
 Frequency:       938.86                 953.99                 969.12
 Force Cnst:      1.5764                 1.5927                 2.2715
 Red. Mass:       3.0355                 2.9703                 4.1049
 IR Intens:       34.246                  4.541                 19.041
 Frequency:       981.51                1023.50                1030.59
 Force Cnst:      1.3554                 3.1785                 1.6817
 Red. Mass:       2.3880                 5.1498                 2.6874
 IR Intens:       17.721                 39.483                 20.032
 Frequency:      1059.42                1067.66                1072.96
 Force Cnst:      2.1964                 2.7045                 1.3244
 Red. Mass:       3.3214                 4.0269                 1.9525
 IR Intens:       33.912                 28.045                 23.401
 Frequency:      1162.46                1168.87                1169.86
 Force Cnst:      0.9657                 1.0347                 1.0362
 Red. Mass:       1.2130                 1.2853                 1.2851
 IR Intens:       44.725                  1.576                  1.262
 Frequency:      1194.33                1204.94                1207.73
 Force Cnst:      1.8233                 1.2787                 1.2697
 Red. Mass:       2.1695                 1.4948                 1.4774
 IR Intens:      112.875                  3.427                  7.785
 Frequency:      1213.26                1232.21                1238.58
 Force Cnst:      1.4963                 1.0635                 1.3836
 Red. Mass:       1.7253                 1.1889                 1.5307
 IR Intens:      106.709                  5.615                 53.506
 Frequency:      1246.91                1276.32                1285.81
 Force Cnst:      1.4900                 2.1292                 1.4467
 Red. Mass:       1.6266                 2.2185                 1.4852
 IR Intens:       26.560                229.580                 84.292
 Frequency:      1290.58                1310.17                1315.53
 Force Cnst:      1.5682                 1.3789                 1.4827
 Red. Mass:       1.5980                 1.3634                 1.4542
 IR Intens:       33.340                 17.932                  8.491
 Frequency:      1354.60                1366.19                1373.41
 Force Cnst:      1.6707                 1.6201                 1.8606
 Red. Mass:       1.5454                 1.4732                 1.6742
 IR Intens:       14.697                  5.522                 29.660
 Frequency:      1466.04                1467.32                1482.23
 Force Cnst:      1.5257                 1.5178                 1.3540
 Red. Mass:       1.2049                 1.1965                 1.0460
 IR Intens:        4.819                 23.595                  1.412
 Frequency:      1483.74                1492.73                1493.39
 Force Cnst:      1.3559                 1.3729                 1.4226
 Red. Mass:       1.0453                 1.0457                 1.0827
 IR Intens:       14.125                 16.669                  1.555
 Frequency:      1500.48                1513.65                1780.01
 Force Cnst:      1.3899                 1.4852                19.9139
 Red. Mass:       1.0478                 1.1002                10.6675
 IR Intens:        4.167                  7.954                290.002
 Frequency:      1796.10                3047.74                3048.99
 Force Cnst:     22.3612                 5.6370                 5.6413
 Red. Mass:      11.7647                 1.0300                 1.0299
 IR Intens:      260.123                 13.336                 50.483
 Frequency:      3060.02                3064.57                3070.54
 Force Cnst:      5.8781                 5.9491                 5.8991
 Red. Mass:       1.0655                 1.0751                 1.0620
 IR Intens:       12.201                 20.622                 34.893
 Frequency:      3099.10                3116.04                3119.02
 Force Cnst:      6.2675                 6.3180                 6.3432
 Red. Mass:       1.1076                 1.1044                 1.1067
 IR Intens:        0.396                 25.286                 32.128
 Frequency:      3121.80                3124.70                3131.36
 Force Cnst:      6.3563                 6.2604                 6.2963
 Red. Mass:       1.1070                 1.0883                 1.0899
 IR Intens:        9.794                 17.127                 21.436
 Frequency:      3158.73                3159.08                3162.98
 Force Cnst:      6.5025                 6.5035                 6.4279
 Red. Mass:       1.1061                 1.1061                 1.0905
 IR Intens:        7.131                 12.922                  6.620

 STANDARD THERMODYNAMIC QUANTITIES AT   298.15 K  AND     1.00 ATM

   This Molecule has  0 Imaginary Frequencies
   Zero point vibrational energy:      149.114 kcal/mol

   Atom    1 Element C  Has Mass   12.00000
   Atom    2 Element C  Has Mass   12.00000
   Atom    3 Element C  Has Mass   12.00000
   Atom    4 Element C  Has Mass   12.00000
   Atom    5 Element O  Has Mass   15.99491
   Atom    6 Element O  Has Mass   15.99491
   Atom    7 Element O  Has Mass   15.99491
   Atom    8 Element O  Has Mass   15.99491
   Atom    9 Element C  Has Mass   12.00000
   Atom   10 Element C  Has Mass   12.00000
   Atom   11 Element C  Has Mass   12.00000
   Atom   12 Element C  Has Mass   12.00000
   Atom   13 Element C  Has Mass   12.00000
   Atom   14 Element C  Has Mass   12.00000
   Atom   15 Element O  Has Mass   15.99491
   Atom   16 Element H  Has Mass    1.00783
   Atom   17 Element H  Has Mass    1.00783
   Atom   18 Element H  Has Mass    1.00783
   Atom   19 Element H  Has Mass    1.00783
   Atom   20 Element H  Has Mass    1.00783
   Atom   21 Element H  Has Mass    1.00783
   Atom   22 Element H  Has Mass    1.00783
   Atom   23 Element H  Has Mass    1.00783
   Atom   24 Element H  Has Mass    1.00783
   Atom   25 Element H  Has Mass    1.00783
   Atom   26 Element H  Has Mass    1.00783
   Atom   27 Element H  Has Mass    1.00783
   Atom   28 Element H  Has Mass    1.00783
   Atom   29 Element H  Has Mass    1.00783
   Molecular Mass:   214.084170 amu
   Principal axes and moments of inertia in amu*Bohr^2:
                             1           2           3
    Eigenvalues --     2022.85842  3231.53508  4232.70414
          X               0.99963    -0.02307    -0.01440
          Y               0.02193     0.99696    -0.07481
          Z               0.01608     0.07447     0.99709
   Rotational Symmetry Number is   1
   The Molecule is an Asymmetric Top
   Translational Enthalpy:        0.889 kcal/mol
   Rotational Enthalpy:           0.889 kcal/mol
   Vibrational Enthalpy:        156.383 kcal/mol
   gas constant (RT):             0.592 kcal/mol
   Translational Entropy:        41.987  cal/mol.K
   Rotational Entropy:           31.692  cal/mol.K
   Vibrational Entropy:          47.741  cal/mol.K

   Total Enthalpy:              158.753 kcal/mol
   Total Entropy:               121.420  cal/mol.K

 Total job time:  5998.00s(wall), 20576.62s(cpu)
        *  Thank you very much for using Q-Chem.  Have a nice day.  *
