 Q-Chem 5.0, Q-Chem, Inc., Pleasanton, CA (2017)
 Q-Chem 5.0.1 for Intel X86 EM64T Linux

User input:
--------------------------------------------------------------
$molecule
0 1
C 0.34025633 0.93999695 0.70942372
C 0.46210177 -0.62260306 0.56564030
C -0.83589684 1.71061798 0.12224336
C -0.78036516 -1.35804030 0.09258241
O -1.83721010 0.94753144 -0.33066204
O -0.85453159 2.91885648 0.09585951
O -1.60410946 -1.55281231 1.15142776
O -1.02097760 -1.77016753 -1.01234258
C -2.86828456 -2.16716667 0.85454931
C -2.95888237 1.63190704 -0.92100056
C 1.64495816 1.39323174 -0.00395043
C 2.87050541 1.03456025 0.86021040
C 2.96272090 -0.49668865 0.61869728
C 1.75314930 -0.75023607 -0.32403550
O 1.72361207 0.47109185 -1.09490157
H 0.35348499 1.22720674 1.76328820
H 0.66258623 -1.02979914 1.55791438
H -2.72435373 -3.15520035 0.41442970
H -3.45861280 2.25216783 -0.17559183
H 3.75654329 1.55143724 0.48906202
H 2.73525363 1.30743766 1.90907471
H 3.88587413 -0.76141884 0.10029993
H 2.90998883 -1.08956946 1.53389343
H -3.38716040 -2.24407180 1.80761578
H -3.43446282 -1.54519811 0.15895114
H -3.61948757 0.84475771 -1.27707987
H -2.62597850 2.25703054 -1.74984094
H 1.60485058 2.41429220 -0.37278844
C 1.90452880 -1.95500186 -1.22610841
H 2.86589367 -1.89811571 -1.74190722
H 1.88827210 -2.87415853 -0.63326979
H 1.10222728 -2.00511271 -1.95795611
$end

$rem
sym_ignore      true
jobtype         opt
method          b3lyp
basis           6-311++G(d,p)
dft_d           d3_op
mem_total       62000
MEM_STATIC      4000
ao2mo_disk      350000
max_scf_cycles  200
geom_opt_max_cycles 1000
geom_opt_tol_displacement 1
GEOM_OPT_TOL_GRADIENT       1
GEOM_OPT_TOL_ENERGY         1
$end

--------------------------------------------------------------

   15    -805.1914526761      3.42E-09 Convergence criterion met
 Total energy in the final basis set = -805.19145268
   11    -805.1914532406      3.47E-09 Convergence criterion met
 Total energy in the final basis set = -805.19145324
   12    -805.1915276734      3.30E-09 Convergence criterion met
 Total energy in the final basis set = -805.19152767
   13    -805.1780026842      8.37E-09 Convergence criterion met
 Total energy in the final basis set = -805.17800268
   13    -805.1914729013      8.96E-09 Convergence criterion met
 Total energy in the final basis set = -805.19147290
   12    -805.1919439756      7.56E-09 Convergence criterion met
 Total energy in the final basis set = -805.19194398
   12    -805.1923609757      8.84E-09 Convergence criterion met
 Total energy in the final basis set = -805.19236098
   12    -805.1926264236      5.82E-09 Convergence criterion met
    9    -805.1981192480      7.22E-09 Convergence criterion met
 Total energy in the final basis set = -805.19811925
    9    -805.1981195051      5.50E-09 Convergence criterion met
 Total energy in the final basis set = -805.19811951
    8    -805.1981193891      6.59E-09 Convergence criterion met
 Total energy in the final basis set = -805.19811939
    7    -805.1981195954      6.36E-09 Convergence criterion met
 Total energy in the final basis set = -805.19811960
    6    -805.1981195949      4.45E-09 Convergence criterion met
 Total energy in the final basis set = -805.19811959
    5    -805.1981195862      5.53E-09 Convergence criterion met
 Total energy in the final basis set = -805.19811959
 Final energy is   -805.198119586159
 **  OPTIMIZATION CONVERGED  **
 Total job time:  1858.78s(wall), 32105.01s(cpu)
        *  Thank you very much for using Q-Chem.  Have a nice day.  *

User input: 2 of 2

r0232.ten.osc.edu 10.25.157
Q-Chem Developer Version! Running on 10.25.157.*
                  Welcome to Q-Chem
     A Quantum Leap Into The Future Of Chemistry

 Q-Chem 5.0, Q-Chem, Inc., Pleasanton, CA (2017)

 Yihan Shao,  Zhengting Gan,  E. Epifanovsky,  A. T. B. Gilbert,  M. Wormit,
 J. Kussmann,  A. W. Lange,  A. Behn,  Jia Deng,  Xintian Feng,  D. Ghosh,
 M. Goldey,  P. R. Horn,  L. D. Jacobson,  I. Kaliman,  T. Kus,  A. Landau,
 Jie Liu,  E. I. Proynov,  R. M. Richard,  R. P. Steele,  E. J. Sundstrom,
 H. L. Woodcock III,  P. M. Zimmerman,  D. Zuev,  B. Albrecht,  E. Alguire,
 S. A. Baeppler,  Z. Benda,  Y. A. Bernard,  E. J. Berquist,  K. B. Bravaya,
 D. Casanova,  Chun-Min Chang,  Yunqing Chen,  A. Chien,  K. D. Closser,
 M. P. Coons,  S. Dasgupta,  M. Diedenhofen,  Hainam Do,  R. G. Edgar,
 Po-Tung Fang,  S. Fatehi,  Qingguo Feng,  Qinghui Ge,  A. Ghysels,
 J. Gomes,  J. Gonthier,  A. Gunina,  M. W. D. Hanson-Heine,
 P. H. P. Harbach,  A. W. Hauser,  J. E. Herr,  E. G. Hohenstein,
 Z. C. Holden,  Kerwin Hui,  T.-C. Jagau,  Hyunjun Ji,  B. Kaduk,
 K. Khistyaev,  Jaehoon Kim,  P. Klunzinger,  K. Koh,  D. Kosenkov,
 T. Kowalczyk,  C. M. Krauter,  A. Kunitsa,  Ka Un Lao,  A. Laurent,
 K. V. Lawler,  Joonho Lee,  D. Lefrancois,  S. Lehtola,  D. S. Levine,
 Yi-Pei Li,  You-Sheng Lin,  Fenglai Liu,  E. Livshits,  A. Luenser,
 P. Manohar,  E. Mansoor,  S. F. Manzer,  Shan-Ping Mao,  Yuezhi Mao,
 N. Mardirossian,  A. V. Marenich,  L. A. Martinez-Martinez,  S. A. Maurer,
 N. J. Mayhall,  S. C. McKenzie,  J.-M. Mewes,  A. F. Morrison,  K. Nanda,
 T. S. Nguyen-Beck,  R. Olivares-Amaya,  J. A. Parkhill,  T. M. Perrine,
 F. Plasser,  S. Prager,  A. Prociuk,  D. R. Rehn,  F. Rob,  M. Schneider,
 N. Sergueev,  S. M. Sharada,  S. Sharma,  D. W. Small,  T. Stauch,
 T. Stein,  Yu-Chuan Su,  A. J. W. Thom,  T. Tsuchimochi,  L. Vogt,
 O. Vydrov,  M. A. Watson,  J. Wenzel,  M. de Wergifosse,  T. A. Wesolowski,
 A. White,  J. Witte,  A. Yamada,  Jun Yang,  K. Yao,  S. Yeganeh,
 S. R. Yost,  Zhi-Qiang You,  A. Zech,  Igor Ying Zhang,  Xing Zhang,
 Yan Zhao,  Ying Zhu,  B. R. Brooks,  G. K. L. Chan,  C. J. Cramer,
 M. S. Gordon,  W. J. Hehre,  A. Klamt,  M. W. Schmidt,  C. D. Sherrill,
 D. G. Truhlar,  A. Aspuru-Guzik,  R. Baer,  A. T. Bell,  N. A. Besley,
 Jeng-Da Chai,  A. Dreuw,  B. D. Dunietz,  T. R. Furlani,  Chao-Ping Hsu,
 Yousung Jung,  Jing Kong,  D. S. Lambrecht,  WanZhen Liang,  C. Ochsenfeld,
 V. A. Rassolov,  L. V. Slipchenko,  J. E. Subotnik,  T. Van Voorhis,
 J. M. Herbert,  A. I. Krylov,  P. M. W. Gill,  M. Head-Gordon

 Contributors to earlier versions of Q-Chem not listed above:
 R. D. Adamson,  B. Austin,  J. Baker,  G. J. O. Beran,  K. Brandhorst,
 S. T. Brown,  E. F. C. Byrd,  A. K. Chakraborty,  C.-L. Cheng,
 Siu Hung Chien,  D. M. Chipman,  D. L. Crittenden,  H. Dachsel,
 R. A. DiStasio Jr.,  R. J. Doerksen,  A. D. Dutoi,  L. Fusti-Molnar,
 W. A. Goddard III,  A. Golubeva-Zadorozhnaya,  S. R. Gwaltney,  G. Hawkins,
 A. Heyden,  S. Hirata,  G. Kedziora,  F. J. Keil,  C. Kelley,  Jihan Kim,
 R. A. King,  R. Z. Khaliullin,  P. P. Korambath,  W. Kurlancheek,
 A. M. Lee,  M. S. Lee,  S. V. Levchenko,  Ching Yeh Lin,  D. Liotard,
 R. C. Lochan,  I. Lotan,  P. E. Maslen,  N. Nair,  D. P. O'Neill,
 D. Neuhauser,  E. Neuscamman,  C. M. Oana,  R. Olson,  B. Peters,
 R. Peverati,  P. A. Pieniazek,  Y. M. Rhee,  J. Ritchie,  M. A. Rohrdanz,
 E. Rosta,  N. J. Russ,  H. F. Schaefer III,  N. E. Schultz,  N. Shenvi,
 A. C. Simmonett,  A. Sodt,  D. Stuck,  K. S. Thanthiriwatte,  V. Vanovschi,
 Tao Wang,  A. Warshel,  C. F. Williams,  Q. Wu,  X. Xu,  W. Zhang

 Please cite Q-Chem as follows:
 Y. Shao et al., Mol. Phys. 113, 184-215 (2015)
 DOI: 10.1080/00268976.2014.952696

 Q-Chem 5.0.1 for Intel X86 EM64T Linux

 Parts of Q-Chem use Armadillo 5.200.1 (Boston Tea Smuggler).
 http://arma.sourceforge.net/

 Q-Chem begins on Sat Oct 14 17:47:08 2017

Host: r0232.ten.osc.edu
0

     Scratch files written to /tmp/pbstmp.1310458/05//
Processing $rem in /users/PAS0291/osu6415/.qchemrc.
molden_format             true
The previous job contains 0 fragments, simply inherited here

Checking the input file for inconsistencies... 	...done.

--------------------------------------------------------------
User input:
--------------------------------------------------------------

$molecule
read
$end

$rem
sym_ignore      true
scf_guess       read
jobtype         freq
method          b3lyp
basis           6-311++G(d,p)
dft_d           d3_op
mem_total       62000
MEM_STATIC      4000
ao2mo_disk      350000
max_scf_cycles  200
$end
--------------------------------------------------------------

             Standard Nuclear Orientation (Angstroms)
    I     Atom           X                Y                Z
 ----------------------------------------------------------------
    1      C       0.4057061862     1.1666235505     0.4695798886
    2      C       0.3033888125    -0.3877035603     0.6119506731
    3      C      -0.7725275692     1.8581698185    -0.1943828015
    4      C      -0.8798849868    -1.0263775242    -0.0797570970
    5      O      -1.9020602466     1.6307467655     0.5123294368
    6      O      -0.7180535610     2.5693106710    -1.1634152379
    7      O      -1.3021478649    -2.1062049001     0.6184475003
    8      O      -1.3652078003    -0.6870403037    -1.1296980377
    9      C      -2.3691994468    -2.8637872179     0.0185974771
   10      C      -3.1190311059     2.1313139665    -0.0716167453
   11      C       1.7310369954     1.3223060640    -0.3137233295
   12      C       2.9115146526     1.0940051515     0.6502468656
   13      C       2.8161652837    -0.4436748406     0.8693854693
   14      C       1.6497360054    -0.8296977091    -0.0846475593
   15      O       1.7661127854     0.1440039148    -1.1304671511
   16      H       0.4832960700     1.6094034863     1.4662206182
   17      H       0.2885221492    -0.6996674300     1.6545836755
   18      H      -2.0656221994    -3.2431020392    -0.9585305853
   19      H      -3.0695132030     3.2138257465    -0.1960549522
   20      H       3.8496019975     1.3661019803     0.1642866717
   21      H       2.8266180292     1.6739042840     1.5717858526
   22      H       3.7310484134    -0.9493468211     0.5560618935
   23      H       2.6142485657    -0.7246591833     1.9049714474
   24      H      -2.5636485974    -3.6849991109     0.7049940062
   25      H      -3.2584491879    -2.2427864365    -0.0988995019
   26      H      -3.9088985385     1.8614751144     0.6263283777
   27      H      -3.2829556137     1.6587055345    -1.0411788724
   28      H       1.7747250618     2.2070394836    -0.9419622056
   29      C       1.6974264584    -2.2336133474    -0.6456050092
   30      H       2.6722821020    -2.4156036595    -1.1025908159
   31      H       1.5405614428    -2.9685031143     0.1475372531
   32      H       0.9317028806    -2.3734057839    -1.4110491550
 ----------------------------------------------------------------

    2    -805.1981195897      3.22E-09 Convergence criterion met
 Total energy in the final basis set = -805.19811959

                    Orbital Energies (a.u.)
 --------------------------------------------------------------

 Alpha MOs
 -- Occupied --
-19.177 -19.167 -19.127 -19.117 -19.111 -10.307 -10.302 -10.245
-10.232 -10.227 -10.222 -10.204 -10.202 -10.180 -10.178 -10.170
 -1.117  -1.108  -1.062  -1.030  -1.023  -0.831  -0.794  -0.782
 -0.747  -0.724  -0.694  -0.651  -0.603  -0.592  -0.563  -0.556
 -0.533  -0.512  -0.507  -0.492  -0.487  -0.485  -0.476  -0.471
 -0.458  -0.438  -0.432  -0.422  -0.416  -0.401  -0.397  -0.386
 -0.380  -0.373  -0.365  -0.358  -0.355  -0.353  -0.334  -0.327
 -0.319  -0.307  -0.290  -0.280  -0.270

          Ground-State Mulliken Net Atomic Charges

     Atom                 Charge (a.u.)
  ----------------------------------------
      1 C                     0.107623
      2 C                     0.268799
      3 C                    -0.423076
      4 C                    -0.861340
      5 O                    -0.043628
      6 O                    -0.215781
      7 O                     0.020615
      8 O                    -0.179980
      9 C                    -0.187575
     10 C                    -0.185535
     11 C                    -0.127822
     12 C                    -0.453647
     13 C                    -0.340367
     14 C                     0.047035
     15 O                    -0.069134
     16 H                     0.240374
     17 H                     0.293335
     18 H                     0.179561
     19 H                     0.168093
     20 H                     0.187735
     21 H                     0.125116
     22 H                     0.162583
     23 H                     0.141165
     24 H                     0.153584
     25 H                     0.165511
     26 H                     0.147848
     27 H                     0.190141
     28 H                     0.294486
     29 C                    -0.362631
     30 H                     0.179250
     31 H                     0.161370
     32 H                     0.216288
  ----------------------------------------
  Sum of atomic charges =    -0.000000

                    Cartesian Multipole Moments
 -----------------------------------------------------------------
    Charge (ESU x 10^10)
                -0.0000
    Dipole Moment (Debye)
         X      -0.2762      Y      -2.0803      Z       3.7724
       Tot       4.3168
    Quadrupole Moments (Debye-Ang)
        XX     -83.1156     XY       1.9241     YY     -90.4082
        XZ       1.4642     YZ       5.3984     ZZ    -102.8118

 Frequency:        44.64                  51.45                  86.10
 Force Cnst:      0.0047                 0.0069                 0.0221
 Red. Mass:       3.9740                 4.4196                 5.0562
 IR Intens:        0.382                  0.379                  2.428
 Frequency:        94.17                 125.86                 142.69
 Force Cnst:      0.0180                 0.0194                 0.0289
 Red. Mass:       3.4539                 2.0739                 2.4112
 IR Intens:        2.882                  0.417                  2.043
 Frequency:       145.63                 159.28                 192.31
 Force Cnst:      0.0170                 0.0221                 0.0815
 Red. Mass:       1.3628                 1.4771                 3.7395
 IR Intens:        0.754                  0.517                  0.354
 Frequency:       225.45                 240.03                 262.02
 Force Cnst:      0.1458                 0.0998                 0.1823
 Red. Mass:       4.8690                 2.9412                 4.5069
 IR Intens:        2.023                  4.993                  4.665
 Frequency:       271.87                 278.51                 316.63
 Force Cnst:      0.1267                 0.0578                 0.2187
 Red. Mass:       2.9094                 1.2656                 3.7030
 IR Intens:        2.023                  2.149                 12.112
 Frequency:       325.77                 349.89                 366.89
 Force Cnst:      0.2020                 0.2288                 0.2914
 Red. Mass:       3.2305                 3.1719                 3.6736
 IR Intens:        0.479                  6.322                  5.470
 Frequency:       396.19                 470.33                 569.32
 Force Cnst:      0.3377                 0.5441                 0.7397
 Red. Mass:       3.6517                 4.1744                 3.8734
 IR Intens:        8.123                  9.594                 13.755
 Frequency:       592.54                 652.24                 661.92
 Force Cnst:      1.1048                 1.3230                 1.0857
 Red. Mass:       5.3409                 5.2783                 4.2058
 IR Intens:       11.223                  5.135                  1.241
 Frequency:       709.03                 737.16                 803.73
 Force Cnst:      1.6930                 1.6953                 1.4981
 Red. Mass:       5.7159                 5.2952                 3.9360
 IR Intens:        7.656                  6.488                  5.414
 Frequency:       826.03                 852.16                 858.49
 Force Cnst:      0.8202                 2.2593                 2.0224
 Red. Mass:       2.0401                 5.2807                 4.6575
 IR Intens:        4.103                 11.959                 15.291
 Frequency:       862.48                 885.91                 900.37
 Force Cnst:      1.4950                 1.0899                 1.0980
 Red. Mass:       3.4111                 2.3571                 2.2988
 IR Intens:        0.424                 13.721                  7.344
 Frequency:       913.80                 939.29                 954.87
 Force Cnst:      1.4811                 1.4102                 1.6190
 Red. Mass:       3.0104                 2.7129                 3.0137
 IR Intens:       11.262                 20.997                  5.787
 Frequency:       976.88                 996.92                1017.83
 Force Cnst:      3.2472                 1.5660                 2.3587
 Red. Mass:       5.7753                 2.6744                 3.8643
 IR Intens:       12.895                 23.085                 35.817
 Frequency:      1050.87                1057.83                1067.54
 Force Cnst:      1.0886                 2.0172                 2.2176
 Red. Mass:       1.6730                 3.0595                 3.3026
 IR Intens:        6.395                 21.554                 55.248
 Frequency:      1127.76                1143.19                1170.76
 Force Cnst:      1.3266                 1.2931                 1.4910
 Red. Mass:       1.7703                 1.6794                 1.8462
 IR Intens:        8.116                  2.933                126.896
 Frequency:      1172.50                1173.81                1200.82
 Force Cnst:      1.0466                 1.3376                 1.6891
 Red. Mass:       1.2921                 1.6477                 1.9881
 IR Intens:        4.788                104.258                215.902
 Frequency:      1204.51                1208.76                1211.03
 Force Cnst:      1.4076                 1.3630                 1.2825
 Red. Mass:       1.6467                 1.5833                 1.4842
 IR Intens:        1.293                 26.738                 22.457
 Frequency:      1216.39                1219.51                1255.49
 Force Cnst:      1.6928                 1.5254                 1.2447
 Red. Mass:       1.9418                 1.7408                 1.3402
 IR Intens:      143.374                 82.815                  1.426
 Frequency:      1269.17                1284.79                1312.15
 Force Cnst:      1.4233                 1.7048                 1.6380
 Red. Mass:       1.4998                 1.7529                 1.6147
 IR Intens:        7.650                 51.289                 25.255
 Frequency:      1325.72                1339.81                1363.66
 Force Cnst:      1.6820                 1.6637                 1.8844
 Red. Mass:       1.6243                 1.5731                 1.7200
 IR Intens:        1.308                 22.343                 84.146
 Frequency:      1391.45                1425.32                1468.36
 Force Cnst:      1.9304                 1.6118                 1.5187
 Red. Mass:       1.6922                 1.3466                 1.1955
 IR Intens:       47.114                 16.928                 15.285
 Frequency:      1470.49                1483.96                1485.51
 Force Cnst:      1.5274                 1.3549                 1.3574
 Red. Mass:       1.1989                 1.0442                 1.0440
 IR Intens:       14.618                  5.141                 13.594
 Frequency:      1489.56                1496.55                1497.95
 Force Cnst:      1.3903                 1.4104                 1.3847
 Red. Mass:       1.0635                 1.0688                 1.0474
 IR Intens:        4.660                  5.874                 12.608
 Frequency:      1498.54                1512.64                1516.17
 Force Cnst:      1.3888                 1.4175                 1.4845
 Red. Mass:       1.0497                 1.0515                 1.0960
 IR Intens:        1.999                 12.273                  5.420
 Frequency:      1792.81                1804.21                3041.70
 Force Cnst:     21.1465                22.1859                 5.6431
 Red. Mass:      11.1666                11.5678                 1.0352
 IR Intens:       81.006                353.834                 12.091
 Frequency:      3049.22                3050.58                3056.42
 Force Cnst:      5.6409                 5.6432                 5.8475
 Red. Mass:       1.0297                 1.0292                 1.0624
 IR Intens:       30.263                 39.432                 21.493
 Frequency:      3062.28                3068.08                3094.25
 Force Cnst:      5.9478                 5.8984                 6.2481
 Red. Mass:       1.0765                 1.0635                 1.1076
 IR Intens:       17.392                 34.916                  0.269
 Frequency:      3110.38                3113.37                3116.40
 Force Cnst:      6.2922                 6.2954                 6.3090
 Red. Mass:       1.1039                 1.1023                 1.1026
 IR Intens:        2.195                 40.474                 13.539
 Frequency:      3120.97                3122.45                3126.70
 Force Cnst:      6.2466                 6.3596                 6.3780
 Red. Mass:       1.0885                 1.1071                 1.1073
 IR Intens:       21.642                 18.734                 15.529
 Frequency:      3153.80                3155.92                3159.00
 Force Cnst:      6.4850                 6.4913                 6.4101
 Red. Mass:       1.1066                 1.1062                 1.0902
 IR Intens:       13.663                 14.323                  8.333

 STANDARD THERMODYNAMIC QUANTITIES AT   298.15 K  AND     1.00 ATM

   This Molecule has  0 Imaginary Frequencies
   Zero point vibrational energy:      166.642 kcal/mol

   Atom    1 Element C  Has Mass   12.00000
   Atom    2 Element C  Has Mass   12.00000
   Atom    3 Element C  Has Mass   12.00000
   Atom    4 Element C  Has Mass   12.00000
   Atom    5 Element O  Has Mass   15.99491
   Atom    6 Element O  Has Mass   15.99491
   Atom    7 Element O  Has Mass   15.99491
   Atom    8 Element O  Has Mass   15.99491
   Atom    9 Element C  Has Mass   12.00000
   Atom   10 Element C  Has Mass   12.00000
   Atom   11 Element C  Has Mass   12.00000
   Atom   12 Element C  Has Mass   12.00000
   Atom   13 Element C  Has Mass   12.00000
   Atom   14 Element C  Has Mass   12.00000
   Atom   15 Element O  Has Mass   15.99491
   Atom   16 Element H  Has Mass    1.00783
   Atom   17 Element H  Has Mass    1.00783
   Atom   18 Element H  Has Mass    1.00783
   Atom   19 Element H  Has Mass    1.00783
   Atom   20 Element H  Has Mass    1.00783
   Atom   21 Element H  Has Mass    1.00783
   Atom   22 Element H  Has Mass    1.00783
   Atom   23 Element H  Has Mass    1.00783
   Atom   24 Element H  Has Mass    1.00783
   Atom   25 Element H  Has Mass    1.00783
   Atom   26 Element H  Has Mass    1.00783
   Atom   27 Element H  Has Mass    1.00783
   Atom   28 Element H  Has Mass    1.00783
   Atom   29 Element C  Has Mass   12.00000
   Atom   30 Element H  Has Mass    1.00783
   Atom   31 Element H  Has Mass    1.00783
   Atom   32 Element H  Has Mass    1.00783
   Molecular Mass:   228.099830 amu
   Principal axes and moments of inertia in amu*Bohr^2:
                             1           2           3
    Eigenvalues --     2670.46091  3268.31678  5111.41670
          X               0.97969     0.19681    -0.03838
          Y              -0.19513     0.97981     0.04346
          Z               0.04616    -0.03509     0.99832
   Rotational Symmetry Number is   1
   The Molecule is an Asymmetric Top
   Translational Enthalpy:        0.889 kcal/mol
   Rotational Enthalpy:           0.889 kcal/mol
   Vibrational Enthalpy:        174.657 kcal/mol
   gas constant (RT):             0.592 kcal/mol
   Translational Entropy:        42.176  cal/mol.K
   Rotational Entropy:           32.167  cal/mol.K
   Vibrational Entropy:          50.593  cal/mol.K

   Total Enthalpy:              177.027 kcal/mol
   Total Entropy:               124.936  cal/mol.K

 Total job time:  8086.91s(wall), 29509.68s(cpu)
        *  Thank you very much for using Q-Chem.  Have a nice day.  *
