 Q-Chem 5.0, Q-Chem, Inc., Pleasanton, CA (2017)
 Q-Chem 5.0.1 for Intel X86 EM64T Linux

User input:
--------------------------------------------------------------
$molecule
0 1
  C      1.04900880     -2.31421276      0.69997366
  C     -0.19737092     -1.82366550      1.51746906
  C     -0.18939422     -0.34388384      1.88082709
  C      2.04283641     -1.26288398      0.23584763
  O      0.55221292     -0.17039683      2.99948125
  O     -0.77511689      0.54863083      1.32640594
  O      2.99263495     -1.85001035     -0.52800284
  O      2.04453962     -0.08703264      0.49493139
  C      4.01226639     -0.97669496     -1.05061199
  C      0.78737148      1.19660399      3.38028449
  C      0.35119395     -3.02027272     -0.50322182
  C     -0.24989800     -4.35813595     -0.03193773
  C     -1.47808175     -3.85428973      0.77485198
  C     -1.37451554     -2.31052496      0.60142458
  O     -0.79642295     -2.20074996     -0.71929539
  H      1.63277794     -3.03493579      1.27680883
  H     -0.21862724     -2.35408962      2.47054618
  H      4.55408959     -0.49250421     -0.23685725
  H     -0.15524478      1.70787312      3.58101836
  H     -0.55745478     -4.95395947     -0.89260986
  H      0.45146284     -4.95234401      0.55700438
  H     -2.41200025     -4.20735725      0.33488439
  H     -1.46508768     -4.15818404      1.82354007
  H      4.67597630     -1.61898512     -1.62508232
  H      3.56660684     -0.21343911     -1.69007605
  H      1.32054456      1.71249004      2.58052889
  H      1.39610614      1.14726366      4.28080534
  H      0.95523525     -3.06432824     -1.40497707
  C     -2.70002918     -1.58504448      0.67417415
  H     -3.41618330     -2.07176616      0.00820977
  H     -3.09698007     -1.62730212      1.69279459
  H     -2.59007643     -0.54176787      0.38992029
$end

$rem
sym_ignore      true
jobtype         ts
method          b3lyp
basis           6-311++G(d,p)
dft_d           d3_op
mem_total       62000
MEM_STATIC      4000
ao2mo_disk      350000
max_scf_cycles  200
geom_opt_max_cycles 1000
geom_opt_tol_displacement 1
GEOM_OPT_TOL_GRADIENT       1
GEOM_OPT_TOL_ENERGY         1
geom_opt_dmax    50
$end

--------------------------------------------------------------

   15    -805.1933803729      3.80E-09 Convergence criterion met
 Total energy in the final basis set = -805.19338037
   10    -805.1933775813      5.12E-09 Convergence criterion met
 Total energy in the final basis set = -805.19337758
   10    -805.1933808758      5.12E-09 Convergence criterion met
 Total energy in the final basis set = -805.19338088
    9    -805.1933789710      7.47E-09 Convergence criterion met
 Total energy in the final basis set = -805.19337897
    9    -805.1933795905      5.83E-09 Convergence criterion met
 Total energy in the final basis set = -805.19337959
    9    -805.1933805940      5.27E-09 Convergence criterion met
 Total energy in the final basis set = -805.19338059
    9    -805.1933807054      2.79E-09 Convergence criterion met
 Total energy in the final basis set = -805.19338071
    7    -805.1933806588      9.86E-09 Convergence criterion met
   10    -805.1933811756      5.90E-09 Convergence criterion met
 Total energy in the final basis set = -805.19338118
   10    -805.1933806372      5.60E-09 Convergence criterion met
 Total energy in the final basis set = -805.19338064
    7    -805.1933806614      5.05E-09 Convergence criterion met
 Total energy in the final basis set = -805.19338066
    7    -805.1933806907      3.82E-09 Convergence criterion met
 Total energy in the final basis set = -805.19338069
    6    -805.1933807050      3.33E-09 Convergence criterion met
 Total energy in the final basis set = -805.19338071
    5    -805.1933807064      4.74E-09 Convergence criterion met
 Total energy in the final basis set = -805.19338071
 Final energy is   -805.193380706441
 **  OPTIMIZATION CONVERGED  **
 Total job time:  4295.76s(wall), 72169.29s(cpu)
        *  Thank you very much for using Q-Chem.  Have a nice day.  *

User input: 2 of 2

r0239.ten.osc.edu 10.25.157
Q-Chem Developer Version! Running on 10.25.157.*
                  Welcome to Q-Chem
     A Quantum Leap Into The Future Of Chemistry

 Q-Chem 5.0, Q-Chem, Inc., Pleasanton, CA (2017)

 Yihan Shao,  Zhengting Gan,  E. Epifanovsky,  A. T. B. Gilbert,  M. Wormit,
 J. Kussmann,  A. W. Lange,  A. Behn,  Jia Deng,  Xintian Feng,  D. Ghosh,
 M. Goldey,  P. R. Horn,  L. D. Jacobson,  I. Kaliman,  T. Kus,  A. Landau,
 Jie Liu,  E. I. Proynov,  R. M. Richard,  R. P. Steele,  E. J. Sundstrom,
 H. L. Woodcock III,  P. M. Zimmerman,  D. Zuev,  B. Albrecht,  E. Alguire,
 S. A. Baeppler,  Z. Benda,  Y. A. Bernard,  E. J. Berquist,  K. B. Bravaya,
 D. Casanova,  Chun-Min Chang,  Yunqing Chen,  A. Chien,  K. D. Closser,
 M. P. Coons,  S. Dasgupta,  M. Diedenhofen,  Hainam Do,  R. G. Edgar,
 Po-Tung Fang,  S. Fatehi,  Qingguo Feng,  Qinghui Ge,  A. Ghysels,
 J. Gomes,  J. Gonthier,  A. Gunina,  M. W. D. Hanson-Heine,
 P. H. P. Harbach,  A. W. Hauser,  J. E. Herr,  E. G. Hohenstein,
 Z. C. Holden,  Kerwin Hui,  T.-C. Jagau,  Hyunjun Ji,  B. Kaduk,
 K. Khistyaev,  Jaehoon Kim,  P. Klunzinger,  K. Koh,  D. Kosenkov,
 T. Kowalczyk,  C. M. Krauter,  A. Kunitsa,  Ka Un Lao,  A. Laurent,
 K. V. Lawler,  Joonho Lee,  D. Lefrancois,  S. Lehtola,  D. S. Levine,
 Yi-Pei Li,  You-Sheng Lin,  Fenglai Liu,  E. Livshits,  A. Luenser,
 P. Manohar,  E. Mansoor,  S. F. Manzer,  Shan-Ping Mao,  Yuezhi Mao,
 N. Mardirossian,  A. V. Marenich,  L. A. Martinez-Martinez,  S. A. Maurer,
 N. J. Mayhall,  S. C. McKenzie,  J.-M. Mewes,  A. F. Morrison,  K. Nanda,
 T. S. Nguyen-Beck,  R. Olivares-Amaya,  J. A. Parkhill,  T. M. Perrine,
 F. Plasser,  S. Prager,  A. Prociuk,  D. R. Rehn,  F. Rob,  M. Schneider,
 N. Sergueev,  S. M. Sharada,  S. Sharma,  D. W. Small,  T. Stauch,
 T. Stein,  Yu-Chuan Su,  A. J. W. Thom,  T. Tsuchimochi,  L. Vogt,
 O. Vydrov,  M. A. Watson,  J. Wenzel,  M. de Wergifosse,  T. A. Wesolowski,
 A. White,  J. Witte,  A. Yamada,  Jun Yang,  K. Yao,  S. Yeganeh,
 S. R. Yost,  Zhi-Qiang You,  A. Zech,  Igor Ying Zhang,  Xing Zhang,
 Yan Zhao,  Ying Zhu,  B. R. Brooks,  G. K. L. Chan,  C. J. Cramer,
 M. S. Gordon,  W. J. Hehre,  A. Klamt,  M. W. Schmidt,  C. D. Sherrill,
 D. G. Truhlar,  A. Aspuru-Guzik,  R. Baer,  A. T. Bell,  N. A. Besley,
 Jeng-Da Chai,  A. Dreuw,  B. D. Dunietz,  T. R. Furlani,  Chao-Ping Hsu,
 Yousung Jung,  Jing Kong,  D. S. Lambrecht,  WanZhen Liang,  C. Ochsenfeld,
 V. A. Rassolov,  L. V. Slipchenko,  J. E. Subotnik,  T. Van Voorhis,
 J. M. Herbert,  A. I. Krylov,  P. M. W. Gill,  M. Head-Gordon

 Contributors to earlier versions of Q-Chem not listed above:
 R. D. Adamson,  B. Austin,  J. Baker,  G. J. O. Beran,  K. Brandhorst,
 S. T. Brown,  E. F. C. Byrd,  A. K. Chakraborty,  C.-L. Cheng,
 Siu Hung Chien,  D. M. Chipman,  D. L. Crittenden,  H. Dachsel,
 R. A. DiStasio Jr.,  R. J. Doerksen,  A. D. Dutoi,  L. Fusti-Molnar,
 W. A. Goddard III,  A. Golubeva-Zadorozhnaya,  S. R. Gwaltney,  G. Hawkins,
 A. Heyden,  S. Hirata,  G. Kedziora,  F. J. Keil,  C. Kelley,  Jihan Kim,
 R. A. King,  R. Z. Khaliullin,  P. P. Korambath,  W. Kurlancheek,
 A. M. Lee,  M. S. Lee,  S. V. Levchenko,  Ching Yeh Lin,  D. Liotard,
 R. C. Lochan,  I. Lotan,  P. E. Maslen,  N. Nair,  D. P. O'Neill,
 D. Neuhauser,  E. Neuscamman,  C. M. Oana,  R. Olson,  B. Peters,
 R. Peverati,  P. A. Pieniazek,  Y. M. Rhee,  J. Ritchie,  M. A. Rohrdanz,
 E. Rosta,  N. J. Russ,  H. F. Schaefer III,  N. E. Schultz,  N. Shenvi,
 A. C. Simmonett,  A. Sodt,  D. Stuck,  K. S. Thanthiriwatte,  V. Vanovschi,
 Tao Wang,  A. Warshel,  C. F. Williams,  Q. Wu,  X. Xu,  W. Zhang

 Please cite Q-Chem as follows:
 Y. Shao et al., Mol. Phys. 113, 184-215 (2015)
 DOI: 10.1080/00268976.2014.952696

 Q-Chem 5.0.1 for Intel X86 EM64T Linux

 Parts of Q-Chem use Armadillo 5.200.1 (Boston Tea Smuggler).
 http://arma.sourceforge.net/

 Q-Chem begins on Tue Oct 17 16:13:31 2017

Host: r0239.ten.osc.edu
0

     Scratch files written to /tmp/pbstmp.1311792/2//
Processing $rem in /users/PAS0291/osu6415/.qchemrc.
molden_format             true
The previous job contains 0 fragments, simply inherited here

Checking the input file for inconsistencies... 	...done.

--------------------------------------------------------------
User input:
--------------------------------------------------------------

$molecule
read
$end

$rem
sym_ignore      true
scf_guess       read
jobtype         freq
method          b3lyp
basis           6-311++G(d,p)
dft_d           d3_op
mem_total       62000
MEM_STATIC      4000
ao2mo_disk      350000
max_scf_cycles  200
$end
--------------------------------------------------------------

             Standard Nuclear Orientation (Angstroms)
    I     Atom           X                Y                Z
 ----------------------------------------------------------------
    1      C       1.0490096987    -2.3142854533     0.6998493349
    2      C      -0.1973138132    -1.8234387524     1.5173467488
    3      C      -0.1893796834    -0.3435307444     1.8800638392
    4      C       2.0432237554    -1.2632315484     0.2360359889
    5      O       0.5511766820    -0.1697640002     2.9993734374
    6      O      -0.7745074982     0.5487908500     1.3246897459
    7      O       2.9929765479    -1.8505099689    -0.5276226884
    8      O       2.0452812469    -0.0874820176     0.4957499067
    9      C       4.0127588581    -0.9773959758    -1.0503634620
   10      C       0.7863268751     1.1973093398     3.3799681263
   11      C       0.3512268224    -3.0201703047    -0.5034049295
   12      C      -0.2498247019    -4.3580599204    -0.0322914228
   13      C      -1.4777223095    -3.8543130164     0.7751010502
   14      C      -1.3745075909    -2.3105390346     0.6015516821
   15      O      -0.7965890914    -2.2007152530    -0.7191565310
   16      H       1.6324625484    -3.0351953750     1.2767832912
   17      H      -0.2184396403    -2.3535476079     2.4705923071
   18      H       4.5576697354    -0.4969074441    -0.2364526968
   19      H      -0.1563964357     1.7092765506     3.5783559418
   20      H      -0.5577460074    -4.9534361253    -0.8931415335
   21      H       0.4516850947    -4.9525886352     0.5561526335
   22      H      -2.4118413715    -4.2076548744     0.3357857190
   23      H      -1.4640212214    -4.1580499700     1.8238231414
   24      H       4.6738034005    -1.6191469854    -1.6285029429
   25      H       3.5669075521    -0.2112287908    -1.6861375381
   26      H       1.3215640418     1.7124162417     2.5810818777
   27      H       1.3930987304     1.1480683646     4.2818188204
   28      H       0.9551765285    -3.0640543806    -1.4052386815
   29      C      -2.7001181191    -1.5851804422     0.6746468384
   30      H      -3.4164434367    -2.0720182245     0.0089558415
   31      H      -3.0967444684    -1.6274046221     1.6933951633
   32      H      -2.5903727293    -0.5419119091     0.3902509808
 ----------------------------------------------------------------

    2    -805.1933807004      2.80E-09 Convergence criterion met
 Total energy in the final basis set = -805.19338070

                    Orbital Energies (a.u.)
 --------------------------------------------------------------

 Alpha MOs
 -- Occupied --
-19.178 -19.161 -19.128 -19.123 -19.105 -10.312 -10.298 -10.238
-10.234 -10.233 -10.217 -10.209 -10.201 -10.179 -10.177 -10.156
 -1.121  -1.103  -1.061  -1.034  -1.017  -0.830  -0.793  -0.779
 -0.747  -0.722  -0.685  -0.650  -0.603  -0.591  -0.571  -0.549
 -0.532  -0.511  -0.500  -0.492  -0.488  -0.484  -0.476  -0.468
 -0.457  -0.437  -0.427  -0.423  -0.409  -0.405  -0.395  -0.380
 -0.372  -0.367  -0.364  -0.360  -0.355  -0.350  -0.334  -0.329
 -0.321  -0.301  -0.291  -0.274  -0.270

          Ground-State Mulliken Net Atomic Charges

     Atom                 Charge (a.u.)
  ----------------------------------------
      1 C                    -0.237977
      2 C                     0.294273
      3 C                    -0.272713
      4 C                    -0.779071
      5 O                    -0.010091
      6 O                    -0.190750
      7 O                    -0.055448
      8 O                    -0.190365
      9 C                    -0.238781
     10 C                    -0.172575
     11 C                     0.513132
     12 C                    -0.402839
     13 C                    -0.502343
     14 C                    -0.300709
     15 O                    -0.047575
     16 H                     0.234982
     17 H                     0.297741
     18 H                     0.173421
     19 H                     0.161055
     20 H                     0.182254
     21 H                     0.125286
     22 H                     0.169086
     23 H                     0.138471
     24 H                     0.149720
     25 H                     0.190054
     26 H                     0.192329
     27 H                     0.149111
     28 H                     0.300026
     29 C                    -0.376488
     30 H                     0.151265
     31 H                     0.144917
     32 H                     0.210604
  ----------------------------------------
  Sum of atomic charges =    -0.000000

                    Cartesian Multipole Moments
 -----------------------------------------------------------------
    Charge (ESU x 10^10)
                -0.0000
    Dipole Moment (Debye)
         X       2.1817      Y      -2.8558      Z       1.1460
       Tot       3.7721
    Quadrupole Moments (Debye-Ang)
        XX     -85.7761     XY       0.4504     YY     -86.3105
        XZ      -4.1111     YZ      -0.7600     ZZ     -89.8002

 Frequency:       -28.15                  23.83                  81.61
 Force Cnst:      0.0038                 0.0012                 0.0145
 Red. Mass:       8.0502                 3.6029                 3.6985
 IR Intens:        0.626                  0.101                  2.258
 Frequency:       112.40                 125.72                 138.21
 Force Cnst:      0.0245                 0.0277                 0.0183
 Red. Mass:       3.2975                 2.9728                 1.6224
 IR Intens:        2.882                  0.574                  0.850
 Frequency:       160.72                 177.10                 185.31
 Force Cnst:      0.0306                 0.0238                 0.0577
 Red. Mass:       2.0085                 1.2888                 2.8514
 IR Intens:        0.537                  0.129                  0.203
 Frequency:       210.59                 222.47                 237.14
 Force Cnst:      0.0741                 0.0533                 0.0627
 Red. Mass:       2.8371                 1.8264                 1.8929
 IR Intens:        1.274                  3.996                  1.998
 Frequency:       267.74                 291.40                 305.33
 Force Cnst:      0.1518                 0.2047                 0.1898
 Red. Mass:       3.5941                 4.0925                 3.4550
 IR Intens:        3.026                  5.365                 13.012
 Frequency:       330.00                 346.18                 360.52
 Force Cnst:      0.2209                 0.2873                 0.2177
 Red. Mass:       3.4437                 4.0689                 2.8428
 IR Intens:        2.589                 12.960                  3.011
 Frequency:       388.62                 469.49                 575.75
 Force Cnst:      0.4602                 0.4728                 0.8679
 Red. Mass:       5.1718                 3.6409                 4.4438
 IR Intens:        8.852                 10.468                 18.833
 Frequency:       617.02                 619.03                 651.62
 Force Cnst:      1.0253                 1.1899                 1.0825
 Red. Mass:       4.5711                 5.2703                 4.3271
 IR Intens:        7.038                 10.847                  1.967
 Frequency:       699.21                 750.88                 798.30
 Force Cnst:      1.5154                 2.1150                 1.0582
 Red. Mass:       5.2610                 6.3668                 2.8183
 IR Intens:        6.950                  4.739                  9.186
 Frequency:       811.87                 837.89                 844.73
 Force Cnst:      1.1185                 1.6852                 1.9131
 Red. Mass:       2.8802                 4.0740                 4.5505
 IR Intens:        6.875                 17.972                  5.089
 Frequency:       858.65                 887.96                 895.74
 Force Cnst:      1.2496                 1.2501                 1.1398
 Red. Mass:       2.8767                 2.6909                 2.4111
 IR Intens:        6.186                  5.980                  8.625
 Frequency:       924.56                 936.46                 961.45
 Force Cnst:      1.2445                 1.5006                 2.6151
 Red. Mass:       2.4710                 2.9042                 4.8016
 IR Intens:        5.208                  9.022                 12.327
 Frequency:       982.64                 994.85                1008.10
 Force Cnst:      2.2358                 1.7158                 2.3279
 Red. Mass:       3.9300                 2.9424                 3.8878
 IR Intens:        8.727                  9.102                 45.467
 Frequency:      1034.77                1064.66                1068.72
 Force Cnst:      1.1844                 2.1390                 1.8774
 Red. Mass:       1.8774                 3.2029                 2.7899
 IR Intens:       19.330                 24.542                 52.266
 Frequency:      1124.16                1141.60                1170.38
 Force Cnst:      1.4959                 1.2145                 1.1256
 Red. Mass:       2.0091                 1.5817                 1.3947
 IR Intens:       22.814                 46.291                 43.923
 Frequency:      1172.54                1180.99                1184.94
 Force Cnst:      1.0382                 1.7065                 1.6623
 Red. Mass:       1.2817                 2.0767                 2.0094
 IR Intens:        1.910                242.847                193.387
 Frequency:      1205.17                1206.56                1210.97
 Force Cnst:      1.3316                 1.3258                 1.3525
 Red. Mass:       1.5561                 1.5457                 1.5653
 IR Intens:       12.684                  8.115                 24.256
 Frequency:      1217.62                1220.17                1256.75
 Force Cnst:      1.6849                 1.9211                 1.4337
 Red. Mass:       1.9288                 2.1901                 1.5407
 IR Intens:      112.207                174.776                  6.320
 Frequency:      1259.38                1292.57                1318.68
 Force Cnst:      1.1688                 1.8206                 1.5295
 Red. Mass:       1.2508                 1.8496                 1.4929
 IR Intens:        2.753                 11.523                 17.263
 Frequency:      1329.47                1336.14                1367.09
 Force Cnst:      1.5499                 1.9287                 1.7283
 Red. Mass:       1.4883                 1.8336                 1.5696
 IR Intens:       14.754                 11.889                 60.138
 Frequency:      1390.04                1418.65                1466.18
 Force Cnst:      1.8232                 1.5854                 1.5223
 Red. Mass:       1.6015                 1.3370                 1.2019
 IR Intens:       58.225                 17.808                 18.408
 Frequency:      1471.03                1482.33                1483.03
 Force Cnst:      1.5141                 1.3951                 1.3527
 Red. Mass:       1.1876                 1.0776                 1.0438
 IR Intens:       10.222                  2.314                  7.319
 Frequency:      1486.84                1490.95                1497.96
 Force Cnst:      1.3599                 1.3798                 1.3819
 Red. Mass:       1.0441                 1.0535                 1.0453
 IR Intens:       10.189                  4.396                  9.211
 Frequency:      1498.48                1503.90                1508.93
 Force Cnst:      1.3847                 1.4108                 1.4645
 Red. Mass:       1.0467                 1.0587                 1.0917
 IR Intens:       10.130                 10.869                  7.103
 Frequency:      1795.67                1807.78                3039.33
 Force Cnst:     22.2621                21.3613                 5.6632
 Red. Mass:      11.7183                11.0939                 1.0405
 IR Intens:      149.852                309.948                 17.461
 Frequency:      3049.57                3050.84                3055.90
 Force Cnst:      5.6388                 5.6465                 5.8318
 Red. Mass:       1.0291                 1.0297                 1.0599
 IR Intens:       38.011                 36.410                 27.668
 Frequency:      3065.75                3072.17                3086.02
 Force Cnst:      5.8781                 6.0247                 6.0861
 Red. Mass:       1.0615                 1.0834                 1.0847
 IR Intens:       30.953                 12.467                  9.836
 Frequency:      3093.52                3098.27                3113.44
 Force Cnst:      6.2335                 6.2335                 6.3152
 Red. Mass:       1.1055                 1.1022                 1.1058
 IR Intens:        2.606                 13.896                 49.399
 Frequency:      3125.30                3125.49                3150.58
 Force Cnst:      6.3727                 6.3716                 6.3744
 Red. Mass:       1.1074                 1.1070                 1.0900
 IR Intens:       16.454                 15.985                 14.949
 Frequency:      3152.80                3158.21                3160.19
 Force Cnst:      6.4806                 6.5018                 6.4584
 Red. Mass:       1.1065                 1.1064                 1.0976
 IR Intens:       15.889                 13.367                  1.590

 STANDARD THERMODYNAMIC QUANTITIES AT   298.15 K  AND     1.00 ATM

   This Molecule has  1 Imaginary Frequencies
   Zero point vibrational energy:      166.336 kcal/mol

   Atom    1 Element C  Has Mass   12.00000
   Atom    2 Element C  Has Mass   12.00000
   Atom    3 Element C  Has Mass   12.00000
   Atom    4 Element C  Has Mass   12.00000
   Atom    5 Element O  Has Mass   15.99491
   Atom    6 Element O  Has Mass   15.99491
   Atom    7 Element O  Has Mass   15.99491
   Atom    8 Element O  Has Mass   15.99491
   Atom    9 Element C  Has Mass   12.00000
   Atom   10 Element C  Has Mass   12.00000
   Atom   11 Element C  Has Mass   12.00000
   Atom   12 Element C  Has Mass   12.00000
   Atom   13 Element C  Has Mass   12.00000
   Atom   14 Element C  Has Mass   12.00000
   Atom   15 Element O  Has Mass   15.99491
   Atom   16 Element H  Has Mass    1.00783
   Atom   17 Element H  Has Mass    1.00783
   Atom   18 Element H  Has Mass    1.00783
   Atom   19 Element H  Has Mass    1.00783
   Atom   20 Element H  Has Mass    1.00783
   Atom   21 Element H  Has Mass    1.00783
   Atom   22 Element H  Has Mass    1.00783
   Atom   23 Element H  Has Mass    1.00783
   Atom   24 Element H  Has Mass    1.00783
   Atom   25 Element H  Has Mass    1.00783
   Atom   26 Element H  Has Mass    1.00783
   Atom   27 Element H  Has Mass    1.00783
   Atom   28 Element H  Has Mass    1.00783
   Atom   29 Element C  Has Mass   12.00000
   Atom   30 Element H  Has Mass    1.00783
   Atom   31 Element H  Has Mass    1.00783
   Atom   32 Element H  Has Mass    1.00783
   Molecular Mass:   228.099830 amu
   Principal axes and moments of inertia in amu*Bohr^2:
                             1           2           3
    Eigenvalues --     2907.12473  3256.81072  5275.22638
          X               0.84227    -0.43071     0.32414
          Y               0.53683     0.61562    -0.57691
          Z               0.04894     0.65992     0.74974
   Rotational Symmetry Number is   1
   The Molecule is an Asymmetric Top
   Translational Enthalpy:        0.889 kcal/mol
   Rotational Enthalpy:           0.889 kcal/mol
   Vibrational Enthalpy:        173.891 kcal/mol
   gas constant (RT):             0.592 kcal/mol
   Translational Entropy:        42.176  cal/mol.K
   Rotational Entropy:           32.279  cal/mol.K
   Vibrational Entropy:          47.130  cal/mol.K

   Total Enthalpy:              176.261 kcal/mol
   Total Entropy:               121.585  cal/mol.K

 Total job time:  7908.39s(wall), 28345.16s(cpu)
        *  Thank you very much for using Q-Chem.  Have a nice day.  *
