 Q-Chem 5.0, Q-Chem, Inc., Pleasanton, CA (2017)
 Q-Chem 5.0.1 for Intel X86 EM64T Linux

User input:
--------------------------------------------------------------
$molecule
0 1
  C      1.13316797     -2.45623585      0.30792141
  C      0.16579947     -1.88075003      1.40044590
  C      0.23419104     -0.37974680      1.58658888
  C      2.16630111     -1.45552961     -0.18407275
  O      0.04283647     -0.05829890      2.88455063
  O      0.38261842      0.43909951      0.71419111
  O      2.04280665     -1.16504129     -1.48651243
  O      3.03624082     -1.01341787      0.52866059
  C      2.94204311     -0.16308233     -1.99666493
  C      0.03625271      1.34975004      3.18679496
  C      0.12757807     -3.02080729     -0.72790993
  C     -0.43430545     -4.35539199     -0.19633653
  C     -1.35076838     -3.84695163      0.95246665
  C     -1.22887407     -2.30460586      0.80122201
  O     -1.00032046     -2.14455926     -0.60732956
  H      1.72462268     -3.25832224      0.75567522
  H      0.32861749     -2.34752170      2.37006932
  H      3.97849341     -0.48187277     -1.87672824
  H     -0.78141171      1.84806241      2.66314921
  H     -1.01606326     -4.85183896     -0.97431766
  H      0.34595887     -5.04277542      0.13694307
  H     -2.38798935     -4.15199508      0.80235324
  H     -1.04069265     -4.19050479      1.94144863
  H      2.68952030     -0.05853548     -3.04945856
  H      2.78426119      0.77705961     -1.46715221
  H      0.98296528      1.80346531      2.89131392
  H     -0.10249750      1.41404592      4.26362902
  H      0.48299433     -3.02373940     -1.75342082
  C     -2.43316019     -1.50544519      1.24602229
  H     -3.32872278     -1.87884432      0.74497892
  H     -2.57406418     -1.59554821      2.32578396
  H     -2.31493939     -0.44989052      0.99379463
$end

$rem
sym_ignore      true
jobtype         opt
method          b3lyp
basis           6-311++G(d,p)
dft_d           d3_op
mem_total       62000
MEM_STATIC      4000
ao2mo_disk      350000
max_scf_cycles  200
geom_opt_max_cycles 1000
geom_opt_tol_displacement 1
GEOM_OPT_TOL_GRADIENT       1
GEOM_OPT_TOL_ENERGY         1
geom_opt_dmax    50
$end

--------------------------------------------------------------

   15    -805.1970100857      3.72E-09 Convergence criterion met
 Total energy in the final basis set = -805.19701009
    6    -805.1970100583      8.95E-09 Convergence criterion met
 Total energy in the final basis set = -805.19701006
    7    -805.1970101263      7.53E-09 Convergence criterion met
 Total energy in the final basis set = -805.19701013
    7    -805.1970100965      5.39E-09 Convergence criterion met
 Total energy in the final basis set = -805.19701010
    6    -805.1970100786      3.92E-09 Convergence criterion met
 Total energy in the final basis set = -805.19701008
    7    -805.1970101143      8.64E-09 Convergence criterion met
 Total energy in the final basis set = -805.19701011
    8    -805.1970098823      8.56E-09 Convergence criterion met
 Total energy in the final basis set = -805.19700988
    8    -805.1970100833      6.96E-09 Convergence criterion met
    6    -805.1970100825      8.18E-09 Convergence criterion met
 Total energy in the final basis set = -805.19701008
    7    -805.1970101147      5.72E-09 Convergence criterion met
 Total energy in the final basis set = -805.19701011
    7    -805.1970100648      9.14E-09 Convergence criterion met
 Total energy in the final basis set = -805.19701006
    8    -805.1970101352      4.10E-09 Convergence criterion met
 Total energy in the final basis set = -805.19701014
    7    -805.1970100955      9.21E-09 Convergence criterion met
 Total energy in the final basis set = -805.19701010
    2    -805.1970100960      5.13E-09 Convergence criterion met
 Total energy in the final basis set = -805.19701010
 Final energy is   -805.197010096015
 **  OPTIMIZATION CONVERGED  **
 Total job time:  711.74s(wall), 11612.37s(cpu)
        *  Thank you very much for using Q-Chem.  Have a nice day.  *

User input: 2 of 2

r0240.ten.osc.edu 10.25.157
Q-Chem Developer Version! Running on 10.25.157.*
                  Welcome to Q-Chem
     A Quantum Leap Into The Future Of Chemistry

 Q-Chem 5.0, Q-Chem, Inc., Pleasanton, CA (2017)

 Yihan Shao,  Zhengting Gan,  E. Epifanovsky,  A. T. B. Gilbert,  M. Wormit,
 J. Kussmann,  A. W. Lange,  A. Behn,  Jia Deng,  Xintian Feng,  D. Ghosh,
 M. Goldey,  P. R. Horn,  L. D. Jacobson,  I. Kaliman,  T. Kus,  A. Landau,
 Jie Liu,  E. I. Proynov,  R. M. Richard,  R. P. Steele,  E. J. Sundstrom,
 H. L. Woodcock III,  P. M. Zimmerman,  D. Zuev,  B. Albrecht,  E. Alguire,
 S. A. Baeppler,  Z. Benda,  Y. A. Bernard,  E. J. Berquist,  K. B. Bravaya,
 D. Casanova,  Chun-Min Chang,  Yunqing Chen,  A. Chien,  K. D. Closser,
 M. P. Coons,  S. Dasgupta,  M. Diedenhofen,  Hainam Do,  R. G. Edgar,
 Po-Tung Fang,  S. Fatehi,  Qingguo Feng,  Qinghui Ge,  A. Ghysels,
 J. Gomes,  J. Gonthier,  A. Gunina,  M. W. D. Hanson-Heine,
 P. H. P. Harbach,  A. W. Hauser,  J. E. Herr,  E. G. Hohenstein,
 Z. C. Holden,  Kerwin Hui,  T.-C. Jagau,  Hyunjun Ji,  B. Kaduk,
 K. Khistyaev,  Jaehoon Kim,  P. Klunzinger,  K. Koh,  D. Kosenkov,
 T. Kowalczyk,  C. M. Krauter,  A. Kunitsa,  Ka Un Lao,  A. Laurent,
 K. V. Lawler,  Joonho Lee,  D. Lefrancois,  S. Lehtola,  D. S. Levine,
 Yi-Pei Li,  You-Sheng Lin,  Fenglai Liu,  E. Livshits,  A. Luenser,
 P. Manohar,  E. Mansoor,  S. F. Manzer,  Shan-Ping Mao,  Yuezhi Mao,
 N. Mardirossian,  A. V. Marenich,  L. A. Martinez-Martinez,  S. A. Maurer,
 N. J. Mayhall,  S. C. McKenzie,  J.-M. Mewes,  A. F. Morrison,  K. Nanda,
 T. S. Nguyen-Beck,  R. Olivares-Amaya,  J. A. Parkhill,  T. M. Perrine,
 F. Plasser,  S. Prager,  A. Prociuk,  D. R. Rehn,  F. Rob,  M. Schneider,
 N. Sergueev,  S. M. Sharada,  S. Sharma,  D. W. Small,  T. Stauch,
 T. Stein,  Yu-Chuan Su,  A. J. W. Thom,  T. Tsuchimochi,  L. Vogt,
 O. Vydrov,  M. A. Watson,  J. Wenzel,  M. de Wergifosse,  T. A. Wesolowski,
 A. White,  J. Witte,  A. Yamada,  Jun Yang,  K. Yao,  S. Yeganeh,
 S. R. Yost,  Zhi-Qiang You,  A. Zech,  Igor Ying Zhang,  Xing Zhang,
 Yan Zhao,  Ying Zhu,  B. R. Brooks,  G. K. L. Chan,  C. J. Cramer,
 M. S. Gordon,  W. J. Hehre,  A. Klamt,  M. W. Schmidt,  C. D. Sherrill,
 D. G. Truhlar,  A. Aspuru-Guzik,  R. Baer,  A. T. Bell,  N. A. Besley,
 Jeng-Da Chai,  A. Dreuw,  B. D. Dunietz,  T. R. Furlani,  Chao-Ping Hsu,
 Yousung Jung,  Jing Kong,  D. S. Lambrecht,  WanZhen Liang,  C. Ochsenfeld,
 V. A. Rassolov,  L. V. Slipchenko,  J. E. Subotnik,  T. Van Voorhis,
 J. M. Herbert,  A. I. Krylov,  P. M. W. Gill,  M. Head-Gordon

 Contributors to earlier versions of Q-Chem not listed above:
 R. D. Adamson,  B. Austin,  J. Baker,  G. J. O. Beran,  K. Brandhorst,
 S. T. Brown,  E. F. C. Byrd,  A. K. Chakraborty,  C.-L. Cheng,
 Siu Hung Chien,  D. M. Chipman,  D. L. Crittenden,  H. Dachsel,
 R. A. DiStasio Jr.,  R. J. Doerksen,  A. D. Dutoi,  L. Fusti-Molnar,
 W. A. Goddard III,  A. Golubeva-Zadorozhnaya,  S. R. Gwaltney,  G. Hawkins,
 A. Heyden,  S. Hirata,  G. Kedziora,  F. J. Keil,  C. Kelley,  Jihan Kim,
 R. A. King,  R. Z. Khaliullin,  P. P. Korambath,  W. Kurlancheek,
 A. M. Lee,  M. S. Lee,  S. V. Levchenko,  Ching Yeh Lin,  D. Liotard,
 R. C. Lochan,  I. Lotan,  P. E. Maslen,  N. Nair,  D. P. O'Neill,
 D. Neuhauser,  E. Neuscamman,  C. M. Oana,  R. Olson,  B. Peters,
 R. Peverati,  P. A. Pieniazek,  Y. M. Rhee,  J. Ritchie,  M. A. Rohrdanz,
 E. Rosta,  N. J. Russ,  H. F. Schaefer III,  N. E. Schultz,  N. Shenvi,
 A. C. Simmonett,  A. Sodt,  D. Stuck,  K. S. Thanthiriwatte,  V. Vanovschi,
 Tao Wang,  A. Warshel,  C. F. Williams,  Q. Wu,  X. Xu,  W. Zhang

 Please cite Q-Chem as follows:
 Y. Shao et al., Mol. Phys. 113, 184-215 (2015)
 DOI: 10.1080/00268976.2014.952696

 Q-Chem 5.0.1 for Intel X86 EM64T Linux

 Parts of Q-Chem use Armadillo 5.200.1 (Boston Tea Smuggler).
 http://arma.sourceforge.net/

 Q-Chem begins on Tue Oct 17 15:13:47 2017

Host: r0240.ten.osc.edu
0

     Scratch files written to /tmp/pbstmp.1311793/3//
Processing $rem in /users/PAS0291/osu6415/.qchemrc.
molden_format             true
The previous job contains 0 fragments, simply inherited here

Checking the input file for inconsistencies... 	...done.

--------------------------------------------------------------
User input:
--------------------------------------------------------------

$molecule
read
$end

$rem
sym_ignore      true
scf_guess       read
jobtype         freq
method          b3lyp
basis           6-311++G(d,p)
dft_d           d3_op
mem_total       62000
MEM_STATIC      4000
ao2mo_disk      350000
max_scf_cycles  200
$end
--------------------------------------------------------------

             Standard Nuclear Orientation (Angstroms)
    I     Atom           X                Y                Z
 ----------------------------------------------------------------
    1      C       1.1331292119    -2.4561868270     0.3078420360
    2      C       0.1658789408    -1.8807113094     1.4004601128
    3      C       0.2342536848    -0.3796986246     1.5865671787
    4      C       2.1663593449    -1.4555587776    -0.1841054706
    5      O       0.0426277474    -0.0582204106     2.8844900520
    6      O       0.3828487979     0.4391268514     0.7141848885
    7      O       2.0429524572    -1.1650734950    -1.4865588534
    8      O       3.0363302800    -1.0135497509     0.5286496730
    9      C       2.9423725697    -0.1632827115    -1.9967292339
   10      C       0.0359285521     1.3498302566     3.1867223539
   11      C       0.1274382403    -3.0206031028    -0.7279792818
   12      C      -0.4343956703    -4.3552487988    -0.1965264959
   13      C      -1.3506681008    -3.8469536478     0.9524940426
   14      C      -1.2288582241    -2.3045778240     0.8013888509
   15      O      -1.0004630659    -2.1443892609    -0.6071801256
   16      H       1.7245210583    -3.2583797203     0.7554950226
   17      H       0.3288041150    -2.3474532659     2.3700778557
   18      H       3.9787783019    -0.4820547499    -1.8763837020
   19      H      -0.7820643429     1.8479824217     2.6634275123
   20      H      -1.0163019711    -4.8515274403    -0.9745042401
   21      H       0.3458864348    -5.0427309828     0.1365064727
   22      H      -2.3879027975    -4.1520337353     0.8025556469
   23      H      -1.0403863683    -4.1905758787     1.9413870434
   24      H       2.6901708434    -0.0590170050    -3.0496275644
   25      H       2.7844526265     0.7770124298    -1.4675277127
   26      H       0.9824180615     1.8037315671     2.8908275038
   27      H      -0.1023897342     1.4141225410     4.2636121354
   28      H       0.4827675735    -3.0234083013    -1.7535202302
   29      C      -2.4331785142    -1.5055636153     1.2463641717
   30      H      -3.3286849798    -1.8788589097     0.7451425391
   31      H      -2.5741425718    -1.5959930189     2.3260892735
   32      H      -2.3150224810    -0.4499248935     0.9944584950
 ----------------------------------------------------------------

    3    -805.1970100963      1.47E-09 Convergence criterion met
 Total energy in the final basis set = -805.19701010

                    Orbital Energies (a.u.)
 --------------------------------------------------------------

 Alpha MOs
 -- Occupied --
-19.174 -19.169 -19.128 -19.115 -19.108 -10.304 -10.302 -10.245
-10.229 -10.228 -10.222 -10.203 -10.202 -10.180 -10.179 -10.170
 -1.115  -1.109  -1.062  -1.028  -1.021  -0.829  -0.795  -0.781
 -0.745  -0.725  -0.692  -0.651  -0.603  -0.592  -0.565  -0.560
 -0.527  -0.512  -0.506  -0.490  -0.489  -0.483  -0.476  -0.469
 -0.457  -0.439  -0.432  -0.423  -0.412  -0.400  -0.391  -0.383
 -0.377  -0.370  -0.364  -0.361  -0.354  -0.352  -0.334  -0.332
 -0.316  -0.306  -0.290  -0.277  -0.268

          Ground-State Mulliken Net Atomic Charges

     Atom                 Charge (a.u.)
  ----------------------------------------
      1 C                     0.309442
      2 C                     0.279609
      3 C                    -0.856128
      4 C                    -0.716360
      5 O                     0.011274
      6 O                    -0.153964
      7 O                    -0.001196
      8 O                    -0.190995
      9 C                    -0.194182
     10 C                    -0.217857
     11 C                     0.021236
     12 C                    -0.580373
     13 C                    -0.281824
     14 C                    -0.005906
     15 O                    -0.067109
     16 H                     0.247495
     17 H                     0.303493
     18 H                     0.166650
     19 H                     0.173464
     20 H                     0.183190
     21 H                     0.122401
     22 H                     0.167275
     23 H                     0.143832
     24 H                     0.149700
     25 H                     0.187345
     26 H                     0.182175
     27 H                     0.150536
     28 H                     0.303537
     29 C                    -0.384886
     30 H                     0.175744
     31 H                     0.161854
     32 H                     0.210525
  ----------------------------------------
  Sum of atomic charges =    -0.000000

                    Cartesian Multipole Moments
 -----------------------------------------------------------------
    Charge (ESU x 10^10)
                -0.0000
    Dipole Moment (Debye)
         X      -1.0840      Y      -1.4323      Z       0.9583
       Tot       2.0359
    Quadrupole Moments (Debye-Ang)
        XX     -98.2844     XY       1.2532     YY     -82.5154
        XZ      -9.5768     YZ       1.1862     ZZ     -88.2657

 Frequency:        37.97                  41.29                  60.12
 Force Cnst:      0.0032                 0.0054                 0.0089
 Red. Mass:       3.7382                 5.3401                 4.1695
 IR Intens:        2.774                  4.890                  1.146
 Frequency:       114.40                 123.96                 143.30
 Force Cnst:      0.0224                 0.0179                 0.0415
 Red. Mass:       2.9013                 1.9782                 3.4289
 IR Intens:        0.446                  0.010                  1.606
 Frequency:       150.78                 159.62                 173.53
 Force Cnst:      0.0164                 0.0275                 0.0561
 Red. Mass:       1.2216                 1.8351                 3.1619
 IR Intens:        0.294                  0.070                  0.652
 Frequency:       214.04                 234.25                 254.23
 Force Cnst:      0.1055                 0.0905                 0.1200
 Red. Mass:       3.9089                 2.7984                 3.1510
 IR Intens:        1.811                  4.728                  1.197
 Frequency:       262.06                 284.94                 310.48
 Force Cnst:      0.0504                 0.1920                 0.1886
 Red. Mass:       1.2446                 4.0140                 3.3202
 IR Intens:        0.998                  3.311                 18.930
 Frequency:       327.96                 347.35                 374.66
 Force Cnst:      0.2152                 0.2307                 0.3393
 Red. Mass:       3.3963                 3.2453                 4.1022
 IR Intens:        2.551                  7.507                  6.323
 Frequency:       391.96                 454.98                 570.39
 Force Cnst:      0.3408                 0.5830                 0.7241
 Red. Mass:       3.7650                 4.7803                 3.7775
 IR Intens:        8.681                  1.974                 16.152
 Frequency:       596.09                 651.16                 667.46
 Force Cnst:      1.0786                 0.9885                 1.3652
 Red. Mass:       5.1520                 3.9569                 5.2011
 IR Intens:       10.525                  0.680                  7.053
 Frequency:       705.78                 739.37                 800.99
 Force Cnst:      1.7807                 1.7246                 1.3175
 Red. Mass:       6.0672                 5.3545                 3.4854
 IR Intens:        4.575                  9.432                  7.686
 Frequency:       827.50                 849.00                 855.20
 Force Cnst:      0.8808                 2.1195                 1.3408
 Red. Mass:       2.1831                 4.9908                 3.1116
 IR Intens:        7.479                 24.861                  2.330
 Frequency:       862.46                 884.38                 895.89
 Force Cnst:      2.1144                 1.2383                 1.0599
 Red. Mass:       4.8244                 2.6871                 2.2413
 IR Intens:        2.024                 19.838                  7.308
 Frequency:       925.99                 937.79                 954.50
 Force Cnst:      1.3802                 1.4168                 2.2990
 Red. Mass:       2.7319                 2.7342                 4.2829
 IR Intens:        5.106                  7.268                  7.832
 Frequency:       988.51                 989.90                1014.52
 Force Cnst:      1.7377                 2.0559                 2.4965
 Red. Mass:       3.0183                 3.5609                 4.1167
 IR Intens:        7.050                  9.772                 38.142
 Frequency:      1041.58                1059.91                1067.24
 Force Cnst:      1.1905                 2.0057                 2.2747
 Red. Mass:       1.8625                 3.0303                 3.3896
 IR Intens:        9.120                 45.376                 51.322
 Frequency:      1126.08                1140.39                1171.46
 Force Cnst:      1.3924                 1.2688                 1.0414
 Red. Mass:       1.8637                 1.6559                 1.2879
 IR Intens:       14.629                  6.428                  1.703
 Frequency:      1171.47                1182.64                1204.18
 Force Cnst:      1.0420                 1.9428                 1.4337
 Red. Mass:       1.2888                 2.3576                 1.6782
 IR Intens:        2.668                314.572                 12.608
 Frequency:      1207.29                1208.44                1212.50
 Force Cnst:      1.3098                 1.3001                 1.3161
 Red. Mass:       1.5252                 1.5111                 1.5195
 IR Intens:       21.409                  9.329                 67.981
 Frequency:      1220.87                1255.78                1261.77
 Force Cnst:      1.5701                 1.3193                 1.5855
 Red. Mass:       1.7878                 1.4199                 1.6903
 IR Intens:       62.082                  2.997                 34.583
 Frequency:      1282.76                1290.05                1315.05
 Force Cnst:      1.5530                 2.7500                 1.6163
 Red. Mass:       1.6019                 2.8046                 1.5863
 IR Intens:       40.524                230.818                 20.952
 Frequency:      1327.85                1337.75                1367.51
 Force Cnst:      1.6489                 1.6365                 1.6680
 Red. Mass:       1.5872                 1.5521                 1.5139
 IR Intens:        6.791                  8.794                  6.943
 Frequency:      1392.23                1422.29                1468.98
 Force Cnst:      1.8511                 1.6324                 1.5427
 Red. Mass:       1.6209                 1.3696                 1.2134
 IR Intens:       85.371                 18.802                 17.942
 Frequency:      1470.02                1482.96                1483.74
 Force Cnst:      1.5385                 1.3528                 1.3548
 Red. Mass:       1.2083                 1.0441                 1.0445
 IR Intens:       14.774                 11.228                  9.351
 Frequency:      1485.15                1489.23                1496.49
 Force Cnst:      1.3901                 1.3937                 1.3793
 Red. Mass:       1.0697                 1.0666                 1.0453
 IR Intens:        5.575                  1.678                  2.359
 Frequency:      1497.10                1510.26                1514.76
 Force Cnst:      1.3824                 1.4232                 1.4657
 Red. Mass:       1.0468                 1.0591                 1.0842
 IR Intens:       14.428                 11.857                  4.989
 Frequency:      1775.80                1794.19                3042.30
 Force Cnst:     21.0241                20.6865                 5.6452
 Red. Mass:      11.3156                10.9069                 1.0352
 IR Intens:      290.332                179.470                 11.543
 Frequency:      3050.04                3051.75                3054.67
 Force Cnst:      5.6446                 5.6486                 5.8243
 Red. Mass:       1.0299                 1.0294                 1.0594
 IR Intens:       32.586                 37.730                 29.159
 Frequency:      3064.13                3073.57                3091.97
 Force Cnst:      5.8784                 6.0220                 6.2374
 Red. Mass:       1.0627                 1.0819                 1.1073
 IR Intens:       29.572                 14.023                  0.084
 Frequency:      3109.64                3112.35                3115.96
 Force Cnst:      6.2962                 6.2903                 6.3069
 Red. Mass:       1.1051                 1.1022                 1.1025
 IR Intens:       10.278                 35.541                 16.124
 Frequency:      3123.75                3124.13                3128.71
 Force Cnst:      6.2510                 6.3642                 6.3850
 Red. Mass:       1.0873                 1.1067                 1.1071
 IR Intens:       16.163                 16.620                 15.235
 Frequency:      3158.09                3158.16                3163.90
 Force Cnst:      6.5018                 6.5029                 6.4295
 Red. Mass:       1.1065                 1.1066                 1.0901
 IR Intens:       21.979                  6.241                 11.410

 STANDARD THERMODYNAMIC QUANTITIES AT   298.15 K  AND     1.00 ATM

   This Molecule has  0 Imaginary Frequencies
   Zero point vibrational energy:      166.599 kcal/mol

   Atom    1 Element C  Has Mass   12.00000
   Atom    2 Element C  Has Mass   12.00000
   Atom    3 Element C  Has Mass   12.00000
   Atom    4 Element C  Has Mass   12.00000
   Atom    5 Element O  Has Mass   15.99491
   Atom    6 Element O  Has Mass   15.99491
   Atom    7 Element O  Has Mass   15.99491
   Atom    8 Element O  Has Mass   15.99491
   Atom    9 Element C  Has Mass   12.00000
   Atom   10 Element C  Has Mass   12.00000
   Atom   11 Element C  Has Mass   12.00000
   Atom   12 Element C  Has Mass   12.00000
   Atom   13 Element C  Has Mass   12.00000
   Atom   14 Element C  Has Mass   12.00000
   Atom   15 Element O  Has Mass   15.99491
   Atom   16 Element H  Has Mass    1.00783
   Atom   17 Element H  Has Mass    1.00783
   Atom   18 Element H  Has Mass    1.00783
   Atom   19 Element H  Has Mass    1.00783
   Atom   20 Element H  Has Mass    1.00783
   Atom   21 Element H  Has Mass    1.00783
   Atom   22 Element H  Has Mass    1.00783
   Atom   23 Element H  Has Mass    1.00783
   Atom   24 Element H  Has Mass    1.00783
   Atom   25 Element H  Has Mass    1.00783
   Atom   26 Element H  Has Mass    1.00783
   Atom   27 Element H  Has Mass    1.00783
   Atom   28 Element H  Has Mass    1.00783
   Atom   29 Element C  Has Mass   12.00000
   Atom   30 Element H  Has Mass    1.00783
   Atom   31 Element H  Has Mass    1.00783
   Atom   32 Element H  Has Mass    1.00783
   Molecular Mass:   228.099830 amu
   Principal axes and moments of inertia in amu*Bohr^2:
                             1           2           3
    Eigenvalues --     2921.64887  3134.43953  5054.84313
          X               0.83386    -0.02734     0.55129
          Y               0.37450     0.76174    -0.52868
          Z              -0.40548     0.64731     0.64543
   Rotational Symmetry Number is   1
   The Molecule is an Asymmetric Top
   Translational Enthalpy:        0.889 kcal/mol
   Rotational Enthalpy:           0.889 kcal/mol
   Vibrational Enthalpy:        174.691 kcal/mol
   gas constant (RT):             0.592 kcal/mol
   Translational Entropy:        42.176  cal/mol.K
   Rotational Entropy:           32.204  cal/mol.K
   Vibrational Entropy:          52.078  cal/mol.K

   Total Enthalpy:              177.061 kcal/mol
   Total Entropy:               126.457  cal/mol.K

 Total job time:  8021.27s(wall), 28923.81s(cpu)
        *  Thank you very much for using Q-Chem.  Have a nice day.  *
