 Q-Chem 5.0, Q-Chem, Inc., Pleasanton, CA (2017)
 Q-Chem 5.0.1 for Intel X86 EM64T Linux

User input:
--------------------------------------------------------------
$molecule
0 1
C 0.34132101 1.09921635 0.77556664
C 0.44672165 -0.46216615 0.72226629
C -0.96181555 1.72891314 0.31445518
C -0.89749800 -1.16671763 0.62356704
O -1.35802239 1.27345698 -0.88728765
O -1.53530112 2.59634974 0.92775130
O -0.80476006 -2.40376988 0.10429265
O -1.92425606 -0.71881072 1.07367988
C -2.02060305 -3.17750826 0.08893977
C -2.61683916 1.77536821 -1.36722597
C 1.51264790 1.49105097 -0.17036185
C 2.85667598 1.19375646 0.52796359
C 2.92555835 -0.35296580 0.38639397
C 1.59116729 -0.67070235 -0.34849603
O 1.44491495 0.49171028 -1.18759657
H 0.49865869 1.47589619 1.78457810
H 0.81994127 -0.81550216 1.68971083
H -2.78893113 -2.66736263 -0.49311994
H -3.41750047 1.48605011 -0.68429623
H 3.67483850 1.67894317 -0.00631579
H 2.87683061 1.54002816 1.56315459
H 3.76598237 -0.65406362 -0.24117052
H 3.01555327 -0.87488086 1.34133871
H -1.75240365 -4.12439365 -0.37452835
H -2.38466865 -3.33439538 1.10521240
H -2.75811557 1.31548294 -2.34303516
H -2.59054787 2.86238571 -1.45531813
H 1.42140213 2.48023402 -0.61470460
C 1.62754270 -1.91493407 -1.20774819
H 2.49778027 -1.86032980 -1.86591222
H 1.70660755 -2.81160304 -0.59133402
H 0.72985633 -1.99944481 -1.81802757
$end

$rem
sym_ignore      true
jobtype         ts
method          b3lyp
basis           6-311++G(d,p)
dft_d           d3_op
mem_total       62000
MEM_STATIC      4000
ao2mo_disk      350000
max_scf_cycles  200
geom_opt_max_cycles 1000
geom_opt_tol_displacement 1
GEOM_OPT_TOL_GRADIENT       1
GEOM_OPT_TOL_ENERGY         1
$end

--------------------------------------------------------------

   15    -805.1903584716      3.40E-09 Convergence criterion met
 Total energy in the final basis set = -805.19035847
   12    -805.1901116154      6.83E-09 Convergence criterion met
 Total energy in the final basis set = -805.19011162
   12    -805.1903401030      6.93E-09 Convergence criterion met
 Total energy in the final basis set = -805.19034010
   11    -805.1902795456      9.30E-09 Convergence criterion met
 Total energy in the final basis set = -805.19027955
   11    -805.1902568985      6.89E-09 Convergence criterion met
 Total energy in the final basis set = -805.19025690
   11    -805.1903245457      8.42E-09 Convergence criterion met
 Total energy in the final basis set = -805.19032455
   11    -805.1903095528      4.41E-09 Convergence criterion met
 Total energy in the final basis set = -805.19030955
   12    -805.1901150469      5.72E-09 Convergence criterion met
    8    -805.1903832658      4.84E-09 Convergence criterion met
 Total energy in the final basis set = -805.19038327
    8    -805.1903834493      5.64E-09 Convergence criterion met
 Total energy in the final basis set = -805.19038345
    8    -805.1903837231      5.64E-09 Convergence criterion met
 Total energy in the final basis set = -805.19038372
    8    -805.1903835843      2.33E-09 Convergence criterion met
 Total energy in the final basis set = -805.19038358
    7    -805.1903836137      4.28E-09 Convergence criterion met
 Total energy in the final basis set = -805.19038361
    5    -805.1903836087      7.59E-09 Convergence criterion met
 Total energy in the final basis set = -805.19038361
 Final energy is   -805.190383608697
 **  OPTIMIZATION CONVERGED  **
 Total job time:  2787.00s(wall), 47699.27s(cpu)
        *  Thank you very much for using Q-Chem.  Have a nice day.  *

User input: 2 of 2

r0146.ten.osc.edu 10.25.154
Q-Chem Developer Version! Running on 10.25.154.*
                  Welcome to Q-Chem
     A Quantum Leap Into The Future Of Chemistry

 Q-Chem 5.0, Q-Chem, Inc., Pleasanton, CA (2017)

 Yihan Shao,  Zhengting Gan,  E. Epifanovsky,  A. T. B. Gilbert,  M. Wormit,
 J. Kussmann,  A. W. Lange,  A. Behn,  Jia Deng,  Xintian Feng,  D. Ghosh,
 M. Goldey,  P. R. Horn,  L. D. Jacobson,  I. Kaliman,  T. Kus,  A. Landau,
 Jie Liu,  E. I. Proynov,  R. M. Richard,  R. P. Steele,  E. J. Sundstrom,
 H. L. Woodcock III,  P. M. Zimmerman,  D. Zuev,  B. Albrecht,  E. Alguire,
 S. A. Baeppler,  Z. Benda,  Y. A. Bernard,  E. J. Berquist,  K. B. Bravaya,
 D. Casanova,  Chun-Min Chang,  Yunqing Chen,  A. Chien,  K. D. Closser,
 M. P. Coons,  S. Dasgupta,  M. Diedenhofen,  Hainam Do,  R. G. Edgar,
 Po-Tung Fang,  S. Fatehi,  Qingguo Feng,  Qinghui Ge,  A. Ghysels,
 J. Gomes,  J. Gonthier,  A. Gunina,  M. W. D. Hanson-Heine,
 P. H. P. Harbach,  A. W. Hauser,  J. E. Herr,  E. G. Hohenstein,
 Z. C. Holden,  Kerwin Hui,  T.-C. Jagau,  Hyunjun Ji,  B. Kaduk,
 K. Khistyaev,  Jaehoon Kim,  P. Klunzinger,  K. Koh,  D. Kosenkov,
 T. Kowalczyk,  C. M. Krauter,  A. Kunitsa,  Ka Un Lao,  A. Laurent,
 K. V. Lawler,  Joonho Lee,  D. Lefrancois,  S. Lehtola,  D. S. Levine,
 Yi-Pei Li,  You-Sheng Lin,  Fenglai Liu,  E. Livshits,  A. Luenser,
 P. Manohar,  E. Mansoor,  S. F. Manzer,  Shan-Ping Mao,  Yuezhi Mao,
 N. Mardirossian,  A. V. Marenich,  L. A. Martinez-Martinez,  S. A. Maurer,
 N. J. Mayhall,  S. C. McKenzie,  J.-M. Mewes,  A. F. Morrison,  K. Nanda,
 T. S. Nguyen-Beck,  R. Olivares-Amaya,  J. A. Parkhill,  T. M. Perrine,
 F. Plasser,  S. Prager,  A. Prociuk,  D. R. Rehn,  F. Rob,  M. Schneider,
 N. Sergueev,  S. M. Sharada,  S. Sharma,  D. W. Small,  T. Stauch,
 T. Stein,  Yu-Chuan Su,  A. J. W. Thom,  T. Tsuchimochi,  L. Vogt,
 O. Vydrov,  M. A. Watson,  J. Wenzel,  M. de Wergifosse,  T. A. Wesolowski,
 A. White,  J. Witte,  A. Yamada,  Jun Yang,  K. Yao,  S. Yeganeh,
 S. R. Yost,  Zhi-Qiang You,  A. Zech,  Igor Ying Zhang,  Xing Zhang,
 Yan Zhao,  Ying Zhu,  B. R. Brooks,  G. K. L. Chan,  C. J. Cramer,
 M. S. Gordon,  W. J. Hehre,  A. Klamt,  M. W. Schmidt,  C. D. Sherrill,
 D. G. Truhlar,  A. Aspuru-Guzik,  R. Baer,  A. T. Bell,  N. A. Besley,
 Jeng-Da Chai,  A. Dreuw,  B. D. Dunietz,  T. R. Furlani,  Chao-Ping Hsu,
 Yousung Jung,  Jing Kong,  D. S. Lambrecht,  WanZhen Liang,  C. Ochsenfeld,
 V. A. Rassolov,  L. V. Slipchenko,  J. E. Subotnik,  T. Van Voorhis,
 J. M. Herbert,  A. I. Krylov,  P. M. W. Gill,  M. Head-Gordon

 Contributors to earlier versions of Q-Chem not listed above:
 R. D. Adamson,  B. Austin,  J. Baker,  G. J. O. Beran,  K. Brandhorst,
 S. T. Brown,  E. F. C. Byrd,  A. K. Chakraborty,  C.-L. Cheng,
 Siu Hung Chien,  D. M. Chipman,  D. L. Crittenden,  H. Dachsel,
 R. A. DiStasio Jr.,  R. J. Doerksen,  A. D. Dutoi,  L. Fusti-Molnar,
 W. A. Goddard III,  A. Golubeva-Zadorozhnaya,  S. R. Gwaltney,  G. Hawkins,
 A. Heyden,  S. Hirata,  G. Kedziora,  F. J. Keil,  C. Kelley,  Jihan Kim,
 R. A. King,  R. Z. Khaliullin,  P. P. Korambath,  W. Kurlancheek,
 A. M. Lee,  M. S. Lee,  S. V. Levchenko,  Ching Yeh Lin,  D. Liotard,
 R. C. Lochan,  I. Lotan,  P. E. Maslen,  N. Nair,  D. P. O'Neill,
 D. Neuhauser,  E. Neuscamman,  C. M. Oana,  R. Olson,  B. Peters,
 R. Peverati,  P. A. Pieniazek,  Y. M. Rhee,  J. Ritchie,  M. A. Rohrdanz,
 E. Rosta,  N. J. Russ,  H. F. Schaefer III,  N. E. Schultz,  N. Shenvi,
 A. C. Simmonett,  A. Sodt,  D. Stuck,  K. S. Thanthiriwatte,  V. Vanovschi,
 Tao Wang,  A. Warshel,  C. F. Williams,  Q. Wu,  X. Xu,  W. Zhang

 Please cite Q-Chem as follows:
 Y. Shao et al., Mol. Phys. 113, 184-215 (2015)
 DOI: 10.1080/00268976.2014.952696

 Q-Chem 5.0.1 for Intel X86 EM64T Linux

 Parts of Q-Chem use Armadillo 5.200.1 (Boston Tea Smuggler).
 http://arma.sourceforge.net/

 Q-Chem begins on Sun Oct 15 23:54:51 2017

Host: r0146.ten.osc.edu
0

     Scratch files written to /tmp/pbstmp.1310576/14//
Processing $rem in /users/PAS0291/osu6415/.qchemrc.
molden_format             true
The previous job contains 0 fragments, simply inherited here

Checking the input file for inconsistencies... 	...done.

--------------------------------------------------------------
User input:
--------------------------------------------------------------

$molecule
read
$end

$rem
sym_ignore      true
scf_guess       read
jobtype         freq
method          b3lyp
basis           6-311++G(d,p)
dft_d           d3_op
mem_total       62000
MEM_STATIC      4000
ao2mo_disk      350000
max_scf_cycles  200
$end
--------------------------------------------------------------

             Standard Nuclear Orientation (Angstroms)
    I     Atom           X                Y                Z
 ----------------------------------------------------------------
    1      C       0.3365003618     1.1011491446     0.7816669038
    2      C       0.4452587127    -0.4583039797     0.7192533433
    3      C      -0.9577766780     1.7345655635     0.3011000421
    4      C      -0.8969669611    -1.1671257906     0.6320206083
    5      O      -1.3602218402     1.2526469726    -0.8878762745
    6      O      -1.5160321349     2.6301590953     0.8876960280
    7      O      -0.8004609542    -2.4081770206     0.1224510090
    8      O      -1.9238942339    -0.7193936603     1.0817443892
    9      C      -2.0124683192    -3.1877876604     0.1178365127
   10      C      -2.6078139187     1.7640779443    -1.3862350296
   11      C       1.5176935078     1.4985182120    -0.1499133227
   12      C       2.8561057793     1.1816859426     0.5517532220
   13      C       2.9225771573    -0.3620726863     0.3774603079
   14      C       1.5848750161    -0.6609074866    -0.3582943560
   15      O       1.4472641567     0.5141315828    -1.1814112084
   16      H       0.4807837386     1.4745852283     1.7938116487
   17      H       0.8268455953    -0.8141865134     1.6826715133
   18      H      -2.7832252575    -2.6893425209    -0.4711851328
   19      H      -3.4167045278     1.5061251371    -0.7004647268
   20      H       3.6799119773     1.6769103226     0.0357092303
   21      H       2.8682280897     1.5055202847     1.5944132365
   22      H       3.7595811819    -0.6508955980    -0.2603833462
   23      H       3.0154607506    -0.9038698794     1.3209572782
   24      H      -1.7398731795    -4.1395888787    -0.3328555970
   25      H      -2.3759217577    -3.3326412206     1.1361069953
   26      H      -2.7529712726     1.2821886840    -2.3508177816
   27      H      -2.5619939785     2.8478423552    -1.5017345053
   28      H       1.4363437703     2.4947217432    -0.5803375651
   29      C       1.6076903294    -1.8934514859    -1.2343503242
   30      H       2.4716945556    -1.8334213830    -1.9002349384
   31      H       1.6885280445    -2.7986456509    -0.6309481520
   32      H       0.7037203788    -1.9657251778    -1.8372178578
 ----------------------------------------------------------------

    2    -805.1903836093      7.68E-09 Convergence criterion met
 Total energy in the final basis set = -805.19038361

                    Orbital Energies (a.u.)
 --------------------------------------------------------------

 Alpha MOs
 -- Occupied --
-19.180 -19.162 -19.129 -19.120 -19.105 -10.313 -10.297 -10.244
-10.236 -10.235 -10.219 -10.210 -10.200 -10.181 -10.180 -10.165
 -1.122  -1.105  -1.063  -1.033  -1.017  -0.830  -0.794  -0.782
 -0.747  -0.724  -0.695  -0.651  -0.602  -0.596  -0.571  -0.562
 -0.523  -0.516  -0.505  -0.492  -0.488  -0.486  -0.475  -0.467
 -0.460  -0.439  -0.426  -0.421  -0.417  -0.407  -0.395  -0.382
 -0.373  -0.368  -0.366  -0.360  -0.356  -0.351  -0.337  -0.330
 -0.321  -0.302  -0.294  -0.272  -0.271

          Ground-State Mulliken Net Atomic Charges

     Atom                 Charge (a.u.)
  ----------------------------------------
      1 C                     0.228602
      2 C                     0.309303
      3 C                    -0.752634
      4 C                    -0.676793
      5 O                    -0.039464
      6 O                    -0.185206
      7 O                    -0.064431
      8 O                    -0.200792
      9 C                    -0.225680
     10 C                    -0.203613
     11 C                     0.257369
     12 C                    -0.404814
     13 C                    -0.549934
     14 C                    -0.156177
     15 O                    -0.026974
     16 H                     0.281750
     17 H                     0.255928
     18 H                     0.184399
     19 H                     0.191103
     20 H                     0.184794
     21 H                     0.126594
     22 H                     0.169527
     23 H                     0.140481
     24 H                     0.148657
     25 H                     0.181150
     26 H                     0.148237
     27 H                     0.172493
     28 H                     0.276766
     29 C                    -0.294184
     30 H                     0.155524
     31 H                     0.182038
     32 H                     0.185980
  ----------------------------------------
  Sum of atomic charges =     0.000000

                    Cartesian Multipole Moments
 -----------------------------------------------------------------
    Charge (ESU x 10^10)
                -0.0000
    Dipole Moment (Debye)
         X       1.6999      Y      -3.1302      Z      -0.6829
       Tot       3.6268
    Quadrupole Moments (Debye-Ang)
        XX     -90.8757     XY       7.3390     YY     -92.1125
        XZ      10.6652     YZ      -4.5831     ZZ     -97.4563

 Frequency:       -21.44                  36.31                  78.02
 Force Cnst:      0.0015                 0.0029                 0.0109
 Red. Mass:       5.6097                 3.7915                 3.0406
 IR Intens:        0.943                  0.488                  2.017
 Frequency:        85.91                 115.23                 134.50
 Force Cnst:      0.0218                 0.0133                 0.0182
 Red. Mass:       5.0090                 1.7014                 1.7059
 IR Intens:        2.293                  1.699                  0.936
 Frequency:       137.87                 156.55                 162.65
 Force Cnst:      0.0129                 0.0659                 0.0521
 Red. Mass:       1.1475                 4.5669                 3.3416
 IR Intens:        0.077                  0.995                  1.533
 Frequency:       233.60                 248.64                 270.45
 Force Cnst:      0.1653                 0.0883                 0.0547
 Red. Mass:       5.1425                 2.4252                 1.2702
 IR Intens:        0.989                  3.844                  1.002
 Frequency:       276.14                 297.66                 307.12
 Force Cnst:      0.1793                 0.1869                 0.1684
 Red. Mass:       3.9902                 3.5795                 3.0307
 IR Intens:        7.902                  4.265                  1.125
 Frequency:       331.83                 340.80                 364.20
 Force Cnst:      0.1831                 0.2376                 0.2423
 Red. Mass:       2.8224                 3.4724                 3.1000
 IR Intens:        3.233                 14.757                  6.797
 Frequency:       385.94                 463.45                 574.77
 Force Cnst:      0.6955                 0.5657                 0.7436
 Red. Mass:       7.9254                 4.4700                 3.8203
 IR Intens:        6.413                  1.100                  8.418
 Frequency:       584.29                 635.08                 650.91
 Force Cnst:      1.0319                 1.0111                 0.9973
 Red. Mass:       5.1302                 4.2547                 3.9950
 IR Intens:       17.725                  4.986                  3.593
 Frequency:       724.65                 754.01                 792.91
 Force Cnst:      1.9251                 1.8542                 1.3324
 Red. Mass:       6.2222                 5.5354                 3.5970
 IR Intens:        1.182                  4.983                 12.475
 Frequency:       818.61                 836.54                 847.30
 Force Cnst:      1.9513                 0.9785                 1.1088
 Red. Mass:       4.9422                 2.3731                 2.6214
 IR Intens:       28.401                  2.679                  4.355
 Frequency:       852.70                 875.94                 897.35
 Force Cnst:      1.8635                 1.4188                 1.1545
 Red. Mass:       4.3499                 3.1385                 2.4335
 IR Intens:        8.328                  3.532                 13.142
 Frequency:       920.91                 940.47                 964.74
 Force Cnst:      1.3485                 1.4526                 1.6290
 Red. Mass:       2.6989                 2.7875                 2.9707
 IR Intens:        8.027                 19.370                  2.187
 Frequency:       967.99                 990.69                1024.70
 Force Cnst:      2.3075                 1.6132                 2.2824
 Red. Mass:       4.1799                 2.7897                 3.6893
 IR Intens:        4.247                 13.060                 35.561
 Frequency:      1032.48                1061.95                1073.17
 Force Cnst:      1.2289                 2.3253                 2.4616
 Red. Mass:       1.9566                 3.4997                 3.6278
 IR Intens:       17.824                 43.994                 72.819
 Frequency:      1119.22                1138.56                1168.28
 Force Cnst:      1.3281                 1.2724                 1.0337
 Red. Mass:       1.7995                 1.6660                 1.2855
 IR Intens:       34.315                 15.496                  1.297
 Frequency:      1169.44                1193.14                1200.52
 Force Cnst:      1.0327                 1.5172                 1.4802
 Red. Mass:       1.2817                 1.8089                 1.7431
 IR Intens:        0.813                 29.768                 38.841
 Frequency:      1206.31                1209.14                1211.75
 Force Cnst:      1.2947                 1.3300                 1.3727
 Red. Mass:       1.5100                 1.5440                 1.5867
 IR Intens:        0.696                  7.476                 20.249
 Frequency:      1238.57                1250.59                1261.76
 Force Cnst:      1.5864                 1.7106                 1.5585
 Red. Mass:       1.7552                 1.8564                 1.6615
 IR Intens:       91.073                111.784                160.415
 Frequency:      1283.76                1300.50                1314.93
 Force Cnst:      1.8053                 2.3220                 1.3999
 Red. Mass:       1.8593                 2.3302                 1.3742
 IR Intens:       49.247                196.190                  8.139
 Frequency:      1325.47                1337.95                1357.70
 Force Cnst:      1.6781                 1.8116                 1.5704
 Red. Mass:       1.6212                 1.7177                 1.4460
 IR Intens:       29.467                 17.028                 12.560
 Frequency:      1372.89                1417.10                1467.89
 Force Cnst:      1.7605                 1.5799                 1.5173
 Red. Mass:       1.5853                 1.3353                 1.1952
 IR Intens:       14.116                 12.917                 15.160
 Frequency:      1468.63                1481.72                1481.86
 Force Cnst:      1.5420                 1.3599                 1.3552
 Red. Mass:       1.2134                 1.0513                 1.0474
 IR Intens:       13.508                  1.684                 10.465
 Frequency:      1482.95                1493.90                1495.78
 Force Cnst:      1.3537                 1.4159                 1.3817
 Red. Mass:       1.0448                 1.0768                 1.0481
 IR Intens:       12.775                  0.629                 12.977
 Frequency:      1497.19                1498.43                1513.41
 Force Cnst:      1.3805                 1.3908                 1.4838
 Red. Mass:       1.0453                 1.0513                 1.0995
 IR Intens:        8.612                  6.647                  9.585
 Frequency:      1775.11                1782.67                3038.19
 Force Cnst:     21.4496                20.4030                 5.8835
 Red. Mass:      11.5536                10.8969                 1.0818
 IR Intens:      108.824                469.156                  5.713
 Frequency:      3047.72                3048.22                3051.64
 Force Cnst:      5.6829                 5.6378                 5.6481
 Red. Mass:       1.0384                 1.0298                 1.0294
 IR Intens:       14.512                 34.354                 34.886
 Frequency:      3057.96                3067.41                3094.28
 Force Cnst:      5.8288                 5.8775                 6.2484
 Red. Mass:       1.0580                 1.0602                 1.1076
 IR Intens:       35.755                 34.976                  0.932
 Frequency:      3111.34                3116.32                3121.63
 Force Cnst:      6.2979                 6.2954                 6.2523
 Red. Mass:       1.1042                 1.1002                 1.0890
 IR Intens:       12.507                 30.736                 18.994
 Frequency:      3121.86                3126.07                3128.83
 Force Cnst:      6.3567                 6.3751                 6.2880
 Red. Mass:       1.1070                 1.1072                 1.0902
 IR Intens:       17.257                 16.549                 23.639
 Frequency:      3138.58                3153.26                3157.05
 Force Cnst:      6.3912                 6.4801                 6.4982
 Red. Mass:       1.1012                 1.1061                 1.1066
 IR Intens:       14.342                 13.529                 12.666

 STANDARD THERMODYNAMIC QUANTITIES AT   298.15 K  AND     1.00 ATM

   This Molecule has  1 Imaginary Frequencies
   Zero point vibrational energy:      166.326 kcal/mol

   Atom    1 Element C  Has Mass   12.00000
   Atom    2 Element C  Has Mass   12.00000
   Atom    3 Element C  Has Mass   12.00000
   Atom    4 Element C  Has Mass   12.00000
   Atom    5 Element O  Has Mass   15.99491
   Atom    6 Element O  Has Mass   15.99491
   Atom    7 Element O  Has Mass   15.99491
   Atom    8 Element O  Has Mass   15.99491
   Atom    9 Element C  Has Mass   12.00000
   Atom   10 Element C  Has Mass   12.00000
   Atom   11 Element C  Has Mass   12.00000
   Atom   12 Element C  Has Mass   12.00000
   Atom   13 Element C  Has Mass   12.00000
   Atom   14 Element C  Has Mass   12.00000
   Atom   15 Element O  Has Mass   15.99491
   Atom   16 Element H  Has Mass    1.00783
   Atom   17 Element H  Has Mass    1.00783
   Atom   18 Element H  Has Mass    1.00783
   Atom   19 Element H  Has Mass    1.00783
   Atom   20 Element H  Has Mass    1.00783
   Atom   21 Element H  Has Mass    1.00783
   Atom   22 Element H  Has Mass    1.00783
   Atom   23 Element H  Has Mass    1.00783
   Atom   24 Element H  Has Mass    1.00783
   Atom   25 Element H  Has Mass    1.00783
   Atom   26 Element H  Has Mass    1.00783
   Atom   27 Element H  Has Mass    1.00783
   Atom   28 Element H  Has Mass    1.00783
   Atom   29 Element C  Has Mass   12.00000
   Atom   30 Element H  Has Mass    1.00783
   Atom   31 Element H  Has Mass    1.00783
   Atom   32 Element H  Has Mass    1.00783
   Molecular Mass:   228.099830 amu
   Principal axes and moments of inertia in amu*Bohr^2:
                             1           2           3
    Eigenvalues --     2871.22056  3129.45955  4840.44386
          X               0.99948    -0.01949     0.02582
          Y               0.01937     0.99980     0.00499
          Z              -0.02591    -0.00449     0.99965
   Rotational Symmetry Number is   1
   The Molecule is an Asymmetric Top
   Translational Enthalpy:        0.889 kcal/mol
   Rotational Enthalpy:           0.889 kcal/mol
   Vibrational Enthalpy:        173.903 kcal/mol
   gas constant (RT):             0.592 kcal/mol
   Translational Entropy:        42.176  cal/mol.K
   Rotational Entropy:           32.142  cal/mol.K
   Vibrational Entropy:          47.208  cal/mol.K

   Total Enthalpy:              176.273 kcal/mol
   Total Entropy:               121.526  cal/mol.K

 Total job time:  8069.95s(wall), 28914.04s(cpu)
        *  Thank you very much for using Q-Chem.  Have a nice day.  *
