 Q-Chem 5.0, Q-Chem, Inc., Pleasanton, CA (2017)
 Q-Chem 5.0.1 for Intel X86 EM64T Linux

User input:
--------------------------------------------------------------
$molecule
0 1
C 0.04408163 1.01105611 0.74504735
C 0.74702823 -0.38961828 0.83089038
C -1.46378776 0.93889539 0.58198143
C -0.10081790 -1.61233863 0.54669249
O -1.91396595 1.59083194 -0.50275619
O -2.18574645 0.38780312 1.37876994
O -0.88652394 -1.45874784 -0.53519185
O -0.02886799 -2.63714743 1.18097080
C -1.74569664 -2.56611936 -0.85896006
C -3.33633963 1.54087185 -0.71943988
C 0.86332398 1.70063726 -0.37472258
C 2.22212331 2.14194821 0.20812831
C 2.93744190 0.76831509 0.35313786
C 1.88489808 -0.20502746 -0.24582556
O 1.23233097 0.61291879 -1.23135624
H 0.18069516 1.52834595 1.69891761
H 1.17400010 -0.56144985 1.81684420
H -2.46806072 -2.72522483 -0.05674577
H -3.66374282 0.50539200 -0.82200828
H 2.74248018 2.78486553 -0.50322798
H 2.12546791 2.68554880 1.15027636
H 3.85397703 0.73131000 -0.23813116
H 3.19196027 0.51656844 1.38432288
H -2.24937330 -2.28089736 -1.77999983
H -1.16079615 -3.47507915 -1.00580643
H -3.50815877 2.09146016 -1.64158432
H -3.86757333 2.00480587 0.11289814
H 0.32069562 2.44895344 -0.94374581
C 2.43922350 -1.46606738 -0.86847340
H 3.19490866 -1.20845525 -1.61348298
H 2.90099292 -2.09719913 -0.10545676
H 1.65253200 -2.03837036 -1.36208233
$end

$rem
sym_ignore      true
jobtype         opt
method          b3lyp
basis           6-311++G(d,p)
dft_d           d3_op
mem_total       62000
MEM_STATIC      4000
ao2mo_disk      350000
max_scf_cycles  200
geom_opt_max_cycles 1000
geom_opt_tol_displacement 1
GEOM_OPT_TOL_GRADIENT       1
GEOM_OPT_TOL_ENERGY         1
$end

--------------------------------------------------------------

   15    -805.1965141906      3.47E-09 Convergence criterion met
 Total energy in the final basis set = -805.19651419
   11    -805.1965096696      4.15E-09 Convergence criterion met
 Total energy in the final basis set = -805.19650967
   11    -805.1965306984      7.06E-09 Convergence criterion met
 Total energy in the final basis set = -805.19653070
   11    -805.1965207861      5.66E-09 Convergence criterion met
 Total energy in the final basis set = -805.19652079
   10    -805.1965378405      8.97E-09 Convergence criterion met
 Total energy in the final basis set = -805.19653784
   11    -805.1964956289      8.72E-09 Convergence criterion met
 Total energy in the final basis set = -805.19649563
   11    -805.1965415333      6.28E-09 Convergence criterion met
 Total energy in the final basis set = -805.19654153
   10    -805.1965410042      2.18E-09 Convergence criterion met
   10    -805.1965396369      3.98E-09 Convergence criterion met
 Total energy in the final basis set = -805.19653964
    8    -805.1965395328      4.02E-09 Convergence criterion met
 Total energy in the final basis set = -805.19653953
    8    -805.1965395543      4.34E-09 Convergence criterion met
 Total energy in the final basis set = -805.19653955
    6    -805.1965395542      6.75E-09 Convergence criterion met
 Total energy in the final basis set = -805.19653955
    5    -805.1965395469      8.45E-09 Convergence criterion met
 Total energy in the final basis set = -805.19653955
    4    -805.1965395397      6.71E-09 Convergence criterion met
 Total energy in the final basis set = -805.19653954
 Final energy is   -805.196539539662
 **  OPTIMIZATION CONVERGED  **
 Total job time:  767.34s(wall), 12978.67s(cpu)
        *  Thank you very much for using Q-Chem.  Have a nice day.  *

User input: 2 of 2

r0209.ten.osc.edu 10.25.156
Q-Chem Developer Version! Running on 10.25.156.*
                  Welcome to Q-Chem
     A Quantum Leap Into The Future Of Chemistry

 Q-Chem 5.0, Q-Chem, Inc., Pleasanton, CA (2017)

 Yihan Shao,  Zhengting Gan,  E. Epifanovsky,  A. T. B. Gilbert,  M. Wormit,
 J. Kussmann,  A. W. Lange,  A. Behn,  Jia Deng,  Xintian Feng,  D. Ghosh,
 M. Goldey,  P. R. Horn,  L. D. Jacobson,  I. Kaliman,  T. Kus,  A. Landau,
 Jie Liu,  E. I. Proynov,  R. M. Richard,  R. P. Steele,  E. J. Sundstrom,
 H. L. Woodcock III,  P. M. Zimmerman,  D. Zuev,  B. Albrecht,  E. Alguire,
 S. A. Baeppler,  Z. Benda,  Y. A. Bernard,  E. J. Berquist,  K. B. Bravaya,
 D. Casanova,  Chun-Min Chang,  Yunqing Chen,  A. Chien,  K. D. Closser,
 M. P. Coons,  S. Dasgupta,  M. Diedenhofen,  Hainam Do,  R. G. Edgar,
 Po-Tung Fang,  S. Fatehi,  Qingguo Feng,  Qinghui Ge,  A. Ghysels,
 J. Gomes,  J. Gonthier,  A. Gunina,  M. W. D. Hanson-Heine,
 P. H. P. Harbach,  A. W. Hauser,  J. E. Herr,  E. G. Hohenstein,
 Z. C. Holden,  Kerwin Hui,  T.-C. Jagau,  Hyunjun Ji,  B. Kaduk,
 K. Khistyaev,  Jaehoon Kim,  P. Klunzinger,  K. Koh,  D. Kosenkov,
 T. Kowalczyk,  C. M. Krauter,  A. Kunitsa,  Ka Un Lao,  A. Laurent,
 K. V. Lawler,  Joonho Lee,  D. Lefrancois,  S. Lehtola,  D. S. Levine,
 Yi-Pei Li,  You-Sheng Lin,  Fenglai Liu,  E. Livshits,  A. Luenser,
 P. Manohar,  E. Mansoor,  S. F. Manzer,  Shan-Ping Mao,  Yuezhi Mao,
 N. Mardirossian,  A. V. Marenich,  L. A. Martinez-Martinez,  S. A. Maurer,
 N. J. Mayhall,  S. C. McKenzie,  J.-M. Mewes,  A. F. Morrison,  K. Nanda,
 T. S. Nguyen-Beck,  R. Olivares-Amaya,  J. A. Parkhill,  T. M. Perrine,
 F. Plasser,  S. Prager,  A. Prociuk,  D. R. Rehn,  F. Rob,  M. Schneider,
 N. Sergueev,  S. M. Sharada,  S. Sharma,  D. W. Small,  T. Stauch,
 T. Stein,  Yu-Chuan Su,  A. J. W. Thom,  T. Tsuchimochi,  L. Vogt,
 O. Vydrov,  M. A. Watson,  J. Wenzel,  M. de Wergifosse,  T. A. Wesolowski,
 A. White,  J. Witte,  A. Yamada,  Jun Yang,  K. Yao,  S. Yeganeh,
 S. R. Yost,  Zhi-Qiang You,  A. Zech,  Igor Ying Zhang,  Xing Zhang,
 Yan Zhao,  Ying Zhu,  B. R. Brooks,  G. K. L. Chan,  C. J. Cramer,
 M. S. Gordon,  W. J. Hehre,  A. Klamt,  M. W. Schmidt,  C. D. Sherrill,
 D. G. Truhlar,  A. Aspuru-Guzik,  R. Baer,  A. T. Bell,  N. A. Besley,
 Jeng-Da Chai,  A. Dreuw,  B. D. Dunietz,  T. R. Furlani,  Chao-Ping Hsu,
 Yousung Jung,  Jing Kong,  D. S. Lambrecht,  WanZhen Liang,  C. Ochsenfeld,
 V. A. Rassolov,  L. V. Slipchenko,  J. E. Subotnik,  T. Van Voorhis,
 J. M. Herbert,  A. I. Krylov,  P. M. W. Gill,  M. Head-Gordon

 Contributors to earlier versions of Q-Chem not listed above:
 R. D. Adamson,  B. Austin,  J. Baker,  G. J. O. Beran,  K. Brandhorst,
 S. T. Brown,  E. F. C. Byrd,  A. K. Chakraborty,  C.-L. Cheng,
 Siu Hung Chien,  D. M. Chipman,  D. L. Crittenden,  H. Dachsel,
 R. A. DiStasio Jr.,  R. J. Doerksen,  A. D. Dutoi,  L. Fusti-Molnar,
 W. A. Goddard III,  A. Golubeva-Zadorozhnaya,  S. R. Gwaltney,  G. Hawkins,
 A. Heyden,  S. Hirata,  G. Kedziora,  F. J. Keil,  C. Kelley,  Jihan Kim,
 R. A. King,  R. Z. Khaliullin,  P. P. Korambath,  W. Kurlancheek,
 A. M. Lee,  M. S. Lee,  S. V. Levchenko,  Ching Yeh Lin,  D. Liotard,
 R. C. Lochan,  I. Lotan,  P. E. Maslen,  N. Nair,  D. P. O'Neill,
 D. Neuhauser,  E. Neuscamman,  C. M. Oana,  R. Olson,  B. Peters,
 R. Peverati,  P. A. Pieniazek,  Y. M. Rhee,  J. Ritchie,  M. A. Rohrdanz,
 E. Rosta,  N. J. Russ,  H. F. Schaefer III,  N. E. Schultz,  N. Shenvi,
 A. C. Simmonett,  A. Sodt,  D. Stuck,  K. S. Thanthiriwatte,  V. Vanovschi,
 Tao Wang,  A. Warshel,  C. F. Williams,  Q. Wu,  X. Xu,  W. Zhang

 Please cite Q-Chem as follows:
 Y. Shao et al., Mol. Phys. 113, 184-215 (2015)
 DOI: 10.1080/00268976.2014.952696

 Q-Chem 5.0.1 for Intel X86 EM64T Linux

 Parts of Q-Chem use Armadillo 5.200.1 (Boston Tea Smuggler).
 http://arma.sourceforge.net/

 Q-Chem begins on Sat Oct 14 17:28:56 2017

Host: r0209.ten.osc.edu
0

     Scratch files written to /tmp/pbstmp.1310464/11//
Processing $rem in /users/PAS0291/osu6415/.qchemrc.
molden_format             true
The previous job contains 0 fragments, simply inherited here

Checking the input file for inconsistencies... 	...done.

--------------------------------------------------------------
User input:
--------------------------------------------------------------

$molecule
read
$end

$rem
sym_ignore      true
scf_guess       read
jobtype         freq
method          b3lyp
basis           6-311++G(d,p)
dft_d           d3_op
mem_total       62000
MEM_STATIC      4000
ao2mo_disk      350000
max_scf_cycles  200
$end
--------------------------------------------------------------

             Standard Nuclear Orientation (Angstroms)
    I     Atom           X                Y                Z
 ----------------------------------------------------------------
    1      C       0.0485570132     1.0193509280     0.7688207810
    2      C       0.7527693494    -0.3836489317     0.8304591082
    3      C      -1.4574982422     0.9449441936     0.5889710461
    4      C      -0.1057123516    -1.6028331668     0.5628457756
    5      O      -1.8926799589     1.5582495464    -0.5235203656
    6      O      -2.1897815707     0.4193982392     1.3937812343
    7      O      -0.8867306460    -1.4582099589    -0.5241127690
    8      O      -0.0536529012    -2.6147461432     1.2190281144
    9      C      -1.7585831418    -2.5603991892    -0.8316179388
   10      C      -3.3098857376     1.4900129401    -0.7647463696
   11      C       0.8687904867     1.7244831462    -0.3401277788
   12      C       2.2358153165     2.1416930710     0.2416630789
   13      C       2.9448826550     0.7608762838     0.3427463330
   14      C       1.8755415004    -0.1913710907    -0.2594177711
   15      O       1.2192158486     0.6508410871    -1.2219779313
   16      H       0.1793003254     1.5197304688     1.7318443275
   17      H       1.1948664898    -0.5596141372     1.8090611926
   18      H      -2.4900171809    -2.6921062435    -0.0326037645
   19      H      -3.6267056819     0.4490147411    -0.8421261051
   20      H       2.7535774096     2.8018909182    -0.4555437579
   21      H       2.1499303487     2.6591868372     1.1994593900
   22      H       3.8498667890     0.7320305588    -0.2664783776
   23      H       3.2166065021     0.4844077205     1.3631201830
   24      H      -2.2502602602    -2.2880749486    -1.7630052038
   25      H      -1.1852502337    -3.4802642806    -0.9536975186
   26      H      -3.4686480433     2.0109108842    -1.7062856415
   27      H      -3.8609354628     1.9741710051     0.0427993047
   28      H       0.3302245239     2.4899597126    -0.8900189566
   29      C       2.4079176026    -1.4473613164    -0.9106682099
   30      H       3.1591660618    -1.1863332481    -1.6589473453
   31      H       2.8700061372    -2.0977977227    -0.1640776520
   32      H       1.6080171531    -1.9996062645    -1.4057460720
 ----------------------------------------------------------------

    2    -805.1965395419      8.60E-09 Convergence criterion met
 Total energy in the final basis set = -805.19653954

                    Orbital Energies (a.u.)
 --------------------------------------------------------------

 Alpha MOs
 -- Occupied --
-19.177 -19.171 -19.130 -19.115 -19.114 -10.309 -10.304 -10.245
-10.232 -10.231 -10.227 -10.206 -10.204 -10.180 -10.180 -10.170
 -1.119  -1.112  -1.063  -1.029  -1.025  -0.831  -0.796  -0.783
 -0.746  -0.728  -0.694  -0.655  -0.605  -0.592  -0.572  -0.566
 -0.528  -0.514  -0.508  -0.492  -0.490  -0.482  -0.477  -0.470
 -0.461  -0.442  -0.432  -0.423  -0.417  -0.403  -0.394  -0.386
 -0.377  -0.372  -0.367  -0.364  -0.355  -0.353  -0.337  -0.334
 -0.318  -0.311  -0.292  -0.277  -0.272

          Ground-State Mulliken Net Atomic Charges

     Atom                 Charge (a.u.)
  ----------------------------------------
      1 C                     0.065176
      2 C                     0.351288
      3 C                    -0.637035
      4 C                    -0.582377
      5 O                    -0.004386
      6 O                    -0.183205
      7 O                    -0.039093
      8 O                    -0.168926
      9 C                    -0.226242
     10 C                    -0.185377
     11 C                     0.017311
     12 C                    -0.533613
     13 C                    -0.396494
     14 C                    -0.106388
     15 O                    -0.070103
     16 H                     0.251097
     17 H                     0.287619
     18 H                     0.208161
     19 H                     0.165621
     20 H                     0.182550
     21 H                     0.122558
     22 H                     0.169161
     23 H                     0.140316
     24 H                     0.157792
     25 H                     0.175383
     26 H                     0.155039
     27 H                     0.173494
     28 H                     0.298569
     29 C                    -0.308687
     30 H                     0.177963
     31 H                     0.165512
     32 H                     0.177318
  ----------------------------------------
  Sum of atomic charges =     0.000000

                    Cartesian Multipole Moments
 -----------------------------------------------------------------
    Charge (ESU x 10^10)
                 0.0000
    Dipole Moment (Debye)
         X       0.4089      Y       2.1510      Z      -1.7241
       Tot       2.7869
    Quadrupole Moments (Debye-Ang)
        XX     -84.9317     XY       0.3875     YY     -94.0618
        XZ       9.4737     YZ       8.1166     ZZ    -101.2754

 Frequency:        33.36                  51.33                  71.68
 Force Cnst:      0.0026                 0.0072                 0.0156
 Red. Mass:       3.9539                 4.6702                 5.1491
 IR Intens:        2.201                  0.228                  1.119
 Frequency:        87.90                 127.42                 137.19
 Force Cnst:      0.0153                 0.0241                 0.0150
 Red. Mass:       3.3542                 2.5162                 1.3484
 IR Intens:        3.884                  0.095                  0.617
 Frequency:       145.82                 154.07                 162.49
 Force Cnst:      0.0236                 0.0320                 0.0354
 Red. Mass:       1.8855                 2.2844                 2.2770
 IR Intens:        2.305                  1.210                  0.620
 Frequency:       227.75                 240.37                 250.66
 Force Cnst:      0.1268                 0.1027                 0.0860
 Red. Mass:       4.1479                 3.0170                 2.3230
 IR Intens:        1.802                  4.693                  1.511
 Frequency:       273.91                 296.33                 313.64
 Force Cnst:      0.0624                 0.1744                 0.1888
 Red. Mass:       1.4122                 3.3709                 3.2567
 IR Intens:        3.019                  3.073                 13.891
 Frequency:       330.61                 354.53                 374.17
 Force Cnst:      0.2087                 0.2309                 0.3378
 Red. Mass:       3.2408                 3.1184                 4.0958
 IR Intens:        3.521                  1.114                  8.053
 Frequency:       394.68                 463.09                 574.28
 Force Cnst:      0.4232                 0.6513                 0.7163
 Red. Mass:       4.6111                 5.1551                 3.6861
 IR Intens:        2.163                  5.931                 16.238
 Frequency:       594.84                 650.36                 663.69
 Force Cnst:      1.0396                 0.9436                 1.3666
 Red. Mass:       4.9870                 3.7864                 5.2655
 IR Intens:       11.207                  0.779                  6.887
 Frequency:       700.30                 736.52                 803.17
 Force Cnst:      1.8122                 1.6589                 1.2336
 Red. Mass:       6.2716                 5.1903                 3.2458
 IR Intens:        3.472                  7.898                  8.364
 Frequency:       818.03                 839.41                 856.64
 Force Cnst:      1.5260                 0.8620                 1.6520
 Red. Mass:       3.8705                 2.0764                 3.8209
 IR Intens:       24.636                  9.012                  8.045
 Frequency:       864.16                 880.20                 898.46
 Force Cnst:      2.1953                 2.1104                 1.0643
 Red. Mass:       4.9894                 4.6233                 2.2379
 IR Intens:        2.480                  6.468                  9.897
 Frequency:       916.61                 930.66                 969.41
 Force Cnst:      1.1612                 1.4311                 2.0656
 Red. Mass:       2.3459                 2.8043                 3.7307
 IR Intens:        6.821                  9.010                  4.593
 Frequency:       978.11                 987.98                1011.79
 Force Cnst:      1.3281                 1.6495                 2.6757
 Red. Mass:       2.3561                 2.8681                 4.4363
 IR Intens:        1.758                 10.010                 40.296
 Frequency:      1044.94                1061.22                1063.41
 Force Cnst:      1.1357                 2.8527                 2.4685
 Red. Mass:       1.7654                 4.2992                 3.7049
 IR Intens:        7.483                 94.601                 31.895
 Frequency:      1127.43                1140.56                1168.86
 Force Cnst:      1.3424                 1.2466                 1.0363
 Red. Mass:       1.7924                 1.6264                 1.2874
 IR Intens:       29.130                 12.528                  0.750
 Frequency:      1174.11                1197.08                1206.37
 Force Cnst:      1.0412                 1.6033                 1.3056
 Red. Mass:       1.2819                 1.8989                 1.5227
 IR Intens:        1.287                  6.556                  7.797
 Frequency:      1208.00                1209.16                1211.22
 Force Cnst:      1.3666                 1.2834                 1.2958
 Red. Mass:       1.5895                 1.4899                 1.4991
 IR Intens:       46.623                  1.886                 17.150
 Frequency:      1253.35                1258.34                1260.87
 Force Cnst:      1.8047                 1.8362                 1.5196
 Red. Mass:       1.9499                 1.9682                 1.6223
 IR Intens:       59.807                 91.778                 61.316
 Frequency:      1285.86                1293.91                1310.97
 Force Cnst:      1.9843                 1.9982                 1.6034
 Red. Mass:       2.0369                 2.0257                 1.5834
 IR Intens:      197.043                166.995                 16.304
 Frequency:      1330.38                1337.40                1359.98
 Force Cnst:      1.8111                 1.6452                 1.4767
 Red. Mass:       1.7368                 1.5612                 1.3551
 IR Intens:       15.184                 37.079                 13.904
 Frequency:      1374.04                1421.43                1468.00
 Force Cnst:      1.8909                 1.6078                 1.5323
 Red. Mass:       1.6999                 1.3506                 1.2068
 IR Intens:        3.185                 12.340                 13.980
 Frequency:      1469.83                1482.32                1484.76
 Force Cnst:      1.5285                 1.3534                 1.3567
 Red. Mass:       1.2008                 1.0454                 1.0445
 IR Intens:       17.910                  5.658                 10.228
 Frequency:      1486.65                1492.35                1495.87
 Force Cnst:      1.3957                 1.3925                 1.3794
 Red. Mass:       1.0718                 1.0612                 1.0463
 IR Intens:        0.691                  2.337                 13.205
 Frequency:      1498.82                1510.35                1512.63
 Force Cnst:      1.3857                 1.4531                 1.4386
 Red. Mass:       1.0469                 1.0812                 1.0671
 IR Intens:        5.793                  8.406                  5.707
 Frequency:      1775.09                1784.13                3044.94
 Force Cnst:     20.8439                20.3810                 5.6598
 Red. Mass:      11.2276                10.8673                 1.0361
 IR Intens:      120.400                417.038                 10.559
 Frequency:      3049.75                3050.51                3056.10
 Force Cnst:      5.6408                 5.6451                 5.8360
 Red. Mass:       1.0293                 1.0296                 1.0606
 IR Intens:       21.479                 45.029                 25.460
 Frequency:      3063.98                3068.67                3094.82
 Force Cnst:      5.9233                 5.9442                 6.2513
 Red. Mass:       1.0709                 1.0714                 1.1078
 IR Intens:       21.280                 26.682                  0.769
 Frequency:      3111.03                3113.88                3124.07
 Force Cnst:      6.2988                 6.3002                 6.3649
 Red. Mass:       1.1046                 1.1028                 1.1069
 IR Intens:        3.030                 37.953                 24.558
 Frequency:      3124.39                3124.52                3125.60
 Force Cnst:      6.3668                 6.2863                 6.3109
 Red. Mass:       1.1070                 1.0929                 1.0964
 IR Intens:        7.049                 14.231                 20.928
 Frequency:      3155.62                3158.33                3159.87
 Force Cnst:      6.4912                 6.5009                 6.4129
 Red. Mass:       1.1064                 1.1061                 1.0901
 IR Intens:       12.670                 14.582                 10.831

 STANDARD THERMODYNAMIC QUANTITIES AT   298.15 K  AND     1.00 ATM

   This Molecule has  0 Imaginary Frequencies
   Zero point vibrational energy:      166.619 kcal/mol

   Atom    1 Element C  Has Mass   12.00000
   Atom    2 Element C  Has Mass   12.00000
   Atom    3 Element C  Has Mass   12.00000
   Atom    4 Element C  Has Mass   12.00000
   Atom    5 Element O  Has Mass   15.99491
   Atom    6 Element O  Has Mass   15.99491
   Atom    7 Element O  Has Mass   15.99491
   Atom    8 Element O  Has Mass   15.99491
   Atom    9 Element C  Has Mass   12.00000
   Atom   10 Element C  Has Mass   12.00000
   Atom   11 Element C  Has Mass   12.00000
   Atom   12 Element C  Has Mass   12.00000
   Atom   13 Element C  Has Mass   12.00000
   Atom   14 Element C  Has Mass   12.00000
   Atom   15 Element O  Has Mass   15.99491
   Atom   16 Element H  Has Mass    1.00783
   Atom   17 Element H  Has Mass    1.00783
   Atom   18 Element H  Has Mass    1.00783
   Atom   19 Element H  Has Mass    1.00783
   Atom   20 Element H  Has Mass    1.00783
   Atom   21 Element H  Has Mass    1.00783
   Atom   22 Element H  Has Mass    1.00783
   Atom   23 Element H  Has Mass    1.00783
   Atom   24 Element H  Has Mass    1.00783
   Atom   25 Element H  Has Mass    1.00783
   Atom   26 Element H  Has Mass    1.00783
   Atom   27 Element H  Has Mass    1.00783
   Atom   28 Element H  Has Mass    1.00783
   Atom   29 Element C  Has Mass   12.00000
   Atom   30 Element H  Has Mass    1.00783
   Atom   31 Element H  Has Mass    1.00783
   Atom   32 Element H  Has Mass    1.00783
   Molecular Mass:   228.099830 amu
   Principal axes and moments of inertia in amu*Bohr^2:
                             1           2           3
    Eigenvalues --     2522.61750  3333.76783  4692.20855
          X               0.99829    -0.05640     0.01521
          Y               0.05589     0.99792     0.03220
          Z              -0.01699    -0.03129     0.99937
   Rotational Symmetry Number is   1
   The Molecule is an Asymmetric Top
   Translational Enthalpy:        0.889 kcal/mol
   Rotational Enthalpy:           0.889 kcal/mol
   Vibrational Enthalpy:        174.702 kcal/mol
   gas constant (RT):             0.592 kcal/mol
   Translational Entropy:        42.176  cal/mol.K
   Rotational Entropy:           32.045  cal/mol.K
   Vibrational Entropy:          52.007  cal/mol.K

   Total Enthalpy:              177.072 kcal/mol
   Total Entropy:               126.228  cal/mol.K

 Total job time:  8230.58s(wall), 29473.02s(cpu)
        *  Thank you very much for using Q-Chem.  Have a nice day.  *
